Title
82292
    1SAPS     N    1   1.107   2.449  11.092 -1.1540  0.0261  0.0886
    1SAPS   HN1    2   1.028   2.382  11.099 -0.0464 -1.4814 -1.5060
    1SAPS   HN2    3   1.076   2.536  11.043  2.6873 -0.0415 -2.7393
    1SAPS   HN3    4   1.172   2.408  11.022 -1.3488 -0.0409 -0.0510
    1SAPS   C12    5   1.178   2.488  11.218  0.6118 -0.0625  0.3757
    1SAPS  H12A    6   1.104   2.548  11.267  0.1252  1.3992 -2.0701
    1SAPS   C13    7   1.225   2.374  11.309  0.0714 -0.2525 -0.8317
    1SAPS  O13A    8   1.245   2.259  11.264 -0.2638  0.0454 -0.4658
    1SAPS  O13B    9   1.261   2.403  11.428 -0.5094 -0.0068 -0.3233
    1SAPS   C11   10   1.307   2.569  11.181 -0.9510 -0.6326  0.0218
    1SAPS  H11A   11   1.387   2.510  11.132  1.7645  2.3355  0.6971
    1SAPS  H11B   12   1.344   2.610  11.278 -0.0809  0.0543 -0.5915
    1SAPS     P   13   1.385   2.790  11.066  0.2916 -0.5769 -0.1973
    1SAPS   O13   14   1.319   2.923  11.049  0.7658  0.3451  0.3507
    1SAPS   O14   15   1.493   2.791  11.171  0.0627  0.1903 -0.3205
    1SAPS   O12   16   1.276   2.683  11.101 -0.3129 -0.7886 -0.3409
    1SAPS   O11   17   1.448   2.744  10.928 -0.2170  0.4808 -0.0564
    1SAPS    C1   18   1.366   2.700  10.820  0.0841 -0.0670 -0.0821
    1SAPS    HA   19   1.426   2.629  10.760 -1.0636 -0.2368 -1.0458
    1SAPS    HB   20   1.276   2.643  10.854 -0.4141  1.4854  1.2474
    1SAPS    C2   21   1.327   2.816  10.729 -0.4240 -0.4545 -0.2424
    1SAPS    HS   22   1.276   2.891  10.792  1.6857  0.0787  0.8517
    1SAPS   O21   23   1.250   2.762  10.624  0.5827 -0.3853  0.4969
    1SAPS   C21   24   1.168   2.848  10.569  0.2650 -0.2232 -0.4862
    1SAPS   O22   25   1.132   2.955  10.616  0.3676 -0.4208  0.3176
    1SAPS   C22   26   1.129   2.802  10.433 -0.3025 -0.4189 -0.4351
    1SAPS   H2R   27   1.164   2.697  10.421 -1.2496 -0.6041 -1.7112
    1SAPS   H2S   28   1.018   2.795  10.437 -0.2048 -1.0271  1.9338
    1SAPS    C3   29   1.459   2.896  10.685  0.9947  0.1845 -0.1966
    1SAPS    HX   30   1.511   2.822  10.621  1.2003  1.2142 -1.2414
    1SAPS    HY   31   1.519   2.924  10.774  0.1469  1.6994 -0.0770
    1SAPS   O31   32   1.435   3.009  10.605 -0.8608  0.1141  0.5400
    1SAPS   C31   33   1.432   3.121  10.669  0.4853 -0.7221 -0.2931
    1SAPS   O32   34   1.455   3.143  10.786  0.4537 -0.7265  0.5088
    1SAPS   C32   35   1.374   3.234  10.586  0.4530 -0.0551 -0.6006
    1SAPS   H2X   36   1.284   3.266  10.644  0.0606  0.1716 -1.3270
    1SAPS   H2Y   37   1.337   3.193  10.490 -3.4061  0.2262  0.6495
    1SAPS   C23   38   1.173   2.888  10.313  0.1098 -0.4156  0.1207
    1SAPS   H3R   39   1.267   2.943  10.339 -0.9741  0.7431  1.6661
    1SAPS   H3S   40   1.101   2.964  10.276 -0.5635 -0.8404  0.5603
    1SAPS   C24   41   1.202   2.809  10.191  0.1740 -0.3133  0.5036
    1SAPS   H4R   42   1.257   2.718  10.225 -0.1692 -0.8218 -0.2896
    1SAPS   H4S   43   1.252   2.874  10.116 -2.0435 -0.8425 -1.4701
    1SAPS   C25   44   1.080   2.749  10.123 -0.2472 -0.1101  0.2398
    1SAPS   H5R   45   0.998   2.714  10.188  1.8505 -1.2082  2.3347
    1SAPS   C26   46   1.069   2.726   9.987  0.2037  0.0875 -0.2447
    1SAPS   H6R   47   0.979   2.673   9.951  0.4500 -0.8136  0.4425
    1SAPS   C27   48   1.168   2.766   9.885 -0.1853 -0.9463  0.9761
    1SAPS   H7R   49   1.174   2.694   9.800  0.9669  0.9736 -0.6111
    1SAPS   H7S   50   1.268   2.749   9.930 -1.2292 -2.8774  2.6594
    1SAPS   C28   51   1.146   2.907   9.851 -0.2073 -0.0620 -0.0662
    1SAPS   H8R   52   1.114   2.963   9.940  1.4818  0.3916  0.2657
    1SAPS   C29   53   1.169   2.956   9.732 -0.5631 -0.2657 -0.1389
    1SAPS   H9R   54   1.168   3.065   9.713  0.5346 -0.1078  0.6601
    1SAPS  C210   55   1.222   2.878   9.618  0.4018  0.0910  0.2071
    1SAPS  H10R   56   1.212   2.767   9.629 -1.3757 -0.1596 -3.3973
    1SAPS  H10S   57   1.331   2.895   9.614  0.4079 -0.2736 -1.3337
    1SAPS  C211   58   1.167   2.903   9.487  0.0282  0.4673  0.1714
    1SAPS  H11R   59   1.076   2.964   9.476  0.5862  1.0016 -1.6441
    1SAPS  C212   60   1.223   2.865   9.373 -0.0018  0.8457 -0.2017
    1SAPS  H12R   61   1.181   2.894   9.276  0.2612  0.4757 -0.4231
    1SAPS  C213   62   1.345   2.781   9.357 -0.0588  0.1587  0.0702
    1SAPS  H13R   63   1.357   2.729   9.454  0.4910 -0.5596 -0.3865
    1SAPS  H13S   64   1.428   2.855   9.351 -0.6385  0.7508 -0.8818
    1SAPS  C214   65   1.327   2.685   9.237 -0.0526 -0.2231 -0.6281
    1SAPS  H14R   66   1.284   2.585   9.246  2.4767 -1.1474  1.9205
    1SAPS  C215   67   1.373   2.733   9.115  0.1627 -0.4020 -0.3744
    1SAPS  H15R   68   1.366   2.672   9.024  0.1964  1.7721 -1.8843
    1SAPS  C216   69   1.442   2.872   9.088  0.2002 -0.1231 -0.0982
    1SAPS  H16R   70   1.535   2.876   9.149 -1.5740 -2.5363  2.9655
    1SAPS  H16S   71   1.371   2.951   9.119 -3.1100 -2.5122 -1.1996
    1SAPS  C217   72   1.488   2.882   8.948  1.3921 -0.4580  0.1171
    1SAPS  H17R   73   1.569   2.810   8.925  1.8805  0.4395 -1.0467
    1SAPS  H17S   74   1.538   2.977   8.917  1.0581 -0.4033 -0.2575
    1SAPS  C218   75   1.385   2.870   8.835 -0.1343 -0.0465 -0.2936
    1SAPS  H18R   76   1.293   2.924   8.865 -0.4973 -0.9290  0.1981
    1SAPS  H18S   77   1.347   2.766   8.826 -0.0059 -0.2324  1.1965
    1SAPS  C219   78   1.432   2.904   8.695  0.0257  0.2882 -0.6701
    1SAPS  H19R   79   1.515   2.833   8.677 -0.4914 -1.4931  3.4052
    1SAPS  H19S   80   1.462   3.011   8.688  0.7346  0.0413 -1.4859
    1SAPS  C220   81   1.327   2.879   8.583 -0.2850 -0.1694 -0.4176
    1SAPS  H20R   82   1.352   2.909   8.479 -2.0035  2.7384 -0.0421
    1SAPS  H20S   83   1.233   2.933   8.607  1.5224  3.1052 -0.3654
    1SAPS  H20T   84   1.294   2.773   8.579 -2.9964  0.6931 -1.9395
    1SAPS   C33   85   1.484   3.346  10.563  0.2679 -0.2056 -0.0180
    1SAPS   H3X   86   1.542   3.373  10.654  2.8266  0.0094 -1.6674
    1SAPS   H3Y   87   1.443   3.443  10.527  3.6120  1.9361  1.7009
    1SAPS   C34   88   1.583   3.295  10.452 -0.4955 -0.2834 -0.4817
    1SAPS   H4X   89   1.610   3.187  10.450  2.5776  0.4302 -1.7484
    1SAPS   H4Y   90   1.676   3.348  10.482 -0.1649 -0.4215 -1.2474
    1SAPS   C35   91   1.540   3.337  10.310 -0.2475 -0.5329  0.9004
    1SAPS   H5X   92   1.630   3.374  10.257 -1.7622  1.0666 -0.6441
    1SAPS   H5Y   93   1.467   3.421  10.318 -1.3982 -1.5796  1.5740
    1SAPS   C36   94   1.487   3.219  10.229 -0.2705 -0.0931 -0.0059
    1SAPS   H6X   95   1.417   3.155  10.287 -1.2073  0.1371 -0.8624
    1SAPS   H6Y   96   1.574   3.157  10.200 -0.6410  0.2560 -1.9711
    1SAPS   C37   97   1.417   3.258  10.105 -0.1881 -0.8376  0.3891
    1SAPS   H7X   98   1.362   3.354  10.118 -2.5186 -1.9929 -0.6670
    1SAPS   H7Y   99   1.339   3.184  10.080 -0.1567 -1.1961  1.3230
    1SAPS   C38  100   1.505   3.263   9.974 -0.2498  0.0927 -0.2570
    1SAPS   H8X  101   1.573   3.175   9.982 -0.3438 -0.0113 -0.5834
    1SAPS   H8Y  102   1.565   3.357   9.971 -2.1368  1.3148 -0.6585
    1SAPS   C39  103   1.417   3.254   9.850 -0.0216 -0.8929 -0.1923
    1SAPS   H9X  104   1.364   3.348   9.823  1.3576 -0.9372 -3.2701
    1SAPS   H9Y  105   1.342   3.173   9.861  0.0943 -0.8705  0.7424
    1SAPS  C310  106   1.504   3.220   9.732  0.5644 -0.3894  0.1968
    1SAPS  H10X  107   1.544   3.118   9.753  2.0259  0.3666  1.1471
    1SAPS  H10Y  108   1.597   3.280   9.722 -1.3428  2.6049  0.0284
    1SAPS  C311  109   1.420   3.213   9.597  0.1287 -0.7687  0.7105
    1SAPS  H11X  110   1.356   3.302   9.585 -0.5767 -1.4468 -0.6445
    1SAPS  H11Y  111   1.349   3.129   9.614 -1.9645  0.8291  0.0433
    1SAPS  C312  112   1.504   3.198   9.474 -0.6575 -0.2408  0.2996
    1SAPS  H12X  113   1.549   3.098   9.458  2.0781  1.3981 -2.7636
    1SAPS  H12Y  114   1.598   3.256   9.483  2.6290 -5.2616  0.3524
    1SAPS  C313  115   1.419   3.230   9.351 -0.1476  0.4404  0.0291
    1SAPS  H13X  116   1.371   3.330   9.350  0.7159  0.8890 -3.5607
    1SAPS  H13Y  117   1.342   3.150   9.341  0.4354 -0.3029  1.3997
    1SAPS  C314  118   1.503   3.236   9.226 -0.2984 -0.0732  0.2036
    1SAPS  H14X  119   1.518   3.142   9.170  0.4482  0.5084 -0.5766
    1SAPS  H14Y  120   1.597   3.291   9.246 -1.9918  2.1298  2.5250
    1SAPS  C315  121   1.436   3.330   9.124  0.9065  0.0490  0.2013
    1SAPS  H15X  122   1.423   3.424   9.182 -0.6015  0.0225 -0.0639
    1SAPS  H15Y  123   1.335   3.289   9.102  0.7734  0.8366 -0.6742
    1SAPS  C316  124   1.516   3.369   8.999  0.0861  0.4356 -0.1136
    1SAPS  H16X  125   1.620   3.390   9.033  0.5716 -1.1430 -0.5730
    1SAPS  H16Y  126   1.483   3.464   8.954 -1.3417  0.2474  0.4975
    1SAPS  C317  127   1.511   3.259   8.888  0.5442 -1.2260 -0.2753
    1SAPS  H17X  128   1.408   3.225   8.866  0.0471 -0.7631  1.2155
    1SAPS  H17Y  129   1.555   3.167   8.933  1.4641 -1.0473 -0.7807
    1SAPS  C318  130   1.591   3.293   8.766 -0.3443  0.4911  0.9658
    1SAPS  H18X  131   1.696   3.296   8.801 -0.4343 -0.0609  1.2920
    1SAPS  H18Y  132   1.547   3.375   8.705 -0.7574 -1.6643 -1.7185
    1SAPS  H18Z  133   1.583   3.210   8.693  0.0212  1.2591  0.0469
    2SAPS     N  134   6.112   3.785  11.080 -0.5433  0.4550  0.1139
    2SAPS   HN1  135   6.206   3.826  11.060 -0.6533  1.0720  0.8167
    2SAPS   HN2  136   6.044   3.822  11.011  0.3367 -0.4553 -1.2804
    2SAPS   HN3  137   6.082   3.804  11.178  1.0239 -0.2065  0.7390
    2SAPS   C12  138   6.133   3.637  11.070  0.9982 -0.3674 -0.2856
    2SAPS  H12A  139   6.164   3.621  10.968 -0.8328 -1.2466 -0.7193
    2SAPS   C13  140   6.231   3.576  11.175  0.2000  0.3393  0.2803
    2SAPS  O13A  141   6.300   3.645  11.258  0.1550 -0.1310  0.3975
    2SAPS  O13B  142   6.248   3.451  11.174  0.3403  0.7766  0.2701
    2SAPS   C11  143   5.997   3.558  11.081 -0.2067  0.7215 -0.8743
    2SAPS  H11A  144   5.957   3.575  11.184  0.2043  3.7091 -1.1826
    2SAPS  H11B  145   6.010   3.447  11.078  3.3341  0.9545  2.2413
    2SAPS     P  146   5.914   3.554  10.828  0.0271  0.0076 -0.0022
    2SAPS   O13  147   5.782   3.506  10.783  0.0776  0.0105  0.2571
    2SAPS   O14  148   5.973   3.668  10.754 -0.6568 -0.4132  0.7965
    2SAPS   O12  149   5.904   3.605  10.978  0.7456 -0.4581  0.2286
    2SAPS   O11  150   6.025   3.443  10.829  0.0685 -0.2986 -0.1917
    2SAPS    C1  151   5.985   3.305  10.844  0.5851  0.2031  0.1223
    2SAPS    HA  152   6.033   3.262  10.935  2.1649 -0.3576 -0.9510
    2SAPS    HB  153   5.877   3.283  10.857  1.0545 -2.0507  0.5596
    2SAPS    C2  154   6.012   3.212  10.723 -0.5083  0.3887 -0.2355
    2SAPS    HS  155   6.113   3.167  10.733 -0.4004  0.7955  0.5846
    2SAPS   O21  156   5.984   3.293  10.602  0.2130 -0.3328 -0.1673
    2SAPS   C21  157   6.088   3.363  10.567 -0.1582 -1.5582 -0.1543
    2SAPS   O22  158   6.202   3.357  10.606 -0.5571 -0.0867  0.0360
    2SAPS   C22  159   6.064   3.464  10.448 -0.4603 -0.0395 -0.4184
    2SAPS   H2R  160   5.965   3.501  10.482 -2.0828 -4.6178  0.2480
    2SAPS   H2S  161   6.143   3.541  10.458 -1.2262  0.6330  0.5178
    2SAPS    C3  162   5.913   3.084  10.715 -0.6370 -0.6917 -0.1815
    2SAPS    HX  163   5.812   3.130  10.705  0.9482  2.6084 -1.8630
    2SAPS    HY  164   5.900   3.047  10.819 -0.0865  4.2520  1.7787
    2SAPS   O31  165   5.954   2.986  10.612 -0.7171  0.1749  0.6934
    2SAPS   C31  166   5.912   3.010  10.488  0.3882  0.2882 -0.1940
    2SAPS   O32  167   5.829   3.091  10.456  0.0396  0.1172 -0.1777
    2SAPS   C32  168   5.992   2.922  10.391  0.1575  0.3637  0.2304
    2SAPS   H2X  169   5.923   2.872  10.319  0.4629 -1.3405  1.1054
    2SAPS   H2Y  170   6.047   2.843  10.446 -2.1801 -0.3380  1.6298
    2SAPS   C23  171   6.051   3.403  10.305 -0.0468 -0.5514 -0.0961
    2SAPS   H3R  172   5.968   3.331  10.317 -0.2820 -0.3185 -0.3195
    2SAPS   H3S  173   6.140   3.346  10.270  0.3412  0.4012 -0.6901
    2SAPS   C24  174   6.006   3.497  10.194 -0.4060  0.6511  0.3580
    2SAPS   H4R  175   5.924   3.563  10.230  0.0858  1.1798  0.5247
    2SAPS   H4S  176   5.967   3.427  10.118  0.1997  0.0988  0.5532
    2SAPS   C25  177   6.129   3.571  10.136  0.1948 -0.0092  0.2656
    2SAPS   H5R  178   6.172   3.647  10.203  0.3964  0.1118 -0.0007
    2SAPS   C26  179   6.193   3.546  10.020 -0.1457  0.5651 -0.2314
    2SAPS   H6R  180   6.281   3.602   9.988 -0.3737  0.1163 -1.6731
    2SAPS   C27  181   6.161   3.441   9.910 -0.4940 -0.1244  0.1526
    2SAPS   H7R  182   6.152   3.345   9.964  0.1262  0.2351  0.9097
    2SAPS   H7S  183   6.253   3.437   9.848  0.0855 -2.3384  1.0978
    2SAPS   C28  184   6.043   3.471   9.817  0.0935  0.1094 -0.4802
    2SAPS   H8R  185   5.961   3.502   9.882 -0.2178  1.5063 -1.5258
    2SAPS   C29  186   6.021   3.455   9.685  0.5519 -0.1418  0.2051
    2SAPS   H9R  187   5.923   3.474   9.640  0.9255 -1.5499 -1.2556
    2SAPS  C210  188   6.119   3.406   9.589 -0.0727 -0.4281  1.1222
    2SAPS  H10R  189   6.080   3.311   9.547 -0.5202  0.1175  0.2857
    2SAPS  H10S  190   6.214   3.373   9.635  1.3531 -2.2036 -2.8635
    2SAPS  C211  191   6.162   3.498   9.481  0.3394  0.1606  0.3503
    2SAPS  H11R  192   6.238   3.573   9.506  0.1883  1.2413 -2.2266
    2SAPS  C212  193   6.141   3.470   9.347 -0.3109 -0.1803 -0.0299
    2SAPS  H12R  194   6.172   3.538   9.267 -1.1303 -1.9020 -1.8712
    2SAPS  C213  195   6.059   3.350   9.299 -0.3397 -0.0413  0.5428
    2SAPS  H13R  196   5.984   3.391   9.228  1.3036  0.9491 -0.6647
    2SAPS  H13S  197   6.006   3.290   9.376 -0.9504  1.1342  1.0382
    2SAPS  C214  198   6.151   3.262   9.219 -0.2820  0.0019 -0.1697
    2SAPS  H14R  199   6.248   3.242   9.268  0.0316  1.0823 -0.3438
    2SAPS  C215  200   6.135   3.203   9.098 -0.0850  0.1518 -0.1216
    2SAPS  H15R  201   6.223   3.156   9.051  0.6950  1.8115 -0.3534
    2SAPS  C216  202   6.013   3.209   9.008  0.1697 -0.1404 -0.6978
    2SAPS  H16R  203   6.023   3.294   8.938 -1.3451  1.1855  0.6640
    2SAPS  H16S  204   5.933   3.234   9.082  1.8077  0.2962  0.9537
    2SAPS  C217  205   5.980   3.074   8.937  0.4986  0.4343  0.4225
    2SAPS  H17R  206   5.989   2.988   9.007  1.3297 -0.0638 -0.2772
    2SAPS  H17S  207   6.056   3.057   8.857 -1.3223 -1.2555 -0.9915
    2SAPS  C218  208   5.833   3.066   8.877 -0.3728 -0.0173  0.1059
    2SAPS  H18R  209   5.756   3.043   8.954 -1.0971 -0.5171 -0.7591
    2SAPS  H18S  210   5.846   2.979   8.808 -0.1138  0.9343 -1.0643
    2SAPS  C219  211   5.806   3.185   8.800  0.0372 -0.2176 -0.2232
    2SAPS  H19R  212   5.903   3.206   8.749  0.5312  0.4389  0.9630
    2SAPS  H19S  213   5.785   3.275   8.862  1.5234  0.0503 -0.1005
    2SAPS  C220  214   5.694   3.155   8.699  0.6848  0.6436  0.6568
    2SAPS  H20R  215   5.707   3.224   8.613  0.3874  0.7278  0.6782
    2SAPS  H20S  216   5.594   3.168   8.746  0.2127 -0.2544 -0.0696
    2SAPS  H20T  217   5.705   3.052   8.660 -1.0364  0.0931  1.5699
    2SAPS   C33  218   6.087   3.006  10.297 -0.6591 -0.7837 -0.0187
    2SAPS   H3X  219   6.147   3.068  10.366 -0.0332 -0.9082 -0.4467
    2SAPS   H3Y  220   6.021   3.083  10.251 -1.3151 -0.5738  1.2474
    2SAPS   C34  221   6.170   2.924  10.205  0.4160 -0.1917 -0.4773
    2SAPS   H4X  222   6.096   2.869  10.143  1.6337 -1.1334 -1.1166
    2SAPS   H4Y  223   6.239   2.858  10.261 -1.2105  0.5758  2.5283
    2SAPS   C35  224   6.251   3.014  10.115 -0.1705 -0.3431  0.4488
    2SAPS   H5X  225   6.309   3.086  10.177  1.6569 -2.3048  1.0596
    2SAPS   H5Y  226   6.185   3.076  10.051  0.0870 -0.3435  0.1805
    2SAPS   C36  227   6.354   2.942  10.017 -0.9511  0.2754 -0.0107
    2SAPS   H6X  228   6.419   2.882  10.084 -2.0129  1.0544  1.7489
    2SAPS   H6Y  229   6.416   3.018   9.963 -0.9307  0.1938 -0.1020
    2SAPS   C37  230   6.291   2.847   9.915 -0.2275  0.3381 -0.5358
    2SAPS   H7X  231   6.227   2.768   9.960  2.1087 -1.1346  0.3092
    2SAPS   H7Y  232   6.378   2.801   9.863  0.4922  1.0112  0.0724
    2SAPS   C38  233   6.222   2.924   9.801  0.2150 -0.1573  0.0292
    2SAPS   H8X  234   6.124   2.962   9.835  0.4405  1.8320 -1.4504
    2SAPS   H8Y  235   6.204   2.851   9.719  0.5464  0.8742 -0.9777
    2SAPS   C39  236   6.303   3.029   9.731  0.5949 -0.2898 -0.0160
    2SAPS   H9X  237   6.407   2.996   9.713  0.2293 -0.8534 -1.2095
    2SAPS   H9Y  238   6.306   3.121   9.793  1.9205 -0.4943  0.2311
    2SAPS  C310  239   6.241   3.080   9.599 -0.4260 -0.0856  0.1092
    2SAPS  H10X  240   6.287   3.176   9.569 -0.8479  0.3599  0.8802
    2SAPS  H10Y  241   6.135   3.086   9.631 -0.3194 -1.6720  0.8269
    2SAPS  C311  242   6.264   2.990   9.472 -0.3140 -0.3038  0.2530
    2SAPS  H11X  243   6.198   3.036   9.396 -0.6541  2.5197  2.1681
    2SAPS  H11Y  244   6.248   2.880   9.482 -0.3846 -0.3154 -0.0037
    2SAPS  C312  245   6.413   3.002   9.433  0.2100  0.4852  0.5508
    2SAPS  H12X  246   6.477   2.980   9.521  1.3992 -1.5078 -0.7971
    2SAPS  H12Y  247   6.440   3.107   9.411  2.1383  0.1063  1.0470
    2SAPS  C313  248   6.450   2.916   9.311  0.2180  0.1910  0.3920
    2SAPS  H13X  249   6.409   2.815   9.331 -2.9771  1.3362 -0.1860
    2SAPS  H13Y  250   6.561   2.902   9.312  0.5083  2.3937  0.2862
    2SAPS  C314  251   6.382   2.948   9.179 -0.7362 -0.0205  0.1056
    2SAPS  H14X  252   6.403   3.054   9.151  0.4296  0.2877  2.0842
    2SAPS  H14Y  253   6.272   2.944   9.188 -0.8049  1.9444  0.4753
    2SAPS  C315  254   6.439   2.860   9.069  0.2784  0.2196 -0.3946
    2SAPS  H15X  255   6.418   2.758   9.107  1.1867  0.9676  2.1999
    2SAPS  H15Y  256   6.550   2.870   9.071  0.3046 -0.1938  0.2618
    2SAPS  C316  257   6.372   2.885   8.933 -0.0697  0.0193  0.2193
    2SAPS  H16X  258   6.412   2.974   8.881 -0.9502  0.6067  0.5433
    2SAPS  H16Y  259   6.264   2.905   8.943 -0.0899  0.1618 -0.2598
    2SAPS  C317  260   6.369   2.769   8.829 -0.7352  0.7598 -0.1477
    2SAPS  H17X  261   6.294   2.700   8.873  0.5913 -0.8715 -0.3652
    2SAPS  H17Y  262   6.467   2.717   8.842 -0.9990  0.6328  1.3799
    2SAPS  C318  263   6.337   2.812   8.689 -1.4696  0.4818 -0.3596
    2SAPS  H18X  264   6.321   2.732   8.613  0.8259  0.0334 -0.4126
    2SAPS  H18Y  265   6.414   2.880   8.649  1.2311 -2.3027 -0.0788
    2SAPS  H18Z  266   6.243   2.871   8.681 -2.1786 -0.3416  1.4419
    3SAPS     N  267   6.769   5.931  10.966 -0.4988 -0.6679  0.2890
    3SAPS   HN1  268   6.779   5.981  10.876 -0.3994  0.6435  1.0196
    3SAPS   HN2  269   6.715   5.998  11.023 -0.9475 -2.2413  1.7720
    3SAPS   HN3  270   6.861   5.905  11.008  0.1435  0.0737 -0.6324
    3SAPS   C12  271   6.678   5.815  10.967  0.4752 -0.5315 -0.3110
    3SAPS  H12A  272   6.735   5.736  11.013 -2.5034 -1.5012  1.8695
    3SAPS   C13  273   6.561   5.854  11.061 -0.0737 -0.1129  0.0653
    3SAPS  O13A  274   6.543   5.973  11.094  0.1681  0.6004 -0.8541
    3SAPS  O13B  275   6.466   5.769  11.084 -0.3972 -0.3579  0.2530
    3SAPS   C11  276   6.624   5.787  10.820 -0.1589 -0.9992  1.4765
    3SAPS  H11A  277   6.566   5.873  10.781  1.9515  0.9927  2.6673
    3SAPS  H11B  278   6.553   5.701  10.817 -0.7747 -0.4576 -0.6952
    3SAPS     P  279   6.795   5.620  10.710  0.2513 -0.0475 -0.1405
    3SAPS   O13  280   6.899   5.654  10.609  0.5702 -0.4446  0.2393
    3SAPS   O14  281   6.841   5.565  10.838 -0.3360 -0.1285 -0.1093
    3SAPS   O12  282   6.731   5.759  10.729 -0.0627 -0.1618 -0.6571
    3SAPS   O11  283   6.674   5.539  10.651  0.1194 -0.1629  0.1016
    3SAPS    C1  284   6.671   5.513  10.511 -0.7389 -0.8172 -0.5061
    3SAPS    HA  285   6.707   5.597  10.447 -1.4333  0.6126  0.9330
    3SAPS    HB  286   6.744   5.432  10.491 -0.8646 -0.7825 -1.1357
    3SAPS    C2  287   6.533   5.465  10.472  0.6979  0.1906 -0.4842
    3SAPS    HS  288   6.528   5.360  10.508  0.8435  0.9413  1.8631
    3SAPS   O21  289   6.496   5.483  10.338 -0.7816  0.5239  0.0047
    3SAPS   C21  290   6.554   5.403  10.244  0.6186 -0.3630  0.0486
    3SAPS   O22  291   6.618   5.305  10.267  0.3582 -0.4255  0.0601
    3SAPS   C22  292   6.518   5.453  10.104  0.0085  0.6935  0.0167
    3SAPS   H2R  293   6.446   5.382  10.057  2.1210  0.0278 -2.2690
    3SAPS   H2S  294   6.485   5.558  10.121  0.3158  0.5502  1.6403
    3SAPS    C3  295   6.422   5.546  10.548 -0.1325 -0.4238  0.0883
    3SAPS    HX  296   6.430   5.655  10.530 -0.2667 -0.5744 -0.8838
    3SAPS    HY  297   6.442   5.539  10.657 -0.7329 -1.3105  0.1500
    3SAPS   O31  298   6.282   5.504  10.520 -0.5367  0.4525  0.0088
    3SAPS   C31  299   6.263   5.385  10.579 -0.3964  0.0456  0.4094
    3SAPS   O32  300   6.339   5.327  10.650 -0.2807 -0.0619  0.2162
    3SAPS   C32  301   6.117   5.332  10.557  0.5371 -0.8948  0.0754
    3SAPS   H2X  302   6.075   5.378  10.465  1.1730 -0.1443  0.1478
    3SAPS   H2Y  303   6.053   5.382  10.632 -0.9610 -0.8852 -1.1967
    3SAPS   C23  304   6.637   5.465  10.004  0.6095  0.2555 -0.6885
    3SAPS   H3R  305   6.669   5.359   9.998  2.0854  0.6613 -0.1520
    3SAPS   H3S  306   6.721   5.528  10.040 -0.9716  2.1489 -0.2093
    3SAPS   C24  307   6.598   5.532   9.871  0.4598 -0.6961 -0.1473
    3SAPS   H4R  308   6.577   5.640   9.886 -0.8220 -0.7992 -1.0960
    3SAPS   H4S  309   6.499   5.488   9.846 -0.4708  1.4623 -0.3433
    3SAPS   C25  310   6.692   5.521   9.757 -0.3817  0.8032  0.4463
    3SAPS   H5R  311   6.788   5.569   9.780 -1.6045  3.3339  0.4357
    3SAPS   C26  312   6.684   5.451   9.637  0.3547 -0.2036 -0.4608
    3SAPS   H6R  313   6.760   5.475   9.561  0.9574 -2.7274 -0.7118
    3SAPS   C27  314   6.566   5.377   9.588 -0.1785  0.1657  0.3283
    3SAPS   H7R  315   6.487   5.365   9.665  0.5006  2.4993  1.4409
    3SAPS   H7S  316   6.598   5.277   9.553  0.2040  0.5432 -0.4121
    3SAPS   C28  317   6.495   5.453   9.479  0.0768  0.7390 -0.1267
    3SAPS   H8R  318   6.417   5.520   9.518 -2.0181 -1.3097 -0.6783
    3SAPS   C29  319   6.536   5.460   9.350  1.1738 -0.1933 -0.7230
    3SAPS   H9R  320   6.482   5.537   9.293  1.1863 -0.1067 -0.6201
    3SAPS  C210  321   6.650   5.389   9.284  0.9013 -0.7138 -0.5515
    3SAPS  H10R  322   6.699   5.323   9.358 -1.9891 -2.3897 -0.0764
    3SAPS  H10S  323   6.735   5.457   9.260  1.3307 -0.6413  1.1044
    3SAPS  C211  324   6.603   5.305   9.169  0.0810  0.7679 -0.0179
    3SAPS  H11R  325   6.522   5.235   9.195 -0.3389  1.8743  1.6931
    3SAPS  C212  326   6.632   5.318   9.041  0.4014 -0.6132  0.4888
    3SAPS  H12R  327   6.602   5.238   8.971 -1.3674  1.9712 -1.7885
    3SAPS  C213  328   6.719   5.417   8.980 -0.3061 -0.3400  0.2899
    3SAPS  H13R  329   6.816   5.403   9.033  0.2883  0.6549 -0.5216
    3SAPS  H13S  330   6.684   5.520   9.003 -0.2428 -0.4987  1.0955
    3SAPS  C214  331   6.748   5.414   8.830 -0.8069  0.1546  0.0051
    3SAPS  H14R  332   6.666   5.380   8.765 -0.7051  1.4485 -0.8211
    3SAPS  C215  333   6.864   5.449   8.764  0.3426 -0.1951 -0.2708
    3SAPS  H15R  334   6.863   5.446   8.654  1.6433  0.0076 -0.3071
    3SAPS  C216  335   6.997   5.502   8.822 -0.4724  0.2401 -0.6115
    3SAPS  H16R  336   7.077   5.426   8.810  1.6239  2.4410 -1.1875
    3SAPS  H16S  337   6.987   5.520   8.932  0.7792 -0.0305 -0.4394
    3SAPS  C217  338   7.036   5.630   8.751  0.6442 -0.4008  0.0018
    3SAPS  H17R  339   7.106   5.693   8.810  0.3119 -2.1759  2.3502
    3SAPS  H17S  340   6.944   5.691   8.741  2.1063  2.3414  2.4828
    3SAPS  C218  341   7.106   5.603   8.620  0.2461  0.1346  0.3260
    3SAPS  H18R  342   7.045   5.569   8.534  0.7133  0.9308 -0.3338
    3SAPS  H18S  343   7.166   5.511   8.639  1.1870  0.8421  0.8173
    3SAPS  C219  344   7.202   5.716   8.571  0.1475 -0.6505 -0.3622
    3SAPS  H19R  345   7.278   5.733   8.650 -0.7365  0.9456  0.1676
    3SAPS  H19S  346   7.143   5.810   8.566 -0.4649 -1.1024 -1.9060
    3SAPS  C220  347   7.255   5.693   8.429 -0.6121 -0.0655 -0.9046
    3SAPS  H20R  348   7.320   5.776   8.393 -2.2877  0.7791 -2.0971
    3SAPS  H20S  349   7.174   5.677   8.355 -1.8165 -1.9336  0.7812
    3SAPS  H20T  350   7.328   5.609   8.428  2.0174  2.1188  0.2009
    3SAPS   C33  351   6.110   5.181  10.558 -0.2085 -0.0185 -0.2318
    3SAPS   H3X  352   6.007   5.144  10.543 -0.3249 -0.7613  2.1925
    3SAPS   H3Y  353   6.136   5.144  10.660  2.2340 -0.0619 -0.8311
    3SAPS   C34  354   6.203   5.124  10.457 -0.4556  0.2658  0.0563
    3SAPS   H4X  355   6.195   5.013  10.454  0.2749  0.1450  1.9506
    3SAPS   H4Y  356   6.304   5.146  10.496  0.1058  1.2039 -1.8580
    3SAPS   C35  357   6.187   5.168  10.310 -0.3311  0.2897  0.4804
    3SAPS   H5X  358   6.288   5.206  10.286 -0.6139  0.0061 -1.2334
    3SAPS   H5Y  359   6.111   5.247  10.292 -0.9897  0.2281  2.7189
    3SAPS   C36  360   6.168   5.045  10.225  0.1037 -0.2331 -0.7414
    3SAPS   H6X  361   6.108   4.965  10.273  0.6366 -0.2204 -0.0455
    3SAPS   H6Y  362   6.262   4.998  10.189 -0.4504 -2.1730  0.2697
    3SAPS   C37  363   6.096   5.085  10.097  0.5596 -0.1316  0.1318
    3SAPS   H7X  364   6.153   5.174  10.065  2.3574 -1.0048  0.8421
    3SAPS   H7Y  365   5.993   5.117  10.124  1.4126  1.3313  1.6618
    3SAPS   C38  366   6.104   4.976   9.982  0.2360  0.2947  0.0526
    3SAPS   H8X  367   6.026   4.902  10.008  0.7383 -0.5360 -0.7735
    3SAPS   H8Y  368   6.199   4.919   9.971  0.8182  1.1979  0.3226
    3SAPS   C39  369   6.056   5.041   9.846  0.3733  0.4979  0.4625
    3SAPS   H9X  370   5.974   5.107   9.882 -1.5084 -2.5968  2.1168
    3SAPS   H9Y  371   5.992   4.968   9.791 -0.2706  0.7720  0.8470
    3SAPS  C310  372   6.153   5.113   9.768  0.0369 -0.4552 -0.0699
    3SAPS  H10X  373   6.246   5.056   9.746  1.3915  1.7084 -0.2014
    3SAPS  H10Y  374   6.183   5.208   9.817 -0.0235 -1.4077  1.8304
    3SAPS  C311  375   6.114   5.138   9.626  0.1194  0.0806  0.0218
    3SAPS  H11X  376   6.023   5.202   9.624 -0.1872 -0.0652  4.2097
    3SAPS  H11Y  377   6.091   5.039   9.580  1.3502 -2.0595  3.7832
    3SAPS  C312  378   6.221   5.208   9.542  0.6391  0.3044 -0.7456
    3SAPS  H12X  379   6.312   5.145   9.544  1.0354  0.7230 -3.3125
    3SAPS  H12Y  380   6.253   5.299   9.596  0.7215  1.6537 -2.9973
    3SAPS  C313  381   6.183   5.250   9.402  0.4173 -0.5443 -0.8045
    3SAPS  H13X  382   6.262   5.323   9.373 -0.3376  1.0644  1.0209
    3SAPS  H13Y  383   6.091   5.312   9.412 -0.7693 -2.2725 -0.8364
    3SAPS  C314  384   6.181   5.136   9.303 -0.5785 -0.2085 -0.0483
    3SAPS  H14X  385   6.097   5.067   9.327 -0.1614  0.0139  2.2140
    3SAPS  H14Y  386   6.269   5.074   9.332 -0.5130  1.5574  3.8674
    3SAPS  C315  387   6.179   5.181   9.162 -0.1169 -0.3846 -0.0706
    3SAPS  H15X  388   6.273   5.239   9.152 -0.1942 -0.5022 -1.5862
    3SAPS  H15Y  389   6.085   5.234   9.133  1.0043  1.7842  0.1865
    3SAPS  C316  390   6.198   5.067   9.066 -0.4287  0.2106 -0.3865
    3SAPS  H16X  391   6.128   4.984   9.088  0.0186 -0.2930 -0.8648
    3SAPS  H16Y  392   6.303   5.032   9.070 -0.2394  0.7000 -0.8944
    3SAPS  C317  393   6.152   5.106   8.923  0.4091  0.2228  0.2375
    3SAPS  H17X  394   6.203   5.203   8.903 -1.7583  1.5573  1.0165
    3SAPS  H17Y  395   6.041   5.108   8.928  0.3543 -0.6054 -0.5279
    3SAPS  C318  396   6.196   5.001   8.815 -0.4734  0.8932  0.4797
    3SAPS  H18X  397   6.167   5.032   8.712 -0.3801  1.3798  0.5954
    3SAPS  H18Y  398   6.144   4.904   8.828  0.6156  0.1631 -0.5006
    3SAPS  H18Z  399   6.305   4.981   8.824 -0.7777  0.0547  2.4924
    4SAPS     N  400   2.841   5.898  10.860 -0.1764  0.8722  0.0216
    4SAPS   HN1  401   2.877   5.813  10.811  1.1732  1.3964  0.0702
    4SAPS   HN2  402   2.865   5.978  10.798  3.4400  0.3552  0.6553
    4SAPS   HN3  403   2.900   5.914  10.944  0.7033 -1.2276 -0.1627
    4SAPS   C12  404   2.698   5.909  10.886 -0.4010 -0.2169 -0.2219
    4SAPS  H12A  405   2.693   5.862  10.983  3.1294  2.0554  1.1556
    4SAPS   C13  406   2.652   6.057  10.915 -1.2060 -0.1005  0.9772
    4SAPS  O13A  407   2.737   6.141  10.933  0.1751 -0.3590  0.3640
    4SAPS  O13B  408   2.532   6.090  10.921 -0.2021  0.3749  0.4398
    4SAPS   C11  409   2.604   5.856  10.779  0.2759  0.3209  0.8029
    4SAPS  H11A  410   2.618   5.916  10.686  0.2778  1.2335  1.3865
    4SAPS  H11B  411   2.501   5.870  10.817 -0.4105 -2.3532  0.0363
    4SAPS     P  412   2.531   5.625  10.685  0.0707  0.0397  0.3580
    4SAPS   O13  413   2.597   5.511  10.619 -1.4840 -0.0709  0.0225
    4SAPS   O14  414   2.425   5.587  10.780 -0.0475 -0.3893  0.2789
    4SAPS   O12  415   2.635   5.717  10.755  0.0624 -0.3278  0.3609
    4SAPS   O11  416   2.470   5.720  10.571  0.0111  0.2702 -0.1828
    4SAPS    C1  417   2.355   5.679  10.498  0.0979 -0.3029 -0.1270
    4SAPS    HA  418   2.384   5.633  10.401 -0.8549  1.4150 -1.2608
    4SAPS    HB  419   2.291   5.612  10.559 -0.7163  1.8441  1.4479
    4SAPS    C2  420   2.265   5.796  10.475 -0.0502  0.1116  0.1492
    4SAPS    HS  421   2.166   5.768  10.432  1.0260 -0.5539 -1.9483
    4SAPS   O21  422   2.338   5.890  10.390 -0.1625  0.3223 -0.1749
    4SAPS   C21  423   2.311   5.868  10.263 -0.4651 -0.2179  0.9007
    4SAPS   O22  424   2.238   5.780  10.220  0.0298 -0.0598  0.4849
    4SAPS   C22  425   2.373   5.979  10.175  0.4086  0.1995 -0.1419
    4SAPS   H2R  426   2.313   6.069  10.200 -0.7463 -1.0219  1.5583
    4SAPS   H2S  427   2.478   5.986  10.210 -0.2494  1.1156  1.7046
    4SAPS    C3  428   2.218   5.871  10.607  0.5013  0.6166  0.1823
    4SAPS    HX  429   2.304   5.914  10.663  1.1152  0.4368 -0.6256
    4SAPS    HY  430   2.177   5.787  10.667 -0.8614  1.1706  0.0576
    4SAPS   O31  431   2.116   5.966  10.579 -0.8853 -0.3619  0.1371
    4SAPS   C31  432   2.150   6.088  10.540  0.3927 -0.0967  0.6991
    4SAPS   O32  433   2.257   6.144  10.571  0.0892  0.1059 -0.0656
    4SAPS   C32  434   2.025   6.158  10.473  0.1798  0.1052 -0.3129
    4SAPS   H2X  435   2.030   6.269  10.482  0.2807  0.2845 -2.3864
    4SAPS   H2Y  436   1.928   6.127  10.517  0.3238  1.4470  1.0086
    4SAPS   C23  437   2.364   5.964  10.021  0.3217 -0.1295 -0.3597
    4SAPS   H3R  438   2.385   6.057   9.965  0.3031  0.6434  0.9080
    4SAPS   H3S  439   2.258   5.941   9.998 -0.2991  1.7748  0.5108
    4SAPS   C24  440   2.452   5.847   9.960  0.3247  0.1023 -0.1355
    4SAPS   H4R  441   2.414   5.819   9.859 -0.8468 -1.8343  0.8195
    4SAPS   H4S  442   2.434   5.755  10.018 -0.9475  1.3644  1.5064
    4SAPS   C25  443   2.598   5.874   9.959 -0.8031  0.2982  0.2023
    4SAPS   H5R  444   2.646   5.872  10.058  0.1094  2.2867 -0.1789
    4SAPS   C26  445   2.674   5.880   9.844  0.1826  0.2925  0.5313
    4SAPS   H6R  446   2.783   5.894   9.850  0.0403  1.4204  0.6138
    4SAPS   C27  447   2.632   5.875   9.706  0.6691  0.4001  0.1321
    4SAPS   H7R  448   2.530   5.831   9.694  0.4907  0.4406  1.4575
    4SAPS   H7S  449   2.701   5.798   9.666  1.3683  0.2308  1.6608
    4SAPS   C28  450   2.637   5.998   9.621  0.2006 -0.5069 -0.4946
    4SAPS   H8R  451   2.735   6.042   9.597  0.0142 -0.9640 -2.1694
    4SAPS   C29  452   2.532   6.058   9.559  0.0161 -0.0600  0.6920
    4SAPS   H9R  453   2.561   6.133   9.484 -1.4547  0.5075  0.6825
    4SAPS  C210  454   2.385   6.016   9.558  0.4653  0.0241  0.5610
    4SAPS  H10R  455   2.353   5.974   9.656  0.1553  1.2097  0.9675
    4SAPS  H10S  456   2.363   5.936   9.484 -1.0012  1.3569 -0.4818
    4SAPS  C211  457   2.315   6.156   9.540 -0.0302  0.7411 -0.3827
    4SAPS  H11R  458   2.352   6.229   9.613 -0.2646  0.1737  0.3085
    4SAPS  C212  459   2.229   6.199   9.446  0.6327  0.4196 -0.3242
    4SAPS  H12R  460   2.183   6.299   9.443 -2.4556 -0.9082 -0.0226
    4SAPS  C213  461   2.179   6.113   9.336 -0.3782  0.3708 -0.7084
    4SAPS  H13R  462   2.092   6.062   9.382  0.4025  1.3021  1.8575
    4SAPS  H13S  463   2.254   6.041   9.297 -0.4242  1.0371 -2.0576
    4SAPS  C214  464   2.112   6.181   9.221 -0.1532  0.4725 -0.5593
    4SAPS  H14R  465   2.113   6.291   9.218  1.0591  0.4233 -2.0662
    4SAPS  C215  466   2.067   6.116   9.115 -0.5903  0.8437 -0.0467
    4SAPS  H15R  467   2.014   6.163   9.031 -1.7180 -2.8969 -1.5232
    4SAPS  C216  468   2.077   5.965   9.099  0.8021 -1.0235 -0.1427
    4SAPS  H16R  469   2.066   5.912   9.196  2.4638 -3.4935 -1.2592
    4SAPS  H16S  470   2.181   5.941   9.067  1.4061  0.4261  0.6565
    4SAPS  C217  471   1.980   5.909   8.988 -0.6479 -0.1126 -0.1258
    4SAPS  H17R  472   2.024   5.811   8.960 -0.6647  0.3191 -1.6708
    4SAPS  H17S  473   1.980   5.970   8.896 -0.9968  0.5658  0.3222
    4SAPS  C218  474   1.842   5.871   9.037 -0.0226  0.0192 -0.3109
    4SAPS  H18R  475   1.813   5.964   9.091 -2.6985 -1.1917  0.3965
    4SAPS  H18S  476   1.854   5.782   9.102  3.0309  1.0971  0.6840
    4SAPS  C219  477   1.740   5.838   8.921 -0.7741  0.2732 -0.4031
    4SAPS  H19R  478   1.642   5.811   8.965 -1.6603 -1.5835 -3.3317
    4SAPS  H19S  479   1.779   5.751   8.864  2.0500  1.8607 -0.9708
    4SAPS  C220  480   1.711   5.956   8.826  0.1166  0.8855 -0.3752
    4SAPS  H20R  481   1.653   5.915   8.740  0.5378 -2.0136  0.6764
    4SAPS  H20S  482   1.800   6.011   8.789  0.0160  0.8197 -0.7245
    4SAPS  H20T  483   1.653   6.037   8.876 -0.3435  0.1119  0.3496
    4SAPS   C33  484   2.030   6.128  10.325  0.1450  0.5945  0.1185
    4SAPS   H3X  485   2.029   6.017  10.316 -1.0669  0.6166 -0.0926
    4SAPS   H3Y  486   2.121   6.167  10.275  1.1955 -0.1779  1.3828
    4SAPS   C34  487   1.909   6.173  10.245 -0.2135 -0.3206 -0.2911
    4SAPS   H4X  488   1.891   6.282  10.251 -0.3123 -0.3250 -0.4839
    4SAPS   H4Y  489   1.823   6.122  10.294 -0.9107  1.0836 -0.0324
    4SAPS   C35  490   1.908   6.129  10.104 -0.5289  0.0639 -0.0053
    4SAPS   H5X  491   1.948   6.026  10.094  0.3171  0.3315  0.5923
    4SAPS   H5Y  492   1.964   6.201  10.039 -1.2847 -1.0858 -1.9907
    4SAPS   C36  493   1.757   6.126  10.055  0.2168 -0.3424  0.5712
    4SAPS   H6X  494   1.711   6.226  10.070 -0.7283 -0.6560 -0.2524
    4SAPS   H6Y  495   1.701   6.061  10.126 -2.1772 -1.0449 -1.8719
    4SAPS   C37  496   1.735   6.059   9.921 -0.0817  0.8644  0.5727
    4SAPS   H7X  497   1.745   6.137   9.842  3.1419 -0.2324 -0.1656
    4SAPS   H7Y  498   1.626   6.035   9.926 -0.0292  0.3907 -0.3982
    4SAPS   C38  499   1.812   5.934   9.891 -0.5169  0.7862  0.2994
    4SAPS   H8X  500   1.802   5.867   9.978 -1.0653 -0.3730 -0.6321
    4SAPS   H8Y  501   1.922   5.950   9.877 -0.3128 -1.0989 -0.3301
    4SAPS   C39  502   1.767   5.857   9.766 -0.0608  0.3776  0.2916
    4SAPS   H9X  503   1.661   5.830   9.785 -1.2062  2.5541 -2.6544
    4SAPS   H9Y  504   1.842   5.775   9.759  0.7002  1.0424  0.5698
    4SAPS  C310  505   1.775   5.924   9.626 -0.5639  0.4203 -0.0014
    4SAPS  H10X  506   1.877   5.961   9.605 -1.6700  3.2113 -0.6714
    4SAPS  H10Y  507   1.714   6.017   9.634 -0.2470  0.6716 -0.4788
    4SAPS  C311  508   1.726   5.837   9.513 -0.4619  0.4316 -0.5592
    4SAPS  H11X  509   1.625   5.808   9.548 -0.0853 -2.7930 -1.9460
    4SAPS  H11Y  510   1.796   5.751   9.514 -0.2712  0.4688 -3.8811
    4SAPS  C312  511   1.731   5.910   9.380 -0.0674 -1.1673 -0.0275
    4SAPS  H12X  512   1.728   5.833   9.300  0.1888  1.1378 -2.3021
    4SAPS  H12Y  513   1.828   5.962   9.364  0.3438 -1.4175  1.5334
    4SAPS  C313  514   1.608   6.004   9.370 -0.0527  0.1012  0.0602
    4SAPS  H13X  515   1.633   6.096   9.428 -1.9408  2.0619 -2.1564
    4SAPS  H13Y  516   1.514   5.960   9.409 -1.1679 -0.5046 -3.1626
    4SAPS  C314  517   1.585   6.042   9.221 -0.3922  0.4204 -0.0521
    4SAPS  H14X  518   1.582   5.948   9.162 -0.6627 -1.2780  2.5713
    4SAPS  H14Y  519   1.673   6.099   9.187 -0.1296 -0.3838 -0.7379
    4SAPS  C315  520   1.463   6.140   9.192  0.2400 -0.3180  0.2869
    4SAPS  H15X  521   1.471   6.240   9.239 -0.5994 -0.6201  1.0794
    4SAPS  H15Y  522   1.362   6.104   9.219 -0.7988  0.8168 -2.0079
    4SAPS  C316  523   1.458   6.173   9.034  0.7297 -0.1146 -0.5028
    4SAPS  H16X  524   1.459   6.068   8.998  1.5540 -0.0820 -0.5935
    4SAPS  H16Y  525   1.552   6.229   9.014  0.2619  0.3896 -1.3090
    4SAPS  C317  526   1.334   6.263   8.984  0.0756 -1.0703 -0.5684
    4SAPS  H17X  527   1.242   6.207   9.012 -1.1529  1.8014  1.2716
    4SAPS  H17Y  528   1.329   6.256   8.873 -1.7328 -2.0526 -0.4493
    4SAPS  C318  529   1.319   6.403   9.057 -0.1608  0.0149  0.4605
    4SAPS  H18X  530   1.291   6.392   9.164 -0.1508  2.1431  0.7072
    4SAPS  H18Y  531   1.236   6.459   9.008 -0.2366 -0.5671 -0.0882
    4SAPS  H18Z  532   1.409   6.466   9.069 -0.9543  1.5360 -1.4546
    5SAPS     N  533   5.206   4.463  10.869  0.3940  0.1682  0.3438
    5SAPS   HN1  534   5.149   4.456  10.955  0.2781 -0.4560  0.2149
    5SAPS   HN2  535   5.161   4.409  10.792 -1.2387 -0.3848  1.6651
    5SAPS   HN3  536   5.302   4.424  10.881 -0.6806 -2.0686  1.9659
    5SAPS   C12  537   5.206   4.613  10.842 -0.3324  0.3260  0.0162
    5SAPS  H12A  538   5.212   4.628  10.735 -0.8015 -1.0627 -0.2205
    5SAPS   C13  539   5.066   4.671  10.891 -0.2964 -0.3833 -0.3814
    5SAPS  O13A  540   4.994   4.604  10.969 -0.3542  0.6020 -0.2986
    5SAPS  O13B  541   5.045   4.788  10.857 -0.4215 -0.2505  0.0786
    5SAPS   C11  542   5.322   4.677  10.918 -0.1194  0.4106  0.4349
    5SAPS  H11A  543   5.316   4.643  11.024  2.4063 -1.4829  0.0075
    5SAPS  H11B  544   5.313   4.788  10.913  1.4215  0.4874 -0.9221
    5SAPS     P  545   5.580   4.705  10.927 -0.2504  0.0563 -0.0413
    5SAPS   O13  546   5.570   4.712  11.074  0.6525 -0.0347 -0.3177
    5SAPS   O14  547   5.698   4.633  10.879 -0.2207  0.1941 -0.0324
    5SAPS   O12  548   5.451   4.638  10.866 -0.6894  0.8618 -0.2064
    5SAPS   O11  549   5.565   4.845  10.867 -0.6151  0.2316 -0.0049
    5SAPS    C1  550   5.564   4.856  10.728 -0.3348  0.7802  0.1058
    5SAPS    HA  551   5.601   4.764  10.678 -1.8252 -0.6997  1.6808
    5SAPS    HB  552   5.462   4.871  10.688 -0.4701 -1.8668 -0.5992
    5SAPS    C2  553   5.647   4.981  10.677 -0.6282  1.3439  0.3528
    5SAPS    HS  554   5.678   5.036  10.768 -1.3951 -1.2159  2.2141
    5SAPS   O21  555   5.547   5.066  10.600  0.0321  1.0505  0.0114
    5SAPS   C21  556   5.596   5.187  10.562  0.4810 -0.1054 -0.1151
    5SAPS   O22  557   5.704   5.228  10.594  0.3016  0.3386 -0.6399
    5SAPS   C22  558   5.503   5.257  10.468  0.0990 -0.2170  0.3040
    5SAPS   H2R  559   5.443   5.175  10.423 -0.2085  1.4140 -2.3582
    5SAPS   H2S  560   5.430   5.319  10.524 -0.9969 -0.5188 -0.7797
    5SAPS    C3  561   5.774   4.927  10.614 -0.7083  0.5600  0.1203
    5SAPS    HX  562   5.832   4.859  10.679  0.0082  0.1881 -0.8987
    5SAPS    HY  563   5.837   5.018  10.608  0.3303 -0.1376  0.4286
    5SAPS   O31  564   5.752   4.867  10.487  0.4088  0.8020  0.0450
    5SAPS   C31  565   5.856   4.855  10.414  0.5751  0.3337  0.6906
    5SAPS   O32  566   5.972   4.871  10.448  0.7271 -0.1494 -0.0658
    5SAPS   C32  567   5.839   4.799  10.277  0.5478  0.6120 -0.2780
    5SAPS   H2X  568   5.926   4.736  10.248 -0.9894 -1.9417  0.4814
    5SAPS   H2Y  569   5.846   4.887  10.209  0.7861 -0.0225 -1.0897
    5SAPS   C23  570   5.580   5.350  10.375 -0.5379 -0.0599  0.2290
    5SAPS   H3R  571   5.637   5.430  10.428  1.0816 -0.0565 -1.4581
    5SAPS   H3S  572   5.500   5.407  10.324 -0.5546 -2.0087 -1.9585
    5SAPS   C24  573   5.643   5.296  10.251  0.0924  0.3793 -0.7550
    5SAPS   H4R  574   5.748   5.266  10.273 -0.3939 -1.5678 -0.9558
    5SAPS   H4S  575   5.648   5.383  10.182  4.2837 -0.0563 -1.1583
    5SAPS   C25  576   5.568   5.188  10.188  0.0160  0.3211 -0.2200
    5SAPS   H5R  577   5.518   5.114  10.252 -1.6705  1.1730 -0.5088
    5SAPS   C26  578   5.548   5.162  10.056 -0.3179  0.0967  0.6778
    5SAPS   H6R  579   5.484   5.076  10.031  1.5697 -0.8715 -1.0033
    5SAPS   C27  580   5.595   5.240   9.940  0.0120 -0.2192  0.7073
    5SAPS   H7R  581   5.705   5.238   9.924 -0.3030  0.5244 -1.9076
    5SAPS   H7S  582   5.556   5.343   9.955  0.6383  0.2548 -0.8117
    5SAPS   C28  583   5.545   5.174   9.814 -0.2031 -0.0588 -0.1438
    5SAPS   H8R  584   5.455   5.113   9.827 -0.0885 -0.0608  0.6689
    5SAPS   C29  585   5.591   5.175   9.687  0.2134 -0.2455  0.6966
    5SAPS   H9R  586   5.531   5.127   9.608 -0.9898  1.8028  0.3450
    5SAPS  C210  587   5.708   5.250   9.642 -0.5256 -0.8276  0.1842
    5SAPS  H10R  588   5.777   5.176   9.598 -0.1721 -0.7295  0.5733
    5SAPS  H10S  589   5.765   5.303   9.721 -0.7101 -2.6495  1.5511
    5SAPS  C211  590   5.663   5.357   9.550 -0.1735  0.1068  0.4215
    5SAPS  H11R  591   5.601   5.438   9.590 -0.0973  0.1264  0.5011
    5SAPS  C212  592   5.691   5.362   9.424  0.1304  0.7354  0.1125
    5SAPS  H12R  593   5.667   5.453   9.366  2.2061  1.5285  0.4524
    5SAPS  C213  594   5.768   5.262   9.342 -0.1221  0.3203  0.1161
    5SAPS  H13R  595   5.822   5.190   9.407  1.6370  3.8623  2.8240
    5SAPS  H13S  596   5.838   5.320   9.278  0.6277 -0.6277  0.0839
    5SAPS  C214  597   5.667   5.192   9.252 -0.0085 -0.5683  0.9374
    5SAPS  H14R  598   5.613   5.108   9.299 -0.8813 -0.5453  0.0031
    5SAPS  C215  599   5.650   5.212   9.116 -0.2317 -0.4527 -0.1883
    5SAPS  H15R  600   5.568   5.151   9.076 -0.9435 -0.4854  1.2866
    5SAPS  C216  601   5.721   5.310   9.015 -0.4340 -0.1291 -1.0332
    5SAPS  H16R  602   5.824   5.275   8.992  1.0144  0.6611  3.7461
    5SAPS  H16S  603   5.727   5.418   9.039  0.1808 -0.2147 -0.8055
    5SAPS  C217  604   5.637   5.314   8.884 -0.0361 -0.3974 -0.0589
    5SAPS  H17R  605   5.538   5.359   8.910 -0.2642 -1.6790  1.3587
    5SAPS  H17S  606   5.614   5.209   8.857 -2.1532  0.3723 -1.3562
    5SAPS  C218  607   5.706   5.384   8.766 -0.3561 -0.1476 -0.3619
    5SAPS  H18R  608   5.729   5.486   8.802  0.8334  0.1959 -2.0014
    5SAPS  H18S  609   5.802   5.333   8.740  0.2741  0.8195  0.0191
    5SAPS  C219  610   5.601   5.384   8.655 -0.0454 -0.4390  0.0114
    5SAPS  H19R  611   5.533   5.472   8.658  0.3449 -0.1605  1.0643
    5SAPS  H19S  612   5.536   5.295   8.668 -0.7466 -0.0934 -1.0603
    5SAPS  C220  613   5.666   5.384   8.514  0.5889  0.3989 -0.0315
    5SAPS  H20R  614   5.755   5.318   8.502  0.4465  0.1755  0.1485
    5SAPS  H20S  615   5.699   5.489   8.500 -2.9550  1.8404  1.7175
    5SAPS  H20T  616   5.580   5.371   8.445  0.4129  0.0266  0.2560
    5SAPS   C33  617   5.698   4.735  10.252 -0.3004  0.2380  0.3467
    5SAPS   H3X  618   5.618   4.807  10.279 -2.0781 -1.5576 -0.0032
    5SAPS   H3Y  619   5.694   4.657  10.332 -1.0390 -1.9261 -1.7356
    5SAPS   C34  620   5.669   4.685  10.110 -0.2732 -0.4156 -0.1464
    5SAPS   H4X  621   5.573   4.631  10.122  0.6509 -1.5104  2.5858
    5SAPS   H4Y  622   5.754   4.620  10.082 -0.4005 -0.4418 -0.4807
    5SAPS   C35  623   5.651   4.813  10.020 -0.3279 -0.6450 -0.3934
    5SAPS   H5X  624   5.748   4.867  10.019 -0.8512  0.2885 -1.1597
    5SAPS   H5Y  625   5.575   4.880  10.066  0.3563  1.1555 -1.8537
    5SAPS   C36  626   5.613   4.778   9.877  0.6861  0.4454  0.9493
    5SAPS   H6X  627   5.577   4.863   9.815 -1.3090 -0.7018  0.4912
    5SAPS   H6Y  628   5.533   4.702   9.862  2.1315 -1.4689  2.5527
    5SAPS   C37  629   5.727   4.714   9.805  0.0528 -0.4761 -0.1593
    5SAPS   H7X  630   5.751   4.612   9.841 -0.0504 -0.3792  0.1852
    5SAPS   H7Y  631   5.817   4.774   9.829  1.4357 -2.4428 -0.3774
    5SAPS   C38  632   5.721   4.692   9.654  0.4331 -0.2973 -0.5059
    5SAPS   H8X  633   5.626   4.644   9.623  0.3788  0.3510 -1.3523
    5SAPS   H8Y  634   5.806   4.629   9.621 -0.1448 -1.0279 -0.6138
    5SAPS   C39  635   5.723   4.830   9.580 -0.0142  0.4504 -0.6280
    5SAPS   H9X  636   5.801   4.891   9.628 -0.2317 -0.9868  1.6454
    5SAPS   H9Y  637   5.633   4.895   9.588  0.6949  1.1830  1.5472
    5SAPS  C310  638   5.749   4.816   9.428 -0.0063  1.2899 -0.1009
    5SAPS  H10X  639   5.850   4.770   9.424 -1.1192 -1.1931 -0.4848
    5SAPS  H10Y  640   5.765   4.918   9.386  1.2961  0.5274 -1.5161
    5SAPS  C311  641   5.649   4.742   9.350 -0.7771  0.2036 -0.9545
    5SAPS  H11X  642   5.681   4.636   9.358 -0.9760  0.2488  0.5436
    5SAPS  H11Y  643   5.661   4.769   9.242  1.1456  2.7811 -0.1350
    5SAPS  C312  644   5.500   4.764   9.394  0.1182  0.0379 -0.4926
    5SAPS  H12X  645   5.478   4.873   9.400 -0.3103 -0.0539 -0.4504
    5SAPS  H12Y  646   5.490   4.727   9.498  0.9353 -0.8453 -0.7197
    5SAPS  C313  647   5.396   4.696   9.293 -0.0888  0.0595  0.3025
    5SAPS  H13X  648   5.298   4.687   9.343 -0.2893  1.3267  0.1340
    5SAPS  H13Y  649   5.435   4.593   9.278  3.9253  1.2710  1.6806
    5SAPS  C314  650   5.389   4.787   9.169 -0.6069 -0.1177  0.4556
    5SAPS  H14X  651   5.491   4.785   9.126 -0.9627  2.5080 -0.6329
    5SAPS  H14Y  652   5.346   4.887   9.193  1.1062  0.7789 -0.1482
    5SAPS  C315  653   5.306   4.707   9.069  0.5107  0.9846  0.5248
    5SAPS  H15X  654   5.199   4.711   9.099 -0.2854  2.3743 -2.3563
    5SAPS  H15Y  655   5.336   4.601   9.078 -0.9492  0.6568  1.7063
    5SAPS  C316  656   5.326   4.767   8.927 -0.3138 -0.4119  0.1733
    5SAPS  H16X  657   5.434   4.755   8.903 -0.6200 -2.0708 -0.4676
    5SAPS  H16Y  658   5.305   4.876   8.929  1.8306  0.0700  4.7178
    5SAPS  C317  659   5.244   4.698   8.822  0.0890 -0.3067 -0.0081
    5SAPS  H17X  660   5.216   4.595   8.854  0.1581 -0.4165 -0.2995
    5SAPS  H17Y  661   5.302   4.686   8.728  0.3578 -1.5391  0.3039
    5SAPS  C318  662   5.116   4.773   8.800  0.4551  0.3130 -0.7279
    5SAPS  H18X  663   5.045   4.710   8.742 -1.5874  2.4310 -0.6155
    5SAPS  H18Y  664   5.134   4.862   8.735  2.1740  0.5502  0.0342
    5SAPS  H18Z  665   5.071   4.800   8.898 -0.0443 -0.5498 -0.7193
    6SAPS     N  666   4.767   4.743  10.918  0.6628 -0.9550 -0.0094
    6SAPS   HN1  667   4.749   4.837  10.878  1.5126 -0.6814  0.2498
    6SAPS   HN2  668   4.745   4.730  11.018 -1.0505 -1.9836 -0.4885
    6SAPS   HN3  669   4.869   4.725  10.909  1.4808  3.4120 -0.5237
    6SAPS   C12  670   4.670   4.655  10.834  0.5165  0.0877 -0.4654
    6SAPS  H12A  671   4.658   4.564  10.890  0.4688 -0.0083 -0.6345
    6SAPS   C13  672   4.527   4.720  10.834  0.5782  0.9017  0.2768
    6SAPS  O13A  673   4.494   4.813  10.906  0.4002  0.0223 -0.0425
    6SAPS  O13B  674   4.431   4.651  10.784  0.1482 -0.2104  0.4194
    6SAPS   C11  675   4.706   4.620  10.689  0.4579  0.6523 -1.0568
    6SAPS  H11A  676   4.698   4.709  10.624  2.0309  0.3422 -1.7005
    6SAPS  H11B  677   4.626   4.550  10.659  2.2874 -1.9401 -0.1332
    6SAPS     P  678   4.870   4.406  10.664 -0.3217 -0.2723 -0.1241
    6SAPS   O13  679   5.019   4.387  10.671 -0.2977 -0.4614  0.5429
    6SAPS   O14  680   4.789   4.331  10.759  0.1395 -0.0390 -0.0011
    6SAPS   O12  681   4.834   4.559  10.683 -0.3609  0.1264  0.2752
    6SAPS   O11  682   4.820   4.388  10.517 -0.3712  0.8762 -0.0078
    6SAPS    C1  683   4.883   4.450  10.402  0.8231 -0.3166  0.1662
    6SAPS    HA  684   4.807   4.497  10.337  1.2818 -0.6549 -0.6177
    6SAPS    HB  685   4.956   4.527  10.437  0.4869  0.2298 -0.3238
    6SAPS    C2  686   4.960   4.344  10.322  0.2993  0.2470 -0.0844
    6SAPS    HS  687   5.058   4.327  10.372  0.2337 -1.9603 -0.6622
    6SAPS   O21  688   4.974   4.390  10.185  0.2644  0.0632  0.8708
    6SAPS   C21  689   5.080   4.362  10.115 -0.1002 -0.4380  0.1595
    6SAPS   O22  690   5.175   4.298  10.163  0.3039  0.0566  0.3213
    6SAPS   C22  691   5.072   4.412   9.976  0.4717  0.2866 -0.0803
    6SAPS   H2R  692   5.026   4.329   9.918 -0.4559  0.4590  0.4043
    6SAPS   H2S  693   5.004   4.499   9.965  0.0095 -0.1885 -1.1129
    6SAPS    C3  694   4.883   4.208  10.312 -0.5707  0.3866 -0.2905
    6SAPS    HX  695   4.874   4.162  10.413 -0.3547 -2.9616 -1.7227
    6SAPS    HY  696   4.940   4.137  10.248  1.9368  0.0352  2.2052
    6SAPS   O31  697   4.752   4.222  10.257 -0.4765  0.4378 -0.0178
    6SAPS   C31  698   4.737   4.178  10.132  0.0767  0.3698  0.2152
    6SAPS   O32  699   4.823   4.159  10.051 -0.4842 -0.4202 -0.3336
    6SAPS   C32  700   4.586   4.148  10.116 -0.6860 -0.0396 -0.6365
    6SAPS   H2X  701   4.544   4.249  10.132  1.8202  1.2782 -1.9547
    6SAPS   H2Y  702   4.564   4.078  10.199  2.4938  0.1803  0.4771
    6SAPS   C23  703   5.205   4.459   9.926  0.2229  0.0712  0.3081
    6SAPS   H3R  704   5.294   4.400   9.957  0.9389 -0.0200 -1.8673
    6SAPS   H3S  705   5.227   4.556   9.976 -0.9217  1.3357 -1.5856
    6SAPS   C24  706   5.197   4.477   9.775  0.2171 -0.1256  0.1969
    6SAPS   H4R  707   5.133   4.564   9.749  0.0481 -0.4979 -0.6267
    6SAPS   H4S  708   5.141   4.387   9.741  2.2380 -0.8107 -1.3989
    6SAPS   C25  709   5.319   4.492   9.690  0.5872  0.7647 -0.2270
    6SAPS   H5R  710   5.366   4.591   9.700  1.2777  0.3468  0.7651
    6SAPS   C26  711   5.363   4.404   9.602  0.3486 -0.2730  0.8439
    6SAPS   H6R  712   5.459   4.418   9.550  0.0108  1.9360  0.7729
    6SAPS   C27  713   5.291   4.274   9.570 -0.6202  0.4805  0.4578
    6SAPS   H7R  714   5.185   4.302   9.548  0.1778  1.2333 -2.6879
    6SAPS   H7S  715   5.279   4.217   9.665 -0.5689 -0.4720 -0.1042
    6SAPS   C28  716   5.366   4.177   9.480 -0.3797  0.4648 -0.2327
    6SAPS   H8R  717   5.410   4.087   9.525  0.5025  0.0522 -1.8784
    6SAPS   C29  718   5.381   4.185   9.353 -0.1346 -0.5113 -0.2945
    6SAPS   H9R  719   5.442   4.119   9.289  1.5851  0.9379 -0.1789
    6SAPS  C210  720   5.332   4.302   9.270  0.0065  0.1924 -0.0725
    6SAPS  H10R  721   5.415   4.346   9.211 -1.3161 -2.6174 -4.2033
    6SAPS  H10S  722   5.282   4.385   9.325 -1.4049 -0.8953  0.2835
    6SAPS  C211  723   5.227   4.252   9.175  0.0361  0.2487 -0.2933
    6SAPS  H11R  724   5.135   4.212   9.221  1.5098 -1.8886  0.8929
    6SAPS  C212  725   5.253   4.227   9.039  0.0456 -0.1843  0.4075
    6SAPS  H12R  726   5.172   4.200   8.971 -0.9665  0.0852  1.4900
    6SAPS  C213  727   5.385   4.264   8.964  0.5750 -0.9215  0.9001
    6SAPS  H13R  728   5.426   4.353   9.017  0.3606 -0.0374 -0.3889
    6SAPS  H13S  729   5.366   4.309   8.864 -2.8257 -3.4665  0.3113
    6SAPS  C214  730   5.484   4.154   8.971  0.6695  0.0719 -0.4632
    6SAPS  H14R  731   5.507   4.123   9.074  0.7588 -2.4761 -1.2061
    6SAPS  C215  732   5.554   4.108   8.865 -0.7123  0.8252 -0.2057
    6SAPS  H15R  733   5.634   4.034   8.880 -3.8872 -2.2459  2.3888
    6SAPS  C216  734   5.523   4.151   8.724  0.0497  0.2035  0.1009
    6SAPS  H16R  735   5.588   4.236   8.695  1.9261 -0.9416  0.8732
    6SAPS  H16S  736   5.426   4.204   8.715  0.9854  2.1781  1.3334
    6SAPS  C217  737   5.541   4.043   8.608 -0.5595  0.7228 -0.4328
    6SAPS  H17R  738   5.543   4.106   8.516  1.3887 -1.0931 -1.6995
    6SAPS  H17S  739   5.463   3.964   8.613  1.0269 -0.7304  2.9009
    6SAPS  C218  740   5.675   3.971   8.631 -0.6044 -0.4171  0.4093
    6SAPS  H18R  741   5.659   3.890   8.706 -4.7692 -0.8106 -0.7741
    6SAPS  H18S  742   5.749   4.044   8.671 -0.0477 -0.9881  0.4342
    6SAPS  C219  743   5.734   3.901   8.519 -0.2782 -0.2142  0.0416
    6SAPS  H19R  744   5.765   3.972   8.438 -2.7365  0.6449 -0.1963
    6SAPS  H19S  745   5.649   3.843   8.479  0.2383  0.6172 -2.3699
    6SAPS  C220  746   5.847   3.808   8.550  0.2541 -0.6859  0.4798
    6SAPS  H20R  747   5.858   3.735   8.467 -1.4544 -1.7331  1.1326
    6SAPS  H20S  748   5.823   3.749   8.642  1.4608 -0.8909  0.6705
    6SAPS  H20T  749   5.944   3.858   8.572  0.3881 -1.6865  2.2814
    6SAPS   C33  750   4.585   4.092   9.973  0.1051  0.3683  0.2549
    6SAPS   H3X  751   4.647   4.000   9.962 -0.0891  0.2452  0.1866
    6SAPS   H3Y  752   4.633   4.170   9.912  2.1933  0.6401  2.1645
    6SAPS   C34  753   4.446   4.050   9.921  0.4215 -0.4004  0.2242
    6SAPS   H4X  754   4.354   4.113   9.929 -0.1957 -1.2846  0.2409
    6SAPS   H4Y  755   4.424   3.958   9.979  0.1773 -0.5068 -0.0332
    6SAPS   C35  756   4.454   4.026   9.767 -0.0796  0.1985  0.0098
    6SAPS   H5X  757   4.371   3.961   9.733  0.6656 -0.1579 -1.1741
    6SAPS   H5Y  758   4.549   3.970   9.751  0.2155  1.5775 -3.5529
    6SAPS   C36  759   4.467   4.150   9.680  0.4189 -0.3895 -0.4001
    6SAPS   H6X  760   4.558   4.205   9.713 -1.5206  1.3099  2.4016
    6SAPS   H6Y  761   4.384   4.219   9.706  0.4568 -0.6263  0.3631
    6SAPS   C37  762   4.469   4.129   9.529 -0.3878  0.1081 -0.3132
    6SAPS   H7X  763   4.396   4.046   9.519 -0.7052  0.3349  0.0596
    6SAPS   H7Y  764   4.573   4.099   9.504  0.9360  1.6653  2.9262
    6SAPS   C38  765   4.428   4.248   9.453  0.2927  0.5569  0.0511
    6SAPS   H8X  766   4.508   4.322   9.471  0.3583  0.5938 -0.3889
    6SAPS   H8Y  767   4.331   4.272   9.500 -0.9017 -2.1565 -0.9019
    6SAPS   C39  768   4.421   4.234   9.305  0.1192  0.5764 -0.6320
    6SAPS   H9X  769   4.525   4.210   9.272  0.7294 -0.8049  2.1440
    6SAPS   H9Y  770   4.408   4.339   9.274 -1.9588  0.7019  0.5746
    6SAPS  C310  771   4.327   4.126   9.259  0.4182 -0.2420  0.8967
    6SAPS  H10X  772   4.229   4.136   9.311  0.6868 -1.4615  1.6500
    6SAPS  H10Y  773   4.364   4.023   9.276 -0.0597 -0.7384 -1.0422
    6SAPS  C311  774   4.311   4.131   9.102 -0.0807  0.3455 -0.2727
    6SAPS  H11X  775   4.417   4.114   9.074  0.1172  2.2997 -0.8438
    6SAPS  H11Y  776   4.277   4.228   9.059  0.7605  0.6543 -0.2415
    6SAPS  C312  777   4.214   4.025   9.032 -0.5072  0.1394 -0.2762
    6SAPS  H12X  778   4.114   4.017   9.080 -0.5801  0.1273 -0.4278
    6SAPS  H12Y  779   4.261   3.926   9.050 -1.0253  0.0292  0.4937
    6SAPS  C313  780   4.182   4.046   8.885  0.1918  0.3030  0.6536
    6SAPS  H13X  781   4.272   4.061   8.821 -0.7016 -0.2125 -0.7540
    6SAPS  H13Y  782   4.117   4.136   8.874 -0.0743 -0.0411 -0.6613
    6SAPS  C314  783   4.122   3.913   8.827  0.6035  0.2089 -0.3013
    6SAPS  H14X  784   4.165   3.822   8.872  0.9136 -0.0980 -1.2153
    6SAPS  H14Y  785   4.159   3.913   8.722  1.2607  0.6328 -0.0748
    6SAPS  C315  786   3.968   3.911   8.818  0.1617 -0.4776 -0.3081
    6SAPS  H15X  787   3.931   3.986   8.744  0.6379 -0.7671 -0.8481
    6SAPS  H15Y  788   3.917   3.927   8.915 -1.7987  0.0142 -1.3902
    6SAPS  C316  789   3.911   3.778   8.752  0.2976 -0.5758 -0.6025
    6SAPS  H16X  790   3.805   3.804   8.729 -0.1454 -1.9010 -0.0981
    6SAPS  H16Y  791   3.919   3.695   8.824 -0.3527 -0.3721 -0.2881
    6SAPS  C317  792   3.975   3.749   8.615 -0.1530  0.0934 -0.1651
    6SAPS  H17X  793   4.078   3.712   8.634 -0.5718 -0.6899  0.5970
    6SAPS  H17Y  794   3.972   3.836   8.546  3.8214  1.2114  0.9701
    6SAPS  C318  795   3.910   3.627   8.554 -0.0379 -0.5247 -0.0227
    6SAPS  H18X  796   3.955   3.582   8.462  1.6084  1.5106 -0.2440
    6SAPS  H18Y  797   3.811   3.673   8.537  0.0784 -0.3662 -0.2699
    6SAPS  H18Z  798   3.898   3.547   8.631 -1.7437 -0.8861 -0.6286
    7SAPS     N  799   0.269   5.835  10.567 -0.5595 -0.4676 -0.5839
    7SAPS   HN1  800   0.256   5.903  10.490  1.1131  1.7450  0.9989
    7SAPS   HN2  801   0.355   5.786  10.535  0.1293  2.0480 -2.7425
    7SAPS   HN3  802   0.195   5.764  10.588 -0.3642 -0.3618  0.5333
    7SAPS   C12  803   0.311   5.915  10.678  0.3370 -0.0616 -0.8922
    7SAPS  H12A  804   0.221   5.958  10.718  1.0869 -0.4655  1.2670
    7SAPS   C13  805   0.378   5.832  10.791  0.6813  0.2636  0.0001
    7SAPS  O13A  806   0.366   5.705  10.779  0.0360 -0.4979 -1.2489
    7SAPS  O13B  807   0.380   5.884  10.906  0.2402 -0.3595 -0.1237
    7SAPS   C11  808   0.412   6.023  10.622  0.8223  0.1564 -0.3442
    7SAPS  H11A  809   0.495   5.967  10.573  1.3043  0.9539 -0.4485
    7SAPS  H11B  810   0.451   6.085  10.706  1.7626  0.9141 -1.3211
    7SAPS     P  811   0.417   6.240  10.482  0.2787 -0.2370  0.1206
    7SAPS   O13  812   0.350   6.295  10.362  0.1578  0.2279 -0.6345
    7SAPS   O14  813   0.410   6.329  10.598 -0.4949 -0.0229  0.1212
    7SAPS   O12  814   0.342   6.109  10.532  0.9494 -0.2612  0.0549
    7SAPS   O11  815   0.563   6.184  10.454  0.2893  0.2608 -0.5593
    7SAPS    C1  816   0.590   6.111  10.336 -0.2734  0.4291  0.1936
    7SAPS    HA  817   0.569   6.003  10.350  1.7795  0.3239  2.8486
    7SAPS    HB  818   0.537   6.146  10.244  0.1377  1.4068  0.3186
    7SAPS    C2  819   0.738   6.100  10.292 -0.1173  0.1387 -0.7269
    7SAPS    HS  820   0.789   6.046  10.374  0.4431  0.6068 -0.7711
    7SAPS   O21  821   0.786   6.231  10.272  0.5104  0.2633  0.1143
    7SAPS   C21  822   0.913   6.242  10.249 -0.3952 -0.9900 -0.0342
    7SAPS   O22  823   0.993   6.146  10.245  0.1320  0.2002 -0.1072
    7SAPS   C22  824   0.957   6.389  10.243 -0.7238  0.1874 -0.8913
    7SAPS   H2R  825   0.869   6.457  10.251  0.9392  2.4017 -1.0365
    7SAPS   H2S  826   1.023   6.398  10.332 -1.1189 -3.2526 -0.1912
    7SAPS    C3  827   0.757   6.008  10.165  1.1066 -0.5847  0.2706
    7SAPS    HX  828   0.712   5.911  10.194  0.0187 -0.2603 -0.3136
    7SAPS    HY  829   0.862   5.978  10.147  1.1932 -0.7798  1.0939
    7SAPS   O31  830   0.682   6.058  10.050  0.4862 -0.0944  0.7714
    7SAPS   C31  831   0.761   6.112   9.952  0.1514 -0.1445 -1.0099
    7SAPS   O32  832   0.883   6.128   9.957  0.3511  0.4851  0.6617
    7SAPS   C32  833   0.672   6.135   9.828  1.0778  1.3347 -1.0017
    7SAPS   H2X  834   0.675   6.245   9.811  2.1074  1.4599 -0.1115
    7SAPS   H2Y  835   0.569   6.108   9.859  1.6734  1.8860  1.6196
    7SAPS   C23  836   1.029   6.437  10.124  0.3466 -0.2927 -0.1028
    7SAPS   H3R  837   0.982   6.407  10.028  0.4102 -1.1599  0.1353
    7SAPS   H3S  838   1.123   6.379  10.115  0.4441  0.1838 -2.4872
    7SAPS   C24  839   1.070   6.583  10.116 -1.0937  0.8434  0.2738
    7SAPS   H4R  840   1.138   6.590  10.029  0.1793 -3.8602  0.7365
    7SAPS   H4S  841   1.124   6.603  10.211 -1.1015  0.6310  0.3244
    7SAPS   C25  842   0.950   6.666  10.093  0.8988  0.4824 -0.5331
    7SAPS   H5R  843   0.917   6.724  10.180 -1.1166 -0.0786 -0.9009
    7SAPS   C26  844   0.883   6.700   9.983  0.1912  0.3208 -0.2813
    7SAPS   H6R  845   0.795   6.766   9.984 -0.7593 -0.9145 -0.5698
    7SAPS   C27  846   0.909   6.632   9.847 -0.1301 -0.5996 -0.3547
    7SAPS   H7R  847   0.866   6.530   9.852 -0.9504 -0.2385 -0.0754
    7SAPS   H7S  848   1.019   6.622   9.836 -0.2920 -2.0134 -0.7238
    7SAPS   C28  849   0.861   6.707   9.723 -0.6740 -0.2709 -0.8134
    7SAPS   H8R  850   0.863   6.815   9.739 -3.2537  0.1222 -2.8326
    7SAPS   C29  851   0.803   6.654   9.617 -0.4255 -0.2225  0.0739
    7SAPS   H9R  852   0.763   6.728   9.545  0.3476 -0.1703 -0.3063
    7SAPS  C210  853   0.783   6.515   9.582  0.2718  0.6496  0.6414
    7SAPS  H10R  854   0.837   6.447   9.651 -1.0994  0.3720  1.4456
    7SAPS  H10S  855   0.824   6.484   9.483 -1.0250 -1.5557  0.7465
    7SAPS  C211  856   0.635   6.485   9.602 -0.4176 -0.2980 -0.0937
    7SAPS  H11R  857   0.601   6.463   9.704  0.1857  0.0353  0.1847
    7SAPS  C212  858   0.541   6.490   9.503 -0.6428 -0.6220  0.7127
    7SAPS  H12R  859   0.439   6.463   9.533 -1.3998  0.5931 -0.6669
    7SAPS  C213  860   0.560   6.527   9.361  0.2632 -0.0533  0.4275
    7SAPS  H13R  861   0.622   6.619   9.354 -0.3811  0.3059 -0.8313
    7SAPS  H13S  862   0.465   6.569   9.323  0.1640 -0.8968 -0.2710
    7SAPS  C214  863   0.615   6.416   9.266  0.3699 -0.0863  0.3892
    7SAPS  H14R  864   0.693   6.348   9.302  1.7611  1.9475  1.2879
    7SAPS  C215  865   0.559   6.405   9.141  0.0928 -0.8368  0.1679
    7SAPS  H15R  866   0.588   6.315   9.084 -4.8893 -1.4512 -1.6781
    7SAPS  C216  867   0.452   6.475   9.066  0.2514 -0.3919  0.8781
    7SAPS  H16R  868   0.408   6.566   9.113  0.0162 -0.3879  0.6536
    7SAPS  H16S  869   0.370   6.402   9.050 -2.0272  2.0889  0.8355
    7SAPS  C217  870   0.496   6.505   8.920  0.8698  0.3623 -0.3518
    7SAPS  H17R  871   0.509   6.412   8.860 -1.7686 -0.3331  0.1015
    7SAPS  H17S  872   0.593   6.560   8.915  0.3739  1.1822 -1.1010
    7SAPS  C218  873   0.400   6.593   8.841  0.0948  1.1115 -0.2290
    7SAPS  H18R  874   0.371   6.683   8.900 -1.0505 -0.4993  1.7279
    7SAPS  H18S  875   0.308   6.535   8.816  1.1885 -1.5571  1.7498
    7SAPS  C219  876   0.465   6.642   8.709 -0.2727  0.7687 -0.1862
    7SAPS  H19R  877   0.529   6.556   8.680  0.2081  0.7026  1.0114
    7SAPS  H19S  878   0.543   6.720   8.721  0.5682 -0.3797  2.2752
    7SAPS  C220  879   0.364   6.683   8.600 -0.5359 -0.9074 -0.6582
    7SAPS  H20R  880   0.409   6.708   8.501 -0.7709  1.4887 -0.1724
    7SAPS  H20S  881   0.313   6.777   8.629  0.7093 -0.6870  0.9033
    7SAPS  H20T  882   0.289   6.604   8.575 -3.7843  1.5593  1.0267
    7SAPS   C33  883   0.718   6.056   9.698  0.4851 -0.6163 -0.4932
    7SAPS   H3X  884   0.695   5.949   9.720 -3.5686  0.2951  0.0018
    7SAPS   H3Y  885   0.827   6.075   9.684  0.9585 -1.4504  1.7381
    7SAPS   C34  886   0.650   6.098   9.570 -0.2524  0.0989  0.3725
    7SAPS   H4X  887   0.686   6.039   9.483  1.8259  2.9847 -0.8326
    7SAPS   H4Y  888   0.685   6.202   9.550 -0.4396 -0.3760 -2.7438
    7SAPS   C35  889   0.492   6.096   9.572  0.0817  0.2648 -0.6306
    7SAPS   H5X  890   0.460   6.176   9.643 -0.0641 -0.0916 -0.2936
    7SAPS   H5Y  891   0.460   6.000   9.620 -2.3802  0.4791 -1.7527
    7SAPS   C36  892   0.419   6.101   9.437  0.0802 -0.2732  0.0595
    7SAPS   H6X  893   0.416   6.207   9.404 -1.2309  0.2546  1.8267
    7SAPS   H6Y  894   0.314   6.085   9.470 -0.3145  2.5601  0.3311
    7SAPS   C37  895   0.459   6.012   9.329  0.2482  0.7038 -0.4706
    7SAPS   H7X  896   0.450   5.909   9.370  1.8357 -0.2299 -2.3894
    7SAPS   H7Y  897   0.557   6.036   9.281  0.9616  1.8233  1.4840
    7SAPS   C38  898   0.356   6.025   9.222 -0.7497 -0.1238 -0.2639
    7SAPS   H8X  899   0.352   6.130   9.188  0.6241 -0.9892 -3.1982
    7SAPS   H8Y  900   0.258   5.997   9.268 -1.0628 -0.2382 -0.9954
    7SAPS   C39  901   0.391   5.924   9.116  0.2288 -0.6883 -0.1464
    7SAPS   H9X  902   0.298   5.906   9.058 -0.8510  0.9868  1.0161
    7SAPS   H9Y  903   0.419   5.831   9.170 -0.0458  0.1374  1.4310
    7SAPS  C310  904   0.506   5.959   9.026  0.1471  0.3883  0.6750
    7SAPS  H10X  905   0.598   5.956   9.088  0.3120 -1.3286  0.3645
    7SAPS  H10Y  906   0.486   6.062   8.987  0.5678  0.0860 -0.3488
    7SAPS  C311  907   0.507   5.860   8.905 -0.4782 -0.0094  0.1018
    7SAPS  H11X  908   0.418   5.866   8.839  0.4990 -0.0104 -1.2191
    7SAPS  H11Y  909   0.517   5.758   8.949 -0.5141 -0.2403 -0.4247
    7SAPS  C312  910   0.625   5.889   8.818 -0.4429 -0.0524  0.4204
    7SAPS  H12X  911   0.621   5.994   8.783  0.3181  0.3120  1.3842
    7SAPS  H12Y  912   0.628   5.830   8.724  0.7602  1.6977 -0.6590
    7SAPS  C313  913   0.762   5.867   8.884 -0.4819  0.0173  0.0663
    7SAPS  H13X  914   0.779   5.758   8.897  1.6664  0.2896 -0.2269
    7SAPS  H13Y  915   0.774   5.923   8.979  0.5186 -1.3988  0.7731
    7SAPS  C314  916   0.887   5.918   8.802  0.3396  0.6354 -0.0928
    7SAPS  H14X  917   0.972   5.878   8.861 -0.9507  1.8015  2.6229
    7SAPS  H14Y  918   0.899   6.028   8.795 -0.1014  0.8268  2.0593
    7SAPS  C315  919   0.887   5.853   8.663 -0.0162  0.2401  0.3789
    7SAPS  H15X  920   0.787   5.853   8.615 -0.0337 -1.0899  0.4111
    7SAPS  H15Y  921   0.912   5.745   8.669 -2.1779 -0.2828  0.5861
    7SAPS  C316  922   0.987   5.929   8.575 -0.5250  0.5612 -0.4825
    7SAPS  H16X  923   0.996   5.878   8.476 -0.9126 -0.0613 -0.2031
    7SAPS  H16Y  924   1.092   5.923   8.610 -0.2080 -1.0128 -1.6414
    7SAPS  C317  925   0.952   6.078   8.528 -0.0207  0.6829 -0.7044
    7SAPS  H17X  926   1.005   6.112   8.436  0.1007 -1.7875 -1.5703
    7SAPS  H17Y  927   0.987   6.144   8.611 -1.2398  0.0287  0.3529
    7SAPS  C318  928   0.806   6.116   8.498  0.0873  0.7874 -0.0750
    7SAPS  H18X  929   0.792   6.219   8.460  1.8457  1.7270  1.7244
    7SAPS  H18Y  930   0.737   6.103   8.584 -1.4075  2.8466 -0.9214
    7SAPS  H18Z  931   0.773   6.051   8.415 -1.3107  1.1926  0.1435
    8SAPS     N  932   4.889   0.247  10.988  0.1504 -0.2220 -1.2594
    8SAPS   HN1  933   4.797   0.289  10.963 -1.1060 -2.0752  0.0543
    8SAPS   HN2  934   4.949   0.233  10.904  1.2553  1.6538 -0.8016
    8SAPS   HN3  935   4.878   0.157  11.040  1.4904  0.5806  0.4533
    8SAPS   C12  936   4.960   0.341  11.086 -0.3870  0.3215 -0.0689
    8SAPS  H12A  937   4.982   0.423  11.019 -0.5080 -0.2060 -0.7696
    8SAPS   C13  938   4.883   0.401  11.210 -0.5067  0.0139  0.2743
    8SAPS  O13A  939   4.765   0.359  11.232  0.2647 -0.2819  0.5469
    8SAPS  O13B  940   4.944   0.466  11.294 -0.0141 -0.5777  0.1128
    8SAPS   C11  941   5.096   0.273  11.123  0.7486 -0.7408  0.0780
    8SAPS  H11A  942   5.063   0.172  11.157 -2.6207 -1.2942 -4.3037
    8SAPS  H11B  943   5.153   0.341  11.190 -1.1288  0.4276  0.5243
    8SAPS     P  944   5.274   0.145  10.995  0.0304 -0.1478  0.1933
    8SAPS   O13  945   5.358   0.171  11.117  0.1041  0.0016  0.1453
    8SAPS   O14  946   5.208   0.012  10.980  0.2439  0.0165  0.1611
    8SAPS   O12  947   5.158   0.249  10.994 -0.5838  0.3428  0.5186
    8SAPS   O11  948   5.360   0.184  10.869  0.1684  0.0921  0.4944
    8SAPS    C1  949   5.365   0.320  10.822 -0.5670  0.7105 -0.4143
    8SAPS    HA  950   5.397   0.388  10.904  0.8994 -0.2211 -0.1991
    8SAPS    HB  951   5.442   0.332  10.743  1.3772  0.0405  1.3165
    8SAPS    C2  952   5.239   0.369  10.744  0.0357  0.3122  0.0268
    8SAPS    HS  953   5.157   0.383  10.817  0.5082  1.0124  0.4221
    8SAPS   O21  954   5.214   0.266  10.648  0.3720 -0.1280  0.3323
    8SAPS   C21  955   5.096   0.209  10.647 -0.6741 -0.4429 -0.2203
    8SAPS   O22  956   5.004   0.222  10.726  0.4527 -0.1176 -0.0626
    8SAPS   C22  957   5.083   0.104  10.530 -0.9899  0.7021  0.1098
    8SAPS   H2R  958   5.100   0.162  10.436 -0.4473  2.3270  1.1806
    8SAPS   H2S  959   5.172   0.038  10.541  0.5441  2.5329 -0.8988
    8SAPS    C3  960   5.270   0.491  10.651  0.2123  0.9679 -0.1936
    8SAPS    HX  961   5.327   0.448  10.566 -0.1466 -2.4287  1.1703
    8SAPS    HY  962   5.335   0.557  10.712  0.4391  0.8355 -0.2936
    8SAPS   O31  963   5.151   0.558  10.610  0.0763 -0.5636  0.1697
    8SAPS   C31  964   5.177   0.663  10.530  0.0704 -0.2516 -0.4610
    8SAPS   O32  965   5.295   0.707  10.511  0.0532  0.3563 -0.3116
    8SAPS   C32  966   5.043   0.716  10.466 -0.4262  0.0553  0.0412
    8SAPS   H2X  967   4.998   0.792  10.533 -1.6437  1.6342 -2.4474
    8SAPS   H2Y  968   4.975   0.628  10.465  1.7573 -1.6717 -0.1864
    8SAPS   C23  969   4.955   0.031  10.527  0.4377  0.6077 -0.2705
    8SAPS   H3R  970   4.874   0.101  10.558 -0.2417  0.3361 -1.3976
    8SAPS   H3S  971   4.959  -0.054  10.598  0.3080  1.2334  0.4888
    8SAPS   C24  972   4.909  -0.014  10.388 -0.0515 -0.0855  0.2519
    8SAPS   H4R  973   4.810  -0.063  10.403 -1.5090  2.8255  0.5368
    8SAPS   H4S  974   4.985  -0.089  10.357  1.7033  2.5558 -2.0610
    8SAPS   C25  975   4.899   0.099  10.281 -0.5921  0.4589 -0.5237
    8SAPS   H5R  976   4.819   0.175  10.290 -0.0943  1.4337 -3.7296
    8SAPS   C26  977   4.989   0.122  10.185 -0.1348 -0.3181  0.2288
    8SAPS   H6R  978   4.961   0.194  10.107  1.8045  0.1092 -0.0954
    8SAPS   C27  979   5.117   0.043  10.153 -0.4894 -0.5616  0.5212
    8SAPS   H7R  980   5.107  -0.064  10.181 -0.5431 -0.8563 -0.5897
    8SAPS   H7S  981   5.199   0.079  10.219  1.1346 -1.9287 -0.6977
    8SAPS   C28  982   5.157   0.047  10.005 -0.2377  0.2367  0.9533
    8SAPS   H8R  983   5.130  -0.042   9.946 -0.9714  0.3842  1.0525
    8SAPS   C29  984   5.218   0.154   9.940  0.8764 -0.2523 -0.1162
    8SAPS   H9R  985   5.245   0.157   9.834 -0.6163  0.8931 -0.4936
    8SAPS  C210  986   5.245   0.287  10.002  0.3797 -0.7566  0.2199
    8SAPS  H10R  987   5.269   0.276  10.110  0.9202  2.1383  0.4467
    8SAPS  H10S  988   5.153   0.349  10.006  0.5981 -0.3472 -1.0476
    8SAPS  C211  989   5.360   0.358   9.937 -0.8147 -0.0106 -0.5233
    8SAPS  H11R  990   5.341   0.464   9.912 -2.2841 -0.0266  0.4286
    8SAPS  C212  991   5.486   0.313   9.923 -0.2339  0.4308  0.4242
    8SAPS  H12R  992   5.565   0.377   9.881 -0.8944  1.1856  0.3248
    8SAPS  C213  993   5.539   0.176   9.959  0.2508 -0.0473 -0.2628
    8SAPS  H13R  994   5.464   0.115  10.014 -1.3741  0.2522 -2.0747
    8SAPS  H13S  995   5.622   0.193  10.031 -1.5071  0.3061  1.7387
    8SAPS  C214  996   5.594   0.088   9.840 -0.5976  0.1970 -0.5854
    8SAPS  H14R  997   5.655   0.134   9.761  0.8218  1.1863  1.0439
    8SAPS  C215  998   5.577  -0.044   9.832  0.0749  0.2344 -0.1961
    8SAPS  H15R  999   5.599  -0.084   9.732  1.2358  0.5228 -0.0693
    8SAPS  C216 1000   5.491  -0.127   9.926  0.2351  0.7935  0.2016
    8SAPS  H16R 1001   5.452  -0.218   9.876  0.0003  1.0956 -0.1746
    8SAPS  H16S 1002   5.408  -0.057   9.950 -0.7582  0.2674 -1.5608
    8SAPS  C217 1003   5.573  -0.164  10.048 -0.1797 -0.0968  0.3973
    8SAPS  H17R 1004   5.574  -0.070  10.107  2.3221 -0.7574  1.4875
    8SAPS  H17S 1005   5.677  -0.199  10.032  0.0664  1.0859 -0.6228
    8SAPS  C218 1006   5.514  -0.268  10.147  0.1440  0.1681  0.5897
    8SAPS  H18R 1007   5.596  -0.311  10.208 -0.0425 -0.9519  0.0751
    8SAPS  H18S 1008   5.473  -0.348  10.081  0.9202  0.4553 -0.2521
    8SAPS  C219 1009   5.411  -0.218  10.247 -0.2199  0.3048 -0.0800
    8SAPS  H19R 1010   5.321  -0.187  10.191  0.6649  3.0551 -0.0481
    8SAPS  H19S 1011   5.442  -0.121  10.292  1.8763 -0.6871  0.6761
    8SAPS  C220 1012   5.378  -0.319  10.358 -0.4933 -0.5005  0.3226
    8SAPS  H20R 1013   5.337  -0.412  10.312 -0.0749  0.2089 -1.5315
    8SAPS  H20S 1014   5.301  -0.276  10.426 -0.5711 -0.5981  0.2964
    8SAPS  H20T 1015   5.466  -0.345  10.420  0.2070  0.7735 -0.1267
    8SAPS   C33 1016   5.053   0.782  10.327 -0.5521 -0.1057 -0.6000
    8SAPS   H3X 1017   5.150   0.833  10.311 -1.3469  1.7633  0.4008
    8SAPS   H3Y 1018   4.971   0.856  10.312  2.0591  2.8361 -1.0489
    8SAPS   C34 1019   5.055   0.685  10.203  0.0733 -0.6035 -0.5324
    8SAPS   H4X 1020   4.979   0.605  10.219 -1.3774  1.2815  2.2481
    8SAPS   H4Y 1021   5.150   0.627  10.208  0.3440 -0.1508 -0.4027
    8SAPS   C35 1022   5.024   0.752  10.064 -0.0706 -0.0753 -0.2787
    8SAPS   H5X 1023   5.112   0.820  10.056  1.7709 -2.4944 -1.6166
    8SAPS   H5Y 1024   4.936   0.817  10.081  0.2765  0.7759 -1.6259
    8SAPS   C36 1025   4.993   0.662   9.939  0.5095  0.0041 -0.3660
    8SAPS   H6X 1026   4.909   0.594   9.965  0.9084 -0.8907 -1.4045
    8SAPS   H6Y 1027   5.080   0.597   9.918  0.7170  1.0949 -3.1207
    8SAPS   C37 1028   4.955   0.735   9.813 -0.5264 -0.1078  0.6305
    8SAPS   H7X 1029   4.877   0.799   9.858  0.8639  0.9987  1.5211
    8SAPS   H7Y 1030   4.911   0.670   9.734 -0.6911  0.5469  0.1854
    8SAPS   C38 1031   5.070   0.820   9.747  0.8545  0.7138  0.4245
    8SAPS   H8X 1032   5.107   0.876   9.835  2.2092 -0.7819  0.8299
    8SAPS   H8Y 1033   5.033   0.903   9.684 -0.7417 -0.5173 -0.3050
    8SAPS   C39 1034   5.194   0.755   9.695  0.2358 -0.1421  0.0896
    8SAPS   H9X 1035   5.173   0.708   9.597 -1.2428 -1.5243  1.0498
    8SAPS   H9Y 1036   5.223   0.686   9.777  0.9465 -0.0879 -0.1088
    8SAPS  C310 1037   5.305   0.848   9.660 -0.4337 -0.1541 -0.4360
    8SAPS  H10X 1038   5.359   0.884   9.750  0.2666 -2.1162 -0.0438
    8SAPS  H10Y 1039   5.256   0.932   9.606  0.2190  0.1193 -0.6075
    8SAPS  C311 1040   5.405   0.785   9.558 -0.1664  0.3341 -0.8741
    8SAPS  H11X 1041   5.344   0.732   9.481 -0.1676 -1.7309  0.5022
    8SAPS  H11Y 1042   5.459   0.707   9.615  1.5021  1.2568 -1.1696
    8SAPS  C312 1043   5.498   0.886   9.493  0.4482 -0.1613  0.2381
    8SAPS  H12X 1044   5.585   0.916   9.555  1.7177  2.9563 -2.8871
    8SAPS  H12Y 1045   5.438   0.980   9.482  2.7564  1.3605  0.3940
    8SAPS  C313 1046   5.550   0.849   9.354  0.2098 -0.4766 -0.7490
    8SAPS  H13X 1047   5.454   0.843   9.299  0.0547 -1.2612 -0.4001
    8SAPS  H13Y 1048   5.600   0.751   9.372  3.1706  0.3599 -3.8228
    8SAPS  C314 1049   5.637   0.954   9.288 -0.5758  0.3820 -0.7058
    8SAPS  H14X 1050   5.723   0.975   9.356 -0.2873 -0.4553 -0.8107
    8SAPS  H14Y 1051   5.575   1.045   9.270  0.1839  1.0187 -0.1631
    8SAPS  C315 1052   5.687   0.912   9.151 -0.3996  0.3534 -0.4914
    8SAPS  H15X 1053   5.731   1.004   9.106 -0.5919  0.4312 -0.5251
    8SAPS  H15Y 1054   5.597   0.887   9.090 -0.2429  1.2250 -1.0943
    8SAPS  C316 1055   5.811   0.821   9.140  0.4050  0.7710  0.1503
    8SAPS  H16X 1056   5.779   0.718   9.166 -0.1418  1.0091  0.4091
    8SAPS  H16Y 1057   5.888   0.860   9.209  1.0407  2.3461 -1.4098
    8SAPS  C317 1058   5.872   0.836   9.006  0.0394  0.4589 -0.1083
    8SAPS  H17X 1059   5.893   0.944   8.990  0.4082  0.5440  0.9488
    8SAPS  H17Y 1060   5.800   0.811   8.925 -1.0656 -1.3058  1.3676
    8SAPS  C318 1061   6.015   0.775   8.987  0.6338  0.1274 -0.3686
    8SAPS  H18X 1062   6.071   0.828   8.907  2.6338  0.1437  0.9953
    8SAPS  H18Y 1063   6.005   0.665   8.975 -0.0778  0.4076 -2.4645
    8SAPS  H18Z 1064   6.079   0.806   9.073 -0.1409  1.6826 -0.3406
    9SAPS     N 1065   0.547   3.481   6.189 -0.2891  0.4100 -0.3595
    9SAPS   HN1 1066   0.627   3.454   6.129 -0.2203  0.0555 -0.1091
    9SAPS   HN2 1067   0.544   3.436   6.283 -1.4453 -1.5252 -1.2932
    9SAPS   HN3 1068   0.453   3.455   6.152 -1.3444  3.1432  0.2313
    9SAPS   C12 1069   0.553   3.627   6.204  0.0904  0.0066  0.0938
    9SAPS  H12A 1070   0.650   3.657   6.167  0.0869 -0.5008 -0.3208
    9SAPS   C13 1071   0.453   3.710   6.119  0.4547 -0.1283 -1.2428
    9SAPS  O13A 1072   0.383   3.654   6.036  0.0891  0.3314 -0.5457
    9SAPS  O13B 1073   0.459   3.839   6.120  0.3243  0.1573 -0.2534
    9SAPS   C11 1074   0.559   3.676   6.344  0.6261  0.4803  0.4098
    9SAPS  H11A 1075   0.461   3.672   6.396  1.4705  2.1246  2.2216
    9SAPS  H11B 1076   0.582   3.785   6.347  1.4719  0.2791  1.8289
    9SAPS     P 1077   0.800   3.651   6.438 -0.1960  0.1126  0.0558
    9SAPS   O13 1078   0.888   3.535   6.474  0.0228  0.4031 -0.7505
    9SAPS   O14 1079   0.840   3.732   6.320 -0.4438  0.5797  0.5013
    9SAPS   O12 1080   0.648   3.598   6.423  0.2948  0.4157  0.8544
    9SAPS   O11 1081   0.800   3.743   6.558  0.0890 -0.1768 -0.1239
    9SAPS    C1 1082   0.715   3.741   6.669  0.3253  0.3203  0.4644
    9SAPS    HA 1083   0.613   3.722   6.629  0.4602 -0.3676  0.4440
    9SAPS    HB 1084   0.752   3.658   6.734  1.5330  0.0423 -0.5653
    9SAPS    C2 1085   0.718   3.876   6.742 -1.0075  0.1267  0.7933
    9SAPS    HS 1086   0.686   3.956   6.671  1.8889  3.2480  2.8176
    9SAPS   O21 1087   0.853   3.898   6.785 -0.4456  0.2684 -0.6075
    9SAPS   C21 1088   0.885   4.016   6.801 -0.3614  0.6739  0.0004
    9SAPS   O22 1089   0.814   4.114   6.775  0.1255 -0.3171 -0.3153
    9SAPS   C22 1090   1.021   4.021   6.866  0.6582  0.3991  0.0326
    9SAPS   H2R 1091   1.060   3.928   6.913  1.8094  1.1776  0.6557
    9SAPS   H2S 1092   1.099   4.058   6.796 -0.1550 -1.8578 -2.1038
    9SAPS    C3 1093   0.606   3.885   6.855 -0.0227  0.4586 -0.2454
    9SAPS    HX 1094   0.503   3.872   6.814 -0.0957  2.1038 -0.6196
    9SAPS    HY 1095   0.612   3.986   6.901  0.6847  0.8548 -1.1731
    9SAPS   O31 1096   0.633   3.788   6.964  0.1421  0.2591 -0.0191
    9SAPS   C31 1097   0.562   3.676   6.966  0.1835 -0.5657 -0.1833
    9SAPS   O32 1098   0.472   3.654   6.887 -0.0226  0.3828  0.1024
    9SAPS   C32 1099   0.604   3.589   7.086  0.5710  0.1207 -0.9774
    9SAPS   H2X 1100   0.711   3.561   7.077 -0.1577 -4.0145  1.7147
    9SAPS   H2Y 1101   0.549   3.493   7.073 -0.1887  0.5056 -0.6429
    9SAPS   C23 1102   1.014   4.125   6.987 -0.3599 -0.9470 -0.0401
    9SAPS   H3R 1103   0.952   4.213   6.963 -1.0190 -2.3533 -3.8741
    9SAPS   H3S 1104   1.118   4.164   6.991 -0.2590 -1.3357  1.1797
    9SAPS   C24 1105   0.975   4.064   7.123 -0.0653 -0.0395 -0.5353
    9SAPS   H4R 1106   1.026   4.125   7.201 -1.4776 -0.7973  1.0231
    9SAPS   H4S 1107   1.029   3.966   7.129 -1.0879 -0.7113 -1.9881
    9SAPS   C25 1108   0.828   4.045   7.142  0.4957  0.1654  0.0244
    9SAPS   H5R 1109   0.758   4.046   7.057 -1.0575 -2.3909  1.1822
    9SAPS   C26 1110   0.771   4.030   7.270 -0.2140 -0.7331  0.3657
    9SAPS   H6R 1111   0.663   4.016   7.281  0.0515 -3.7462 -0.1506
    9SAPS   C27 1112   0.853   4.025   7.394  0.0242  0.3176  0.0674
    9SAPS   H7R 1113   0.884   4.128   7.422  2.7744 -0.5754  0.5076
    9SAPS   H7S 1114   0.949   3.974   7.371  0.1568 -0.8442  2.9104
    9SAPS   C28 1115   0.789   3.950   7.510  0.1357 -0.0801 -0.2092
    9SAPS   H8R 1116   0.708   4.012   7.553 -0.2550  0.7338 -2.0588
    9SAPS   C29 1117   0.813   3.821   7.558  0.2127 -0.3834 -0.2927
    9SAPS   H9R 1118   0.733   3.787   7.625 -1.6284  1.3300 -1.5447
    9SAPS  C210 1119   0.913   3.718   7.509 -0.5158  0.8462 -0.2142
    9SAPS  H10R 1120   0.965   3.676   7.598  0.7233 -1.0805 -1.7964
    9SAPS  H10S 1121   1.000   3.765   7.459  1.3845 -0.5451  1.6368
    9SAPS  C211 1122   0.851   3.600   7.442 -0.8603  0.2332  0.5623
    9SAPS  H11R 1123   0.741   3.600   7.438 -0.8636  0.4722  0.6322
    9SAPS  C212 1124   0.924   3.498   7.385  0.1342 -0.8174 -0.1804
    9SAPS  H12R 1125   0.879   3.413   7.331 -0.2698 -1.3363  0.9497
    9SAPS  C213 1126   1.075   3.494   7.384  0.6249  0.1785 -0.1615
    9SAPS  H13R 1127   1.114   3.393   7.361 -0.5804 -0.4776  0.6261
    9SAPS  H13S 1128   1.122   3.523   7.481  2.0769 -3.6517  0.3738
    9SAPS  C214 1129   1.128   3.589   7.279  0.6294 -0.5368 -0.6549
    9SAPS  H14R 1130   1.053   3.609   7.201  0.1289 -1.5586 -0.4338
    9SAPS  C215 1131   1.256   3.643   7.258 -0.1877  0.2176 -0.0552
    9SAPS  H15R 1132   1.267   3.717   7.177  1.0168 -0.0899 -0.1676
    9SAPS  C216 1133   1.365   3.612   7.361 -0.2375 -0.3724  0.2915
    9SAPS  H16R 1134   1.330   3.595   7.465 -0.2694  0.6243  0.4420
    9SAPS  H16S 1135   1.434   3.698   7.375  1.5386 -1.7276  0.1578
    9SAPS  C217 1136   1.456   3.489   7.330  0.2418  1.4692 -0.4217
    9SAPS  H17R 1137   1.398   3.395   7.345  1.6957  0.9612  2.5108
    9SAPS  H17S 1138   1.538   3.482   7.405  0.0843 -2.6203 -0.5331
    9SAPS  C218 1139   1.514   3.488   7.190 -0.6206  0.2843  0.3588
    9SAPS  H18R 1140   1.528   3.596   7.168 -1.4073 -0.2060 -2.7752
    9SAPS  H18S 1141   1.439   3.455   7.114  0.4845  1.3175 -1.2320
    9SAPS  C219 1142   1.644   3.407   7.170 -0.5707 -0.3967 -0.3790
    9SAPS  H19R 1143   1.640   3.312   7.227 -0.0184 -0.3991 -0.3434
    9SAPS  H19S 1144   1.730   3.461   7.214  0.6059 -1.0816 -1.7968
    9SAPS  C220 1145   1.690   3.385   7.025 -0.3138 -0.0145 -0.3452
    9SAPS  H20R 1146   1.787   3.330   7.027  0.3848  1.2151  1.1925
    9SAPS  H20S 1147   1.710   3.488   6.988 -0.9245 -0.3955 -1.7345
    9SAPS  H20T 1148   1.620   3.345   6.949  1.2098  0.4249 -1.9977
    9SAPS   C33 1149   0.570   3.658   7.223  0.4228  0.0549  0.7396
    9SAPS   H3X 1150   0.642   3.741   7.243  0.1019  0.7480 -0.8435
    9SAPS   H3Y 1151   0.593   3.587   7.305  0.6982 -0.1701  0.4673
    9SAPS   C34 1152   0.425   3.709   7.228 -1.0572  0.1542 -0.2092
    9SAPS   H4X 1153   0.364   3.617   7.220 -0.4573 -0.4368  1.7353
    9SAPS   H4Y 1154   0.409   3.775   7.140 -1.1309 -0.2820 -0.5243
    9SAPS   C35 1155   0.383   3.789   7.355 -0.4029 -0.5679 -0.0485
    9SAPS   H5X 1156   0.283   3.831   7.332  0.0059 -1.0453 -2.8163
    9SAPS   H5Y 1157   0.458   3.870   7.352  1.3733 -2.1660 -0.3540
    9SAPS   C36 1158   0.382   3.717   7.487 -0.3943 -0.3100  0.3717
    9SAPS   H6X 1159   0.479   3.663   7.496  0.4960  1.5233  2.2005
    9SAPS   H6Y 1160   0.297   3.646   7.475  1.1721 -2.0591 -0.7319
    9SAPS   C37 1161   0.368   3.814   7.603 -0.3520  0.8636 -0.1940
    9SAPS   H7X 1162   0.290   3.883   7.567 -0.3318  0.4968 -0.9550
    9SAPS   H7Y 1163   0.455   3.883   7.605 -1.4606  2.2420  2.0944
    9SAPS   C38 1164   0.343   3.761   7.742 -0.8471  0.2753  0.3726
    9SAPS   H8X 1165   0.423   3.691   7.773 -0.8130  0.0357 -0.2412
    9SAPS   H8Y 1166   0.247   3.705   7.741 -0.1456 -0.9508  0.1563
    9SAPS   C39 1167   0.330   3.877   7.851 -0.0929 -0.1197  0.1308
    9SAPS   H9X 1168   0.240   3.940   7.836  1.6372  2.4973  0.5691
    9SAPS   H9Y 1169   0.420   3.942   7.847 -0.4676  0.5504  2.0703
    9SAPS  C310 1170   0.312   3.819   7.991  0.0824  0.0316 -0.4193
    9SAPS  H10X 1171   0.388   3.744   8.021 -1.1514 -0.7475  0.8322
    9SAPS  H10Y 1172   0.214   3.767   8.002  0.2134  0.1878  1.5437
    9SAPS  C311 1173   0.295   3.932   8.095  0.4264  0.5893 -0.3193
    9SAPS  H11X 1174   0.190   3.966   8.083 -0.1837 -0.8592  0.6797
    9SAPS  H11Y 1175   0.361   4.019   8.075 -0.5623  0.5533 -4.1681
    9SAPS  C312 1176   0.322   3.883   8.237 -0.7937 -0.9928  0.0796
    9SAPS  H12X 1177   0.432   3.865   8.236 -0.4006  1.2958 -2.2824
    9SAPS  H12Y 1178   0.271   3.790   8.270  2.4793 -2.7899  0.3015
    9SAPS  C313 1179   0.297   3.989   8.338 -0.3494  0.0304  0.0309
    9SAPS  H13X 1180   0.187   4.006   8.338  0.0732  3.2529  2.1979
    9SAPS  H13Y 1181   0.344   4.080   8.294  1.7302 -0.5525  1.0093
    9SAPS  C314 1182   0.346   3.952   8.476  0.5419 -0.4780 -0.0434
    9SAPS  H14X 1183   0.457   3.950   8.471  0.4750 -0.8827 -1.3680
    9SAPS  H14Y 1184   0.308   3.849   8.493 -0.1336  0.0786  1.9815
    9SAPS  C315 1185   0.298   4.045   8.591  0.7472 -0.0654 -0.6267
    9SAPS  H15X 1186   0.187   4.046   8.594  0.6634 -3.5514 -0.3233
    9SAPS  H15Y 1187   0.342   4.145   8.572 -2.7177  2.0292  1.7103
    9SAPS  C316 1188   0.344   4.011   8.736 -0.5155  0.3981 -0.4313
    9SAPS  H16X 1189   0.314   4.091   8.807 -1.9578  0.0828 -0.6495
    9SAPS  H16Y 1190   0.453   4.002   8.723 -0.4986  1.8365 -1.3972
    9SAPS  C317 1191   0.294   3.878   8.794 -0.2875  0.4536 -0.4475
    9SAPS  H17X 1192   0.374   3.847   8.864 -2.4732 -0.6890  1.6141
    9SAPS  H17Y 1193   0.275   3.798   8.719  2.5394  1.6548 -2.5319
    9SAPS  C318 1194   0.158   3.893   8.865 -0.0791 -0.0314 -0.6206
    9SAPS  H18X 1195   0.096   3.974   8.822 -2.3300 -0.8457  0.9849
    9SAPS  H18Y 1196   0.169   3.907   8.974  0.3296 -0.1378 -0.6473
    9SAPS  H18Z 1197   0.106   3.795   8.859 -0.0908  0.0424 -2.0390
   10SAPS     N 1198   1.384   2.664   6.328  0.4000  0.7635  0.5117
   10SAPS   HN1 1199   1.457   2.627   6.265  0.0628 -2.4536  1.9526
   10SAPS   HN2 1200   1.415   2.736   6.397  0.8551 -0.9312  2.1206
   10SAPS   HN3 1201   1.361   2.578   6.382 -0.0182  2.2429  2.7722
   10SAPS   C12 1202   1.271   2.710   6.251  0.0710  0.1919  0.3824
   10SAPS  H12A 1203   1.276   2.818   6.240  2.2239  0.1037  0.3168
   10SAPS   C13 1204   1.251   2.638   6.111  0.3795  0.2331  0.1234
   10SAPS  O13A 1205   1.348   2.571   6.062  0.3434 -0.0775  0.1252
   10SAPS  O13B 1206   1.146   2.667   6.048 -0.7620  0.3468 -0.7382
   10SAPS   C11 1207   1.143   2.677   6.332 -0.0064  0.3254  0.1355
   10SAPS  H11A 1208   1.137   2.567   6.350 -0.8359  0.6828  2.0923
   10SAPS  H11B 1209   1.046   2.696   6.282  0.7468  0.5694 -1.2671
   10SAPS     P 1210   1.009   2.761   6.546 -0.0045  0.2624  0.1345
   10SAPS   O13 1211   0.936   2.877   6.486  0.7896 -0.0578  0.6731
   10SAPS   O14 1212   0.939   2.631   6.543  0.3682 -0.2154 -0.5272
   10SAPS   O12 1213   1.148   2.735   6.467  0.1265  0.2221 -0.0687
   10SAPS   O11 1214   1.047   2.799   6.694  1.1882 -0.6631  0.4632
   10SAPS    C1 1215   1.155   2.736   6.760 -0.0796 -0.8562  0.2636
   10SAPS    HA 1216   1.247   2.724   6.699 -0.0703 -1.8731  0.4747
   10SAPS    HB 1217   1.179   2.795   6.851 -1.7453  0.0715  0.1218
   10SAPS    C2 1218   1.117   2.590   6.809 -0.1597 -0.3058 -0.2643
   10SAPS    HS 1219   1.078   2.540   6.718 -0.7194  3.0673 -1.9513
   10SAPS   O21 1220   1.012   2.588   6.915  0.1506 -0.0336 -0.2518
   10SAPS   C21 1221   0.960   2.471   6.938  0.3613  0.2861 -0.7371
   10SAPS   O22 1222   0.993   2.364   6.891  0.6388  0.2324  0.1878
   10SAPS   C22 1223   0.831   2.485   7.033 -0.2958 -0.5189  0.4436
   10SAPS   H2R 1224   0.816   2.589   7.069 -0.3611 -1.0611  2.0172
   10SAPS   H2S 1225   0.752   2.465   6.957  0.8304 -2.4630 -0.2439
   10SAPS    C3 1226   1.248   2.516   6.863  0.2142  0.2468  0.7594
   10SAPS    HX 1227   1.327   2.518   6.785  1.0874 -1.0162  1.5970
   10SAPS    HY 1228   1.226   2.411   6.891 -1.1609  0.0060 -1.1335
   10SAPS   O31 1229   1.313   2.590   6.972 -0.4794  0.6953  0.3181
   10SAPS   C31 1230   1.260   2.560   7.095 -0.4151 -0.5046  0.3076
   10SAPS   O32 1231   1.189   2.464   7.124  0.1321  0.1043  0.3519
   10SAPS   C32 1232   1.302   2.663   7.199 -0.0409  0.0826 -1.0292
   10SAPS   H2X 1233   1.220   2.738   7.194  2.4002  2.7637 -2.0061
   10SAPS   H2Y 1234   1.398   2.712   7.172  1.0882 -0.2052  2.1459
   10SAPS   C23 1235   0.826   2.371   7.142  0.0472  0.8917 -0.8314
   10SAPS   H3R 1236   0.852   2.280   7.084 -0.8736 -0.4802  0.8819
   10SAPS   H3S 1237   0.720   2.352   7.170  0.6259  0.2556  0.9916
   10SAPS   C24 1238   0.910   2.403   7.265  0.0729 -0.1067  0.6659
   10SAPS   H4R 1239   0.879   2.503   7.300 -1.2426 -1.2912  3.0118
   10SAPS   H4S 1240   1.021   2.404   7.263  0.0673  2.4202  0.8538
   10SAPS   C25 1241   0.880   2.301   7.363  0.2032 -0.0553  0.5173
   10SAPS   H5R 1242   0.889   2.197   7.329  0.1737 -0.4790  1.7662
   10SAPS   C26 1243   0.826   2.325   7.489 -0.3112 -0.3566  0.6332
   10SAPS   H6R 1244   0.803   2.238   7.553 -0.6832 -0.0212  0.9544
   10SAPS   C27 1245   0.799   2.460   7.557  0.0794  0.3546 -0.1313
   10SAPS   H7R 1246   0.716   2.442   7.628  0.6352  0.9521  0.6892
   10SAPS   H7S 1247   0.750   2.529   7.484  0.3491  0.8652  0.1657
   10SAPS   C28 1248   0.918   2.534   7.621 -0.0721 -0.2609 -0.1666
   10SAPS   H8R 1249   0.994   2.574   7.552 -0.3246  0.0457 -0.2683
   10SAPS   C29 1250   0.935   2.561   7.755  0.3671  0.0415 -0.3527
   10SAPS   H9R 1251   1.025   2.620   7.779 -0.2665 -0.5721  3.8545
   10SAPS  C210 1252   0.847   2.522   7.868  0.2027  0.3070 -0.6437
   10SAPS  H10R 1253   0.914   2.503   7.954  1.2485  0.7128 -1.3640
   10SAPS  H10S 1254   0.794   2.428   7.839  1.7784 -0.5805 -0.6779
   10SAPS  C211 1255   0.746   2.624   7.896  0.1309 -0.2104 -0.2276
   10SAPS  H11R 1256   0.672   2.638   7.815  1.2711  0.0616 -1.2315
   10SAPS  C212 1257   0.727   2.691   8.015  0.4802  0.3426  0.1765
   10SAPS  H12R 1258   0.660   2.778   8.017  0.4597  0.3242  0.2673
   10SAPS  C213 1259   0.815   2.675   8.143 -0.3223  0.2764  0.0496
   10SAPS  H13R 1260   0.914   2.635   8.114 -0.7770 -0.4594 -0.5298
   10SAPS  H13S 1261   0.777   2.601   8.217  0.8327  2.6310  3.0717
   10SAPS  C214 1262   0.819   2.795   8.229  0.0697 -0.6060 -0.1157
   10SAPS  H14R 1263   0.762   2.879   8.188  1.2457  0.7477  0.9478
   10SAPS  C215 1264   0.896   2.813   8.338  0.2030  0.5785  0.8566
   10SAPS  H15R 1265   0.899   2.910   8.390  0.4013 -0.4273  2.7634
   10SAPS  C216 1266   0.991   2.707   8.391 -0.4955 -0.3151  1.0557
   10SAPS  H16R 1267   1.078   2.754   8.442  0.9065 -2.7641  1.0226
   10SAPS  H16S 1268   1.027   2.641   8.309 -2.1771  0.2442 -0.1494
   10SAPS  C217 1269   0.912   2.610   8.474  0.7151 -0.4418 -0.1784
   10SAPS  H17R 1270   0.970   2.516   8.488 -0.2442 -1.2812 -1.7139
   10SAPS  H17S 1271   0.814   2.582   8.430 -0.2858  0.3479  1.5032
   10SAPS  C218 1272   0.879   2.667   8.621  0.5575 -0.2570 -0.4747
   10SAPS  H18R 1273   0.787   2.618   8.660  0.2622 -0.3106 -1.2337
   10SAPS  H18S 1274   0.843   2.771   8.606  1.9586  0.9111  3.5710
   10SAPS  C219 1275   1.001   2.669   8.717 -0.5643 -1.0340 -0.3685
   10SAPS  H19R 1276   1.097   2.659   8.663  0.4441 -0.3591  1.2547
   10SAPS  H19S 1277   0.998   2.593   8.798 -0.3286 -1.9129 -1.1785
   10SAPS  C220 1278   0.999   2.806   8.787  0.5505 -0.3978 -0.0185
   10SAPS  H20R 1279   0.996   2.879   8.703 -1.5211 -0.0006  0.3869
   10SAPS  H20S 1280   1.100   2.823   8.829  0.3991  1.1051 -0.2315
   10SAPS  H20T 1281   0.911   2.824   8.852 -0.1779  1.1750 -1.4078
   10SAPS   C33 1282   1.317   2.601   7.338  0.1658  0.6241  0.5854
   10SAPS   H3X 1283   1.416   2.552   7.342  1.9669  3.7932 -2.5966
   10SAPS   H3Y 1284   1.224   2.542   7.353  0.0402  1.3207  2.8317
   10SAPS   C34 1285   1.326   2.709   7.447  0.3631  0.2244 -0.4653
   10SAPS   H4X 1286   1.236   2.775   7.447  0.5964  0.5411 -0.2528
   10SAPS   H4Y 1287   1.416   2.772   7.437  1.3096 -1.0740 -0.1782
   10SAPS   C35 1288   1.326   2.636   7.578  0.1617  0.1104 -0.4082
   10SAPS   H5X 1289   1.401   2.554   7.581 -0.2005 -0.1733  2.8516
   10SAPS   H5Y 1290   1.229   2.582   7.586 -0.3206  1.0946  0.4984
   10SAPS   C36 1291   1.338   2.724   7.707 -0.0445 -0.2100 -0.0443
   10SAPS   H6X 1292   1.250   2.792   7.715 -0.2141 -0.1833 -1.8383
   10SAPS   H6Y 1293   1.426   2.789   7.689 -0.9359  1.0842  0.1911
   10SAPS   C37 1294   1.347   2.638   7.835  0.5309 -0.3423  0.4265
   10SAPS   H7X 1295   1.435   2.573   7.813  0.5214 -0.1999 -0.0276
   10SAPS   H7Y 1296   1.257   2.575   7.849  1.5371 -2.3759 -1.7933
   10SAPS   C38 1297   1.378   2.723   7.960  0.3457  0.6200  0.9146
   10SAPS   H8X 1298   1.482   2.760   7.967  1.2124 -1.3614 -0.6063
   10SAPS   H8Y 1299   1.369   2.653   8.046  0.3093 -0.3634  0.1336
   10SAPS   C39 1300   1.269   2.829   7.978 -0.0489  0.3225 -0.4441
   10SAPS   H9X 1301   1.168   2.783   7.979  0.5623 -1.0592 -1.3175
   10SAPS   H9Y 1302   1.284   2.894   7.889  0.4132  0.0520 -0.5655
   10SAPS  C310 1303   1.282   2.922   8.097 -0.1173 -0.0266 -0.1922
   10SAPS  H10X 1304   1.378   2.978   8.087  0.7976 -0.9564  2.7139
   10SAPS  H10Y 1305   1.291   2.862   8.191  0.4275 -0.8641 -0.7656
   10SAPS  C311 1306   1.160   3.009   8.111 -0.2716 -0.0990 -0.1466
   10SAPS  H11X 1307   1.072   2.943   8.119 -0.9204  0.6504 -1.0165
   10SAPS  H11Y 1308   1.154   3.077   8.024 -3.1911  0.1893  0.2479
   10SAPS  C312 1309   1.175   3.097   8.241  0.0355 -1.5330 -0.2252
   10SAPS  H12X 1310   1.273   3.148   8.243 -0.6988 -0.0718 -0.2465
   10SAPS  H12Y 1311   1.183   3.028   8.327 -1.2672 -0.4830  0.7584
   10SAPS  C313 1312   1.051   3.187   8.261 -0.7465 -0.3052 -0.4591
   10SAPS  H13X 1313   0.964   3.119   8.252  0.0247 -1.3808  0.2047
   10SAPS  H13Y 1314   1.046   3.261   8.177  0.8374  0.3677  0.0231
   10SAPS  C314 1315   1.060   3.273   8.386  0.1892  0.5432  0.7596
   10SAPS  H14X 1316   0.956   3.309   8.402  0.4125  0.9445  1.2930
   10SAPS  H14Y 1317   1.135   3.350   8.358 -0.2860  0.5731 -0.4825
   10SAPS  C315 1318   1.123   3.202   8.508  0.6061 -0.0214 -0.2678
   10SAPS  H15X 1319   1.216   3.151   8.474  0.0074 -0.5690 -1.1406
   10SAPS  H15Y 1320   1.064   3.116   8.548 -2.0115  2.7647  2.0681
   10SAPS  C316 1321   1.148   3.295   8.623 -0.1137  0.2787  0.1043
   10SAPS  H16X 1322   1.199   3.391   8.598  1.2891 -0.2072  0.9858
   10SAPS  H16Y 1323   1.239   3.262   8.679 -0.4859 -0.8159  0.0554
   10SAPS  C317 1324   1.031   3.324   8.724 -0.3238  0.3276  0.4289
   10SAPS  H17X 1325   1.001   3.234   8.783 -0.3780  0.5860  0.7931
   10SAPS  H17Y 1326   0.945   3.370   8.671  0.0120  2.1271  1.4028
   10SAPS  C318 1327   1.070   3.429   8.831  0.4235 -0.5057 -0.5280
   10SAPS  H18X 1328   1.054   3.537   8.809  0.8597 -0.8702 -2.6947
   10SAPS  H18Y 1329   1.178   3.414   8.856 -0.1498 -1.0287  1.7339
   10SAPS  H18Z 1330   1.011   3.417   8.925 -1.7370  1.6922 -1.5591
   11SAPS     N 1331   2.084   6.207   5.864 -0.4576 -0.2129 -0.7115
   11SAPS   HN1 1332   2.053   6.162   5.953 -0.1433 -0.5853 -0.7854
   11SAPS   HN2 1333   2.178   6.249   5.882 -1.0992  1.5847 -1.4938
   11SAPS   HN3 1334   2.018   6.286   5.847  1.5236  1.6157 -0.1313
   11SAPS   C12 1335   2.077   6.099   5.766  0.1188 -0.6724 -0.7033
   11SAPS  H12A 1336   1.971   6.084   5.758 -0.6214  4.2269 -1.3345
   11SAPS   C13 1337   2.115   6.139   5.620  0.1833  0.9947  0.0471
   11SAPS  O13A 1338   2.176   6.248   5.599 -0.1453 -0.0883 -0.0643
   11SAPS  O13B 1339   2.081   6.062   5.521  0.7464  0.3135  0.0548
   11SAPS   C11 1340   2.156   5.971   5.815 -0.2102 -1.3021  0.1282
   11SAPS  H11A 1341   2.262   6.003   5.806 -0.4910 -0.2927  0.2505
   11SAPS  H11B 1342   2.148   5.891   5.739  0.0675 -1.1139 -0.1030
   11SAPS     P 1343   2.055   5.800   5.985  0.1491  0.0075  0.1530
   11SAPS   O13 1344   1.977   5.824   6.112 -0.0175  0.2253 -0.2480
   11SAPS   O14 1345   1.971   5.748   5.877  0.5803 -0.2548 -0.1037
   11SAPS   O12 1346   2.123   5.942   5.951 -0.4604  0.2393 -0.4103
   11SAPS   O11 1347   2.171   5.704   6.018  0.0289 -0.0148  0.4387
   11SAPS    C1 1348   2.301   5.690   5.983 -0.1969  0.3000 -0.2957
   11SAPS    HA 1349   2.306   5.580   5.987  2.3524  0.4057  0.2208
   11SAPS    HB 1350   2.334   5.725   5.882  0.9874 -1.5030 -0.5476
   11SAPS    C2 1351   2.393   5.761   6.096  0.2231 -0.6153  0.4705
   11SAPS    HS 1352   2.479   5.693   6.120  0.5678 -1.0609 -1.9161
   11SAPS   O21 1353   2.319   5.795   6.212  0.0383 -0.3330  0.1722
   11SAPS   C21 1354   2.288   5.699   6.296  0.3548 -0.3144 -0.2143
   11SAPS   O22 1355   2.316   5.576   6.296  0.0922 -0.2461 -0.2192
   11SAPS   C22 1356   2.198   5.776   6.401 -0.1373  0.1765  0.1748
   11SAPS   H2R 1357   2.248   5.866   6.441  0.7284 -0.6713  1.0334
   11SAPS   H2S 1358   2.101   5.804   6.353  0.8045  0.1617 -1.7787
   11SAPS    C3 1359   2.455   5.883   6.030 -0.4514  0.1847  0.7341
   11SAPS    HX 1360   2.376   5.960   6.016  0.1750  1.1225  2.2937
   11SAPS    HY 1361   2.491   5.863   5.926  0.0538 -0.1868  0.9801
   11SAPS   O31 1362   2.565   5.932   6.102 -0.6748 -0.5077 -0.2063
   11SAPS   C31 1363   2.564   6.057   6.141  0.6068 -0.6686  1.0691
   11SAPS   O32 1364   2.469   6.135   6.122 -0.8164  0.2145 -0.3440
   11SAPS   C32 1365   2.701   6.092   6.206 -0.0869  0.0707  0.2219
   11SAPS   H2X 1366   2.716   6.202   6.211  0.0485  0.0004  1.9162
   11SAPS   H2Y 1367   2.772   6.044   6.136 -0.6293  0.3942 -0.5525
   11SAPS   C23 1368   2.136   5.681   6.510 -1.1592 -0.6273 -0.1570
   11SAPS   H3R 1369   2.219   5.650   6.578 -0.5881 -0.0784 -0.5973
   11SAPS   H3S 1370   2.082   5.601   6.455 -2.5392  0.6882 -0.7276
   11SAPS   C24 1371   2.020   5.741   6.586 -0.5910 -0.2178  0.6458
   11SAPS   H4R 1372   1.994   5.664   6.662  1.0048 -0.0541  1.3679
   11SAPS   H4S 1373   1.931   5.757   6.522 -1.2074 -1.5337  1.1469
   11SAPS   C25 1374   2.045   5.871   6.652 -0.0224  0.2594  0.9985
   11SAPS   H5R 1375   2.039   5.961   6.589 -2.9925 -0.4735  0.1580
   11SAPS   C26 1376   2.082   5.888   6.777  0.1272  0.1162  0.5484
   11SAPS   H6R 1377   2.080   5.993   6.812  3.4599  0.2450  0.5214
   11SAPS   C27 1378   2.099   5.772   6.878  0.6602  0.1597 -0.7820
   11SAPS   H7R 1379   2.193   5.792   6.934 -0.2836 -1.3197  1.3703
   11SAPS   H7S 1380   2.101   5.672   6.831 -2.5953  0.5417 -1.8600
   11SAPS   C28 1381   1.992   5.787   6.981 -0.0683  0.1442  0.6279
   11SAPS   H8R 1382   1.897   5.750   6.940 -1.5087  0.8580  3.1808
   11SAPS   C29 1383   1.995   5.815   7.112  0.1678  0.4548  0.1552
   11SAPS   H9R 1384   1.902   5.815   7.172 -0.0174 -1.1617 -0.1100
   11SAPS  C210 1385   2.116   5.842   7.194 -0.3427  0.1848 -0.2349
   11SAPS  H10R 1386   2.089   5.910   7.278 -1.6600  2.1253 -2.1640
   11SAPS  H10S 1387   2.186   5.904   7.134  0.0074  1.1779  1.1653
   11SAPS  C211 1388   2.189   5.723   7.256  0.3519  0.3918 -0.9873
   11SAPS  H11R 1389   2.221   5.642   7.188  2.5725  0.2550  0.1713
   11SAPS  C212 1390   2.230   5.718   7.383 -0.6319 -0.2274 -0.6518
   11SAPS  H12R 1391   2.291   5.630   7.406 -0.7312  0.2139  1.3854
   11SAPS  C213 1392   2.222   5.820   7.500 -0.1435 -0.0915 -0.7178
   11SAPS  H13R 1393   2.120   5.865   7.505 -0.3976 -0.5900 -1.4305
   11SAPS  H13S 1394   2.294   5.902   7.480  0.3614 -0.9254 -2.3994
   11SAPS  C214 1395   2.262   5.760   7.636  0.0921 -0.1968 -0.1396
   11SAPS  H14R 1396   2.371   5.751   7.644  0.3994  1.4075 -2.1584
   11SAPS  C215 1397   2.177   5.720   7.732 -0.2869 -0.0403  0.8861
   11SAPS  H15R 1398   2.214   5.672   7.824 -0.4781 -1.1076  0.4180
   11SAPS  C216 1399   2.026   5.722   7.711 -0.0820  0.0928 -0.3997
   11SAPS  H16R 1400   2.009   5.704   7.603  1.0359  0.1380 -0.5919
   11SAPS  H16S 1401   1.979   5.814   7.751  0.2379 -0.7256  1.9728
   11SAPS  C217 1402   1.956   5.596   7.772 -0.1278  0.5508 -0.0026
   11SAPS  H17R 1403   2.030   5.514   7.781 -0.3658  0.4663  1.3283
   11SAPS  H17S 1404   1.865   5.565   7.716  1.8558 -0.2776 -2.8686
   11SAPS  C218 1405   1.924   5.611   7.921  0.0704  0.1786  0.0185
   11SAPS  H18R 1406   1.860   5.528   7.960 -1.3428  0.2038 -2.1716
   11SAPS  H18S 1407   1.863   5.703   7.930 -0.0940 -0.0683  1.7018
   11SAPS  C219 1408   2.045   5.612   8.012 -0.4757  0.2641  0.2457
   11SAPS  H19R 1409   2.094   5.710   7.993 -0.0293  0.3643  1.8546
   11SAPS  H19S 1410   2.114   5.530   7.981  0.6083  0.9547  0.7938
   11SAPS  C220 1411   2.006   5.605   8.161  0.3447  0.1172 -0.3278
   11SAPS  H20R 1412   1.942   5.689   8.195 -3.5048 -2.7951 -0.0244
   11SAPS  H20S 1413   2.099   5.587   8.218 -0.3219 -0.9772  0.4577
   11SAPS  H20T 1414   1.939   5.516   8.169 -0.1496  0.5187  0.0229
   11SAPS   C33 1415   2.697   6.043   6.351 -0.3125  0.2819 -0.6156
   11SAPS   H3X 1416   2.787   6.086   6.400  0.1177 -1.2422 -0.0682
   11SAPS   H3Y 1417   2.679   5.934   6.356 -0.5826  0.3946  1.3203
   11SAPS   C34 1418   2.591   6.113   6.439 -0.1129 -1.0226 -0.0108
   11SAPS   H4X 1419   2.488   6.110   6.397 -0.7724  0.2853  1.4747
   11SAPS   H4Y 1420   2.607   6.223   6.432 -0.3340 -1.0906 -1.9662
   11SAPS   C35 1421   2.606   6.081   6.586 -0.2883 -0.3521  0.4151
   11SAPS   H5X 1422   2.716   6.063   6.593 -0.1873  0.0595 -0.0944
   11SAPS   H5Y 1423   2.572   5.976   6.602  1.5852 -0.9984  0.3240
   11SAPS   C36 1424   2.540   6.181   6.680 -0.1011 -0.0493 -0.3929
   11SAPS   H6X 1425   2.437   6.208   6.648 -0.6531 -0.1642  1.2167
   11SAPS   H6Y 1426   2.588   6.280   6.668 -0.4224  0.1737  0.1042
   11SAPS   C37 1427   2.545   6.133   6.825  0.3032 -0.6533  0.5707
   11SAPS   H7X 1428   2.509   6.212   6.893  1.7038  0.0943  0.4578
   11SAPS   H7Y 1429   2.649   6.108   6.855  0.0888  1.7630  3.4954
   11SAPS   C38 1430   2.448   6.010   6.842 -0.9053 -0.0729 -0.4329
   11SAPS   H8X 1431   2.479   5.923   6.779  0.0908 -0.4252  0.5204
   11SAPS   H8Y 1432   2.353   6.053   6.804 -0.2112  2.8976  1.0072
   11SAPS   C39 1433   2.448   5.958   6.988  0.2472 -0.4016  0.2865
   11SAPS   H9X 1434   2.372   5.877   6.994 -0.5712  0.2587 -0.8724
   11SAPS   H9Y 1435   2.407   6.040   7.050  1.2634 -0.1689  0.6561
   11SAPS  C310 1436   2.580   5.901   7.029 -0.3780 -0.6567 -0.4888
   11SAPS  H10X 1437   2.652   5.985   7.034 -1.0022 -0.2396  1.8008
   11SAPS  H10Y 1438   2.620   5.819   6.965 -1.9506 -1.1337 -0.8949
   11SAPS  C311 1439   2.579   5.844   7.175 -0.3297 -0.0928  0.2132
   11SAPS  H11X 1440   2.675   5.793   7.199 -1.3514 -1.3108  1.8292
   11SAPS  H11Y 1441   2.501   5.765   7.172  0.3520 -0.7359 -0.6702
   11SAPS  C312 1442   2.563   5.956   7.277  0.3434  0.4567  0.7233
   11SAPS  H12X 1443   2.456   5.989   7.277 -0.2990 -1.5445  0.8200
   11SAPS  H12Y 1444   2.628   6.042   7.252  1.0812 -0.2323  0.2718
   11SAPS  C313 1445   2.604   5.903   7.417 -0.3680  0.0169  0.3591
   11SAPS  H13X 1446   2.707   5.861   7.424  0.4941  1.5376 -2.6500
   11SAPS  H13Y 1447   2.536   5.822   7.450 -0.2167 -1.0763 -1.8951
   11SAPS  C314 1448   2.615   6.006   7.529 -0.2927 -1.0303 -0.5679
   11SAPS  H14X 1449   2.517   6.051   7.555  0.7539  1.1577 -0.3181
   11SAPS  H14Y 1450   2.682   6.090   7.502 -1.7595 -0.0479 -1.2088
   11SAPS  C315 1451   2.655   5.942   7.662 -0.8576  0.4130  0.2068
   11SAPS  H15X 1452   2.763   5.919   7.667 -0.5360  1.4909 -1.2596
   11SAPS  H15Y 1453   2.600   5.846   7.663 -1.4097  0.7212  1.9388
   11SAPS  C316 1454   2.603   6.025   7.776 -0.8428 -0.0163 -0.8227
   11SAPS  H16X 1455   2.493   6.012   7.772 -0.7835 -0.0900 -3.3866
   11SAPS  H16Y 1456   2.625   6.134   7.764 -0.2739 -0.2470 -2.0420
   11SAPS  C317 1457   2.651   5.986   7.917  0.0484 -0.4408  0.3630
   11SAPS  H17X 1458   2.626   6.068   7.988 -0.9414  0.4191 -0.9727
   11SAPS  H17Y 1459   2.761   5.981   7.932  0.3391 -1.6010 -1.9522
   11SAPS  C318 1460   2.604   5.848   7.974 -0.3058 -0.2508 -0.1210
   11SAPS  H18X 1461   2.637   5.768   7.905  1.5415 -0.4406  0.9669
   11SAPS  H18Y 1462   2.493   5.835   7.971 -0.0957 -2.4891  0.9305
   11SAPS  H18Z 1463   2.635   5.826   8.078 -1.6627 -0.0313  0.3423
   12SAPS     N 1464   1.925   0.465   6.367  0.0871 -0.3343 -0.0286
   12SAPS   HN1 1465   1.843   0.529   6.369 -0.8778 -1.5461 -0.2785
   12SAPS   HN2 1466   1.938   0.408   6.453  0.4761  0.3063  0.3400
   12SAPS   HN3 1467   2.010   0.522   6.348  0.0607 -0.6083 -1.0047
   12SAPS   C12 1468   1.896   0.380   6.249 -0.0005 -0.1905 -0.4514
   12SAPS  H12A 1469   1.803   0.329   6.269 -0.0434 -0.2223 -0.7286
   12SAPS   C13 1470   1.866   0.459   6.117 -0.2343 -0.3304  0.0149
   12SAPS  O13A 1471   1.847   0.583   6.115  0.3842 -0.0310 -0.5916
   12SAPS  O13B 1472   1.836   0.385   6.019  0.3453  0.0099  0.9091
   12SAPS   C11 1473   2.008   0.277   6.242 -0.4257 -0.4406  0.5236
   12SAPS  H11A 1474   1.976   0.197   6.171 -0.9752  0.6827 -0.5010
   12SAPS  H11B 1475   2.032   0.244   6.346 -0.2067  1.8675  1.2268
   12SAPS     P 1476   2.248   0.247   6.182  0.1897  0.0393  0.0714
   12SAPS   O13 1477   2.224   0.099   6.155  0.1119 -0.4359 -0.9061
   12SAPS   O14 1478   2.333   0.316   6.085  0.6855  0.6735 -0.0131
   12SAPS   O12 1479   2.123   0.337   6.182  0.8317  0.5082  0.6862
   12SAPS   O11 1480   2.297   0.278   6.323  0.5531  0.6248  0.3408
   12SAPS    C1 1481   2.400   0.349   6.379  0.0314  0.7867  0.6863
   12SAPS    HA 1482   2.491   0.316   6.325 -0.4660 -1.2795  1.0625
   12SAPS    HB 1483   2.379   0.454   6.352 -0.6512  0.1101 -1.5173
   12SAPS    C2 1484   2.394   0.327   6.531 -0.0603  0.3921 -0.1130
   12SAPS    HS 1485   2.467   0.389   6.587  0.9878 -2.5753  1.9149
   12SAPS   O21 1486   2.415   0.189   6.549  0.6691  0.4249  0.0886
   12SAPS   C21 1487   2.477   0.144   6.654 -0.0707 -0.3699  0.4144
   12SAPS   O22 1488   2.543   0.215   6.731 -0.3941  0.5146 -0.0464
   12SAPS   C22 1489   2.460  -0.007   6.664  0.5405  0.1432 -0.5935
   12SAPS   H2R 1490   2.355  -0.044   6.669  0.9695 -0.9440  0.3864
   12SAPS   H2S 1491   2.494  -0.041   6.564  2.0780  1.1120 -0.4181
   12SAPS    C3 1492   2.256   0.362   6.598 -0.0011  0.0307 -0.3123
   12SAPS    HX 1493   2.174   0.311   6.542 -0.4281  1.8078 -1.3176
   12SAPS    HY 1494   2.242   0.472   6.594  2.1861  0.3182 -0.4162
   12SAPS   O31 1495   2.246   0.316   6.730 -0.0510  0.0079 -0.8420
   12SAPS   C31 1496   2.294   0.394   6.820 -0.1586  0.2632  0.1909
   12SAPS   O32 1497   2.347   0.498   6.794 -0.5696  0.6636 -0.2508
   12SAPS   C32 1498   2.257   0.330   6.959 -0.1118  0.5587  0.1067
   12SAPS   H2X 1499   2.349   0.276   6.990 -0.0850 -0.9657 -2.4500
   12SAPS   H2Y 1500   2.175   0.257   6.941  3.0961 -3.2103  0.2098
   12SAPS   C23 1501   2.557  -0.068   6.778 -0.3731  0.1282 -0.5638
   12SAPS   H3R 1502   2.531  -0.015   6.872  1.7146  1.7395 -0.8582
   12SAPS   H3S 1503   2.666  -0.051   6.762  0.5813 -4.4432  0.2872
   12SAPS   C24 1504   2.529  -0.222   6.793 -0.2752  0.2751  0.0588
   12SAPS   H4R 1505   2.526  -0.266   6.691  0.8120 -0.1337  0.2010
   12SAPS   H4S 1506   2.431  -0.233   6.844 -1.7897  4.3441 -1.7756
   12SAPS   C25 1507   2.630  -0.300   6.878 -0.8951 -0.1180 -0.3001
   12SAPS   H5R 1508   2.732  -0.306   6.836 -0.7481 -0.8233  0.1523
   12SAPS   C26 1509   2.616  -0.375   6.991 -0.1625 -0.2310  1.1537
   12SAPS   H6R 1510   2.705  -0.419   7.039  2.2954  1.1954 -1.9354
   12SAPS   C27 1511   2.478  -0.385   7.061 -1.2513 -0.1523 -0.1515
   12SAPS   H7R 1512   2.396  -0.420   6.996 -1.3729 -0.1493  0.0019
   12SAPS   H7S 1513   2.447  -0.282   7.089 -1.5892  0.0836 -1.3584
   12SAPS   C28 1514   2.493  -0.479   7.173  0.4853  0.1583  0.0470
   12SAPS   H8R 1515   2.514  -0.583   7.142  1.0466  0.6219 -1.1404
   12SAPS   C29 1516   2.464  -0.458   7.304  0.2141 -0.3636 -0.4466
   12SAPS   H9R 1517   2.483  -0.540   7.374  3.8571 -0.9739 -2.0463
   12SAPS  C210 1518   2.423  -0.331   7.370  0.4132  0.4412  0.4454
   12SAPS  H10R 1519   2.344  -0.366   7.440 -1.1074  1.0871 -0.9064
   12SAPS  H10S 1520   2.379  -0.256   7.301 -0.1644  0.4760  0.8504
   12SAPS  C211 1521   2.543  -0.266   7.433 -0.1353  0.0195  0.0073
   12SAPS  H11R 1522   2.614  -0.237   7.355 -3.0225  0.0537 -2.6986
   12SAPS  C212 1523   2.564  -0.246   7.564  0.0248  0.0028 -0.0050
   12SAPS  H12R 1524   2.662  -0.206   7.594  0.8253 -1.1970 -0.9675
   12SAPS  C213 1525   2.472  -0.276   7.678  0.0122 -0.9328  0.2618
   12SAPS  H13R 1526   2.507  -0.357   7.746 -1.1399 -0.8125  1.0183
   12SAPS  H13S 1527   2.384  -0.317   7.625  0.6677 -0.6259 -1.0819
   12SAPS  C214 1528   2.432  -0.157   7.764 -0.4899  0.4807 -0.6580
   12SAPS  H14R 1529   2.450  -0.062   7.712  0.6376  0.6580  0.0383
   12SAPS  C215 1530   2.393  -0.162   7.897 -0.7336 -1.2267 -0.2374
   12SAPS  H15R 1531   2.369  -0.071   7.955 -1.6804 -1.0683 -0.8720
   12SAPS  C216 1532   2.379  -0.286   7.983  0.2390 -0.6395  0.3857
   12SAPS  H16R 1533   2.411  -0.377   7.927 -0.1641  1.2572 -3.1149
   12SAPS  H16S 1534   2.275  -0.307   8.014 -0.5317  2.8481  0.3242
   12SAPS  C217 1535   2.483  -0.285   8.100  0.0843  0.1566 -0.3578
   12SAPS  H17R 1536   2.447  -0.222   8.184  0.4439  0.5808 -0.5200
   12SAPS  H17S 1537   2.588  -0.255   8.077  0.0845  0.3175 -0.1450
   12SAPS  C218 1538   2.481  -0.423   8.175  0.0691 -0.2078  0.8859
   12SAPS  H18R 1539   2.518  -0.502   8.107 -0.6044 -0.5986  0.9755
   12SAPS  H18S 1540   2.378  -0.458   8.196 -0.3658  1.1452  1.0473
   12SAPS  C219 1541   2.566  -0.434   8.296 -0.5712 -0.2630 -0.5426
   12SAPS  H19R 1542   2.671  -0.408   8.270 -0.6373 -1.7605 -2.3896
   12SAPS  H19S 1543   2.568  -0.542   8.321  0.7757 -0.4038 -1.2109
   12SAPS  C220 1544   2.509  -0.368   8.414 -0.9743 -0.7047 -0.6175
   12SAPS  H20R 1545   2.578  -0.370   8.501 -0.6225 -0.9672 -0.9043
   12SAPS  H20S 1546   2.406  -0.402   8.439 -1.8720  2.3776  0.1456
   12SAPS  H20T 1547   2.491  -0.261   8.387 -0.2407 -0.9786 -2.2461
   12SAPS   C33 1548   2.224   0.428   7.079  0.2430  0.1585  0.2134
   12SAPS   H3X 1549   2.305   0.504   7.080 -0.1098  0.5642 -0.8009
   12SAPS   H3Y 1550   2.214   0.361   7.167 -0.3368  2.6412  2.0730
   12SAPS   C34 1551   2.092   0.503   7.061 -0.2837 -0.5027  0.4980
   12SAPS   H4X 1552   2.007   0.434   7.043 -3.4822  3.6874 -1.4468
   12SAPS   H4Y 1553   2.091   0.572   6.973  0.6104 -1.6548 -0.4401
   12SAPS   C35 1554   2.075   0.606   7.179  0.1377  0.0256  0.4917
   12SAPS   H5X 1555   1.974   0.650   7.163  0.0244  0.1250  1.4534
   12SAPS   H5Y 1556   2.151   0.687   7.172  0.3683 -0.1385  1.0509
   12SAPS   C36 1557   2.066   0.541   7.321 -0.2347 -0.6794  0.5523
   12SAPS   H6X 1558   2.171   0.524   7.353  1.0611  0.8210 -2.6207
   12SAPS   H6Y 1559   2.022   0.440   7.312 -0.2951 -0.6776  0.8157
   12SAPS   C37 1560   2.007   0.638   7.419  0.4898 -0.5969 -0.2870
   12SAPS   H7X 1561   1.900   0.643   7.390  0.8852 -0.4361 -1.7615
   12SAPS   H7Y 1562   2.054   0.739   7.415  0.9238 -0.8442 -1.5536
   12SAPS   C38 1563   2.025   0.589   7.566  0.2564 -0.3149 -0.3540
   12SAPS   H8X 1564   2.129   0.621   7.591 -0.2926  2.6754 -1.7223
   12SAPS   H8Y 1565   2.014   0.479   7.562 -0.9063 -0.1848 -0.7844
   12SAPS   C39 1566   1.938   0.658   7.660 -0.4143  0.3163  0.2118
   12SAPS   H9X 1567   1.835   0.615   7.667  0.2384 -1.2051  0.8575
   12SAPS   H9Y 1568   1.922   0.765   7.635 -0.1549  0.1218 -0.7806
   12SAPS  C310 1569   2.006   0.638   7.806  0.0744 -0.5783  0.5459
   12SAPS  H10X 1570   2.097   0.700   7.791  0.6698 -1.1452  1.7325
   12SAPS  H10Y 1571   2.032   0.533   7.831 -0.3398 -0.5034  1.3111
   12SAPS  C311 1572   1.928   0.692   7.923  0.3747  0.0934  0.8244
   12SAPS  H11X 1573   1.828   0.645   7.924  0.3222  0.1964  0.5085
   12SAPS  H11Y 1574   1.914   0.802   7.916 -1.6934 -0.1761  0.3155
   12SAPS  C312 1575   2.000   0.672   8.063  0.2186 -0.7326  0.1092
   12SAPS  H12X 1576   2.042   0.569   8.059 -1.0678 -1.3341  1.1322
   12SAPS  H12Y 1577   1.917   0.685   8.137 -0.4080 -2.9755 -0.1600
   12SAPS  C313 1578   2.115   0.774   8.080 -0.2259  1.0318  0.0332
   12SAPS  H13X 1579   2.083   0.880   8.076  0.1739  1.1681  0.4132
   12SAPS  H13Y 1580   2.177   0.756   7.990 -1.6478 -0.1400 -0.7303
   12SAPS  C314 1581   2.193   0.753   8.209  0.5954  0.1523  0.2993
   12SAPS  H14X 1582   2.206   0.645   8.230 -0.1273 -0.4140 -2.0002
   12SAPS  H14Y 1583   2.146   0.793   8.301  1.3339 -1.5688  1.4482
   12SAPS  C315 1584   2.333   0.816   8.194  0.0482  0.7347 -0.0190
   12SAPS  H15X 1585   2.329   0.925   8.175  0.2198  0.9787  1.3290
   12SAPS  H15Y 1586   2.383   0.759   8.113  0.8928 -0.8327  1.5671
   12SAPS  C316 1587   2.414   0.806   8.331  0.6909 -0.5241  0.0758
   12SAPS  H16X 1588   2.356   0.864   8.405  1.3996  0.5410 -0.1741
   12SAPS  H16Y 1589   2.514   0.853   8.314 -0.1626  0.6282 -2.0942
   12SAPS  C317 1590   2.435   0.660   8.380  0.0523  0.6496 -0.1886
   12SAPS  H17X 1591   2.469   0.600   8.294 -1.9734 -1.8905  0.7133
   12SAPS  H17Y 1592   2.335   0.615   8.397  0.1489  0.6501  0.4259
   12SAPS  C318 1593   2.533   0.648   8.495 -1.2556 -0.2516  0.1327
   12SAPS  H18X 1594   2.549   0.542   8.521  0.9438 -0.6338 -2.5047
   12SAPS  H18Y 1595   2.515   0.726   8.572 -2.4977  0.2205 -0.6314
   12SAPS  H18Z 1596   2.630   0.681   8.450 -0.0607 -1.5148  1.7316
   13SAPS     N 1597   2.063   4.897   6.013  0.3141  0.4576 -0.8621
   13SAPS   HN1 1598   2.013   4.936   5.930 -0.0501 -0.0299 -0.8719
   13SAPS   HN2 1599   1.995   4.873   6.087 -0.0213 -2.0755 -1.9639
   13SAPS   HN3 1600   2.130   4.971   6.044  0.1945  0.6071 -0.9611
   13SAPS   C12 1601   2.144   4.787   5.967  0.5853 -0.2967  0.4033
   13SAPS  H12A 1602   2.134   4.699   6.028  1.6078 -1.1496 -0.6247
   13SAPS   C13 1603   2.109   4.734   5.825 -0.5660 -0.2442  0.6355
   13SAPS  O13A 1604   2.001   4.765   5.772 -0.2812  0.0855 -0.0016
   13SAPS  O13B 1605   2.179   4.629   5.792 -0.1646 -0.2422  0.0693
   13SAPS   C11 1606   2.288   4.828   5.961 -0.4832 -0.0578 -0.5127
   13SAPS  H11A 1607   2.302   4.927   5.912 -0.9744  0.2173 -0.1026
   13SAPS  H11B 1608   2.353   4.761   5.900  1.9649  2.1053 -0.3553
   13SAPS     P 1609   2.492   4.847   6.122 -0.6564  0.3497 -0.3733
   13SAPS   O13 1610   2.558   4.726   6.062 -0.9380 -0.5446 -0.0766
   13SAPS   O14 1611   2.534   4.975   6.070 -0.5027  0.0540  0.4869
   13SAPS   O12 1612   2.333   4.843   6.094 -0.0024 -0.1629 -0.5175
   13SAPS   O11 1613   2.512   4.849   6.278  0.4524  0.4125  0.6391
   13SAPS    C1 1614   2.554   4.726   6.336  0.0371 -0.4908 -0.7289
   13SAPS    HA 1615   2.639   4.675   6.287  1.0133  0.7512 -0.3566
   13SAPS    HB 1616   2.593   4.742   6.439  0.7168 -1.5590 -0.8090
   13SAPS    C2 1617   2.427   4.637   6.367 -0.0804  0.0300  0.2392
   13SAPS    HS 1618   2.361   4.626   6.278 -1.4613  0.9523  1.1501
   13SAPS   O21 1619   2.354   4.690   6.473 -0.2811 -0.3730 -0.2325
   13SAPS   C21 1620   2.234   4.643   6.499 -0.4102  0.0025 -0.3583
   13SAPS   O22 1621   2.175   4.554   6.437 -0.5101 -0.4240 -0.0951
   13SAPS   C22 1622   2.174   4.726   6.617 -0.0208  0.1354 -0.1610
   13SAPS   H2R 1623   2.213   4.827   6.593  2.4869 -0.5728  0.8072
   13SAPS   H2S 1624   2.063   4.722   6.605  0.3273 -2.0504 -3.2356
   13SAPS    C3 1625   2.470   4.497   6.397 -0.1843  0.0346  0.0593
   13SAPS    HX 1626   2.552   4.479   6.324 -1.3405  1.1079 -1.5115
   13SAPS    HY 1627   2.387   4.424   6.384 -0.6140  0.5489 -0.1090
   13SAPS   O31 1628   2.541   4.478   6.522 -0.2331  0.2078  0.7165
   13SAPS   C31 1629   2.471   4.431   6.626  0.1561  0.7402  0.6685
   13SAPS   O32 1630   2.351   4.407   6.618  0.3001 -0.3203  0.2851
   13SAPS   C32 1631   2.563   4.430   6.753 -0.1617  0.0573 -0.2840
   13SAPS   H2X 1632   2.634   4.515   6.746 -0.4202  0.3049  0.1149
   13SAPS   H2Y 1633   2.634   4.346   6.738  0.8427  0.5333  1.7452
   13SAPS   C23 1634   2.217   4.666   6.755 -0.3560  0.3942  0.2304
   13SAPS   H3R 1635   2.328   4.663   6.753 -0.3949  0.0101 -1.5744
   13SAPS   H3S 1636   2.185   4.559   6.758 -0.0369  0.2559 -1.1233
   13SAPS   C24 1637   2.171   4.746   6.875 -1.1860 -0.3118  0.1715
   13SAPS   H4R 1638   2.216   4.848   6.875  1.5207 -1.4423  1.4241
   13SAPS   H4S 1639   2.212   4.685   6.958 -1.1305 -0.6380 -0.0938
   13SAPS   C25 1640   2.020   4.732   6.888  0.2827  0.2798  0.5946
   13SAPS   H5R 1641   1.964   4.731   6.793  2.5587  0.1227 -0.7702
   13SAPS   C26 1642   1.947   4.731   7.003 -0.3202 -0.2725  0.4162
   13SAPS   H6R 1643   1.839   4.712   7.002 -0.1095 -1.4939 -1.4118
   13SAPS   C27 1644   2.005   4.739   7.138 -0.3279  0.2791 -0.6814
   13SAPS   H7R 1645   1.960   4.831   7.181  0.0837  1.0442 -1.8410
   13SAPS   H7S 1646   2.114   4.759   7.141 -0.4012  0.4073  1.6024
   13SAPS   C28 1647   1.959   4.635   7.234 -0.1159  0.4535 -0.4452
   13SAPS   H8R 1648   1.870   4.661   7.294 -1.3137  0.0738 -2.0451
   13SAPS   C29 1649   2.009   4.515   7.257 -0.3401  0.2972 -0.0068
   13SAPS   H9R 1650   1.978   4.469   7.352  1.4341  0.7666  0.8278
   13SAPS  C210 1651   2.129   4.448   7.193 -0.1530 -0.6894  0.2635
   13SAPS  H10R 1652   2.199   4.444   7.279  0.0795  3.3360  0.3742
   13SAPS  H10S 1653   2.166   4.524   7.120 -0.9815 -0.2736  0.2750
   13SAPS  C211 1654   2.090   4.316   7.138  0.1780  0.7785 -0.4282
   13SAPS  H11R 1655   2.075   4.306   7.029  0.0252  1.5963 -0.4824
   13SAPS  C212 1656   2.075   4.200   7.204  0.3398  0.1714  0.4904
   13SAPS  H12R 1657   2.038   4.105   7.161 -1.8021  0.7774  0.9139
   13SAPS  C213 1658   2.100   4.180   7.355  0.2494 -0.0779 -0.5651
   13SAPS  H13R 1659   2.097   4.275   7.413 -0.2551 -0.5505  0.2054
   13SAPS  H13S 1660   2.204   4.144   7.369  0.3307 -0.3954 -1.9159
   13SAPS  C214 1661   1.998   4.092   7.424 -0.3400 -0.2540  0.6317
   13SAPS  H14R 1662   1.931   4.042   7.351  1.1025  0.3054 -1.1163
   13SAPS  C215 1663   1.971   4.083   7.553  0.6696 -0.3385 -0.0253
   13SAPS  H15R 1664   1.896   4.012   7.588 -0.5468  0.6347 -0.6222
   13SAPS  C216 1665   2.033   4.160   7.664  0.0974 -0.4644  0.1072
   13SAPS  H16R 1666   2.114   4.232   7.639 -3.2172  3.5789  0.3450
   13SAPS  H16S 1667   2.085   4.099   7.741  0.3807  0.5324  0.7264
   13SAPS  C217 1668   1.925   4.254   7.731  0.5111 -0.2027  0.2912
   13SAPS  H17R 1669   1.830   4.201   7.754 -0.1235  1.5037  1.7117
   13SAPS  H17S 1670   1.904   4.335   7.658  0.8199 -0.6316 -0.2724
   13SAPS  C218 1671   1.978   4.325   7.855  0.7029  0.3098  0.1679
   13SAPS  H18R 1672   2.041   4.409   7.819 -1.0097  0.6819 -2.0467
   13SAPS  H18S 1673   2.043   4.263   7.920 -0.3204 -0.0427  0.8605
   13SAPS  C219 1674   1.870   4.391   7.937 -0.2299  0.3678  0.2468
   13SAPS  H19R 1675   1.806   4.312   7.979 -0.0774  0.8144  1.3360
   13SAPS  H19S 1676   1.816   4.467   7.876 -0.3912  2.3815  2.8365
   13SAPS  C220 1677   1.936   4.450   8.057 -0.4258  1.1131  0.3435
   13SAPS  H20R 1678   1.863   4.486   8.133 -0.4777  0.4062  0.6252
   13SAPS  H20S 1679   2.010   4.529   8.032 -0.0735  0.5229 -0.4937
   13SAPS  H20T 1680   1.986   4.367   8.111 -1.2696 -0.6837 -1.5351
   13SAPS   C33 1681   2.488   4.419   6.884  0.3689 -0.2228  0.0232
   13SAPS   H3X 1682   2.413   4.337   6.876 -0.1664  0.3316 -0.7857
   13SAPS   H3Y 1683   2.422   4.506   6.904 -2.0864 -2.1088  0.4283
   13SAPS   C34 1684   2.576   4.392   7.008 -0.2831  0.2923  0.2603
   13SAPS   H4X 1685   2.652   4.471   7.025  1.4768  0.2139 -6.0537
   13SAPS   H4Y 1686   2.637   4.301   6.991  0.0849  0.5594  0.1572
   13SAPS   C35 1687   2.493   4.373   7.139 -1.0405 -0.2652 -0.1615
   13SAPS   H5X 1688   2.411   4.298   7.136 -1.2027 -0.0949  0.0515
   13SAPS   H5Y 1689   2.430   4.464   7.144  0.6515  1.0013 -1.1678
   13SAPS   C36 1690   2.570   4.343   7.265 -0.0553  0.3212 -0.8907
   13SAPS   H6X 1691   2.654   4.413   7.283  0.6505  0.0797 -2.9872
   13SAPS   H6Y 1692   2.624   4.247   7.247  2.1365  1.7276 -2.0016
   13SAPS   C37 1693   2.465   4.344   7.377  0.7735 -0.4887  0.0508
   13SAPS   H7X 1694   2.381   4.281   7.338  1.2296 -1.6678  0.9150
   13SAPS   H7Y 1695   2.436   4.449   7.398  2.7651  0.1022 -0.1414
   13SAPS   C38 1696   2.507   4.280   7.506  0.2423 -0.0780 -0.5339
   13SAPS   H8X 1697   2.588   4.348   7.541  2.1643 -1.1017 -2.8375
   13SAPS   H8Y 1698   2.541   4.178   7.480 -1.1720 -0.5256 -0.6378
   13SAPS   C39 1699   2.412   4.262   7.626  0.2686  0.6126 -0.2660
   13SAPS   H9X 1700   2.340   4.180   7.604 -1.9685  2.5541 -0.3449
   13SAPS   H9Y 1701   2.364   4.360   7.645  0.1647  0.6305 -0.6242
   13SAPS  C310 1702   2.497   4.210   7.741  0.9668 -0.4348  0.8967
   13SAPS  H10X 1703   2.597   4.252   7.717  0.6035 -0.7754 -1.3125
   13SAPS  H10Y 1704   2.516   4.101   7.726  0.0430 -0.1392 -3.0937
   13SAPS  C311 1705   2.461   4.242   7.885  0.4901  0.1449  0.5502
   13SAPS  H11X 1706   2.437   4.351   7.891  1.4742  0.3373  1.2512
   13SAPS  H11Y 1707   2.556   4.233   7.943  2.0906  2.0119 -1.6847
   13SAPS  C312 1708   2.347   4.168   7.952 -0.3138  0.1566 -1.0751
   13SAPS  H12X 1709   2.351   4.059   7.931 -0.9729 -0.0873  0.0126
   13SAPS  H12Y 1710   2.251   4.213   7.919 -0.9607 -1.0446 -0.8356
   13SAPS  C313 1711   2.361   4.174   8.113  0.1775  0.5615 -0.0653
   13SAPS  H13X 1712   2.361   4.280   8.146  1.1195 -0.1419  2.3397
   13SAPS  H13Y 1713   2.456   4.122   8.141 -0.2094 -0.8732 -1.3445
   13SAPS  C314 1714   2.242   4.116   8.188 -0.3689  0.0225  0.3470
   13SAPS  H14X 1715   2.154   4.163   8.139  0.5838  2.5489  0.9774
   13SAPS  H14Y 1716   2.241   4.151   8.293 -0.2659 -0.1360  0.3991
   13SAPS  C315 1717   2.217   3.971   8.169 -0.2177 -0.1431 -0.0909
   13SAPS  H15X 1718   2.301   3.932   8.230 -0.6891 -0.9428  0.0669
   13SAPS  H15Y 1719   2.213   3.949   8.060  0.5827 -0.6701 -0.0127
   13SAPS  C316 1720   2.074   3.920   8.229 -0.3020 -0.1599  0.1667
   13SAPS  H16X 1721   2.058   3.955   8.333  2.8114  0.6766  0.4128
   13SAPS  H16Y 1722   2.074   3.809   8.230  0.1474 -0.1789 -0.7544
   13SAPS  C317 1723   1.956   3.958   8.131  0.3782 -0.2234  0.1445
   13SAPS  H17X 1724   1.982   3.941   8.025 -1.8676  1.1783 -0.6537
   13SAPS  H17Y 1725   1.945   4.068   8.137 -0.0946 -0.1539 -1.8073
   13SAPS  C318 1726   1.834   3.883   8.169  0.6207  0.1847 -0.0671
   13SAPS  H18X 1727   1.782   3.936   8.252 -0.2343  1.0323 -1.1212
   13SAPS  H18Y 1728   1.845   3.782   8.213 -0.2167  0.6768  1.3209
   13SAPS  H18Z 1729   1.767   3.871   8.081  0.1667  0.8215  0.1859
   14SAPS     N 1730   2.057   6.765   6.023  0.4116  0.0574 -0.4381
   14SAPS   HN1 1731   2.141   6.818   6.053 -0.6945  1.7161 -0.1932
   14SAPS   HN2 1732   2.029   6.824   5.942 -1.2634 -1.1589 -0.7622
   14SAPS   HN3 1733   1.984   6.770   6.097 -0.0289  0.6584 -0.9113
   14SAPS   C12 1734   2.084   6.626   5.979 -0.3291 -0.2212 -0.7889
   14SAPS  H12A 1735   2.111   6.570   6.067 -0.1187 -0.3413 -0.9281
   14SAPS   C13 1736   1.956   6.571   5.906  0.1640 -0.3358  0.3635
   14SAPS  O13A 1737   1.872   6.648   5.847 -0.1274 -0.1329 -0.4899
   14SAPS  O13B 1738   1.958   6.448   5.869  0.0985 -1.0255  0.2242
   14SAPS   C11 1739   2.206   6.617   5.885  0.3867  0.6984 -0.0899
   14SAPS  H11A 1740   2.177   6.674   5.794  0.6474  1.2724  0.1871
   14SAPS  H11B 1741   2.225   6.510   5.862 -0.5437  0.2174  1.3032
   14SAPS     P 1742   2.472   6.657   5.915  0.0280 -0.2933 -0.3053
   14SAPS   O13 1743   2.489   6.555   5.810 -0.1969  0.3050 -0.3637
   14SAPS   O14 1744   2.536   6.788   5.885 -0.2119  0.0967 -0.1567
   14SAPS   O12 1745   2.318   6.687   5.943 -0.5464 -0.1828 -0.1530
   14SAPS   O11 1746   2.531   6.595   6.056  0.7341  0.1657 -0.0649
   14SAPS    C1 1747   2.451   6.586   6.174 -0.1979 -0.1658 -0.1694
   14SAPS    HA 1748   2.344   6.585   6.143 -0.1683  1.2487 -0.3548
   14SAPS    HB 1749   2.474   6.487   6.220  2.2519 -0.6974 -2.4230
   14SAPS    C2 1750   2.469   6.701   6.274 -0.5003 -0.0695 -0.2647
   14SAPS    HS 1751   2.464   6.799   6.223 -3.5969 -1.3286 -2.5623
   14SAPS   O21 1752   2.575   6.675   6.370 -0.3748 -0.6912 -0.0674
   14SAPS   C21 1753   2.699   6.690   6.325  0.1073  0.0634 -0.4162
   14SAPS   O22 1754   2.732   6.716   6.211  0.1778  0.1032 -0.1999
   14SAPS   C22 1755   2.793   6.678   6.443 -0.0750  0.3047 -0.0823
   14SAPS   H2R 1756   2.740   6.657   6.539  0.3180  1.1480  0.3272
   14SAPS   H2S 1757   2.866   6.603   6.406  0.4045 -0.0085  1.4610
   14SAPS    C3 1758   2.329   6.720   6.350 -0.7205 -0.5350  0.1357
   14SAPS    HX 1759   2.247   6.729   6.276 -0.7187 -0.5216  0.1353
   14SAPS    HY 1760   2.330   6.815   6.408  1.6786 -1.8881  2.4000
   14SAPS   O31 1761   2.303   6.617   6.445 -0.4184 -0.3346  0.3376
   14SAPS   C31 1762   2.228   6.517   6.405  0.3964  0.3179  0.4384
   14SAPS   O32 1763   2.161   6.507   6.304  0.3677 -0.2543  0.2306
   14SAPS   C32 1764   2.253   6.400   6.502 -0.6263  0.2249 -0.2116
   14SAPS   H2X 1765   2.359   6.386   6.530 -1.4558 -0.6348  2.7087
   14SAPS   H2Y 1766   2.210   6.311   6.452  0.7616 -0.4889 -0.1514
   14SAPS   C23 1767   2.860   6.816   6.467 -0.0042  0.3922 -0.3213
   14SAPS   H3R 1768   2.781   6.892   6.488 -1.5472 -0.6119 -2.2750
   14SAPS   H3S 1769   2.924   6.843   6.381  1.4517 -0.9392  0.3310
   14SAPS   C24 1770   2.946   6.792   6.591 -0.2029  0.3277 -0.7337
   14SAPS   H4R 1771   3.028   6.728   6.552  2.1298  0.6630  3.4238
   14SAPS   H4S 1772   2.888   6.737   6.669 -0.5696 -1.0146 -1.9272
   14SAPS   C25 1773   2.997   6.923   6.653  0.5812 -0.2325  1.2253
   14SAPS   H5R 1774   3.058   6.967   6.572  1.5747 -0.7666  1.6697
   14SAPS   C26 1775   3.009   6.962   6.779  0.6002 -0.0858 -0.0890
   14SAPS   H6R 1776   3.039   7.067   6.793  1.6830 -0.4773  0.6171
   14SAPS   C27 1777   2.963   6.894   6.900 -0.1612 -0.1962 -0.7131
   14SAPS   H7R 1778   3.047   6.839   6.948 -0.5359 -1.0180 -0.9716
   14SAPS   H7S 1779   2.875   6.827   6.882 -0.3781  0.1745 -1.0360
   14SAPS   C28 1780   2.909   6.994   7.002 -0.1370 -0.8564  0.3949
   14SAPS   H8R 1781   2.883   7.095   6.968  0.4278 -0.4621  1.1309
   14SAPS   C29 1782   2.911   6.978   7.135  0.1942 -0.5593 -0.4747
   14SAPS   H9R 1783   2.885   7.065   7.197 -0.7961 -1.7400  0.7960
   14SAPS  C210 1784   2.968   6.856   7.212 -0.1841  1.5029  0.0340
   14SAPS  H10R 1785   3.056   6.889   7.271 -0.1077  0.0153  0.7646
   14SAPS  H10S 1786   3.011   6.781   7.142 -0.9792  0.1558  0.9630
   14SAPS  C211 1787   2.874   6.780   7.303 -0.0701 -0.1298  0.1062
   14SAPS  H11R 1788   2.826   6.696   7.252 -0.8502 -0.4076  1.2664
   14SAPS  C212 1789   2.838   6.801   7.433 -0.1727 -1.1224 -0.3157
   14SAPS  H12R 1790   2.764   6.738   7.483  2.2936 -3.4493  0.5480
   14SAPS  C213 1791   2.893   6.918   7.516 -0.1324 -0.3746  0.6982
   14SAPS  H13R 1792   2.817   6.977   7.572  1.8458  2.2244  0.7513
   14SAPS  H13S 1793   2.942   6.991   7.448  0.9310 -0.6167  1.1901
   14SAPS  C214 1794   2.995   6.862   7.617  0.2819 -0.3754 -0.9569
   14SAPS  H14R 1795   3.097   6.843   7.580  0.2029  0.0731 -1.4017
   14SAPS  C215 1796   2.965   6.825   7.742  0.4525  0.1470  0.2268
   14SAPS  H15R 1797   3.035   6.765   7.802 -0.5603 -0.0034  1.2762
   14SAPS  C216 1798   2.831   6.845   7.816 -0.3137 -0.4479 -0.2582
   14SAPS  H16R 1799   2.760   6.762   7.795 -0.9661 -0.2837  1.2104
   14SAPS  H16S 1800   2.787   6.940   7.780 -0.7675  0.5645  2.7918
   14SAPS  C217 1801   2.850   6.862   7.972  0.5911  0.1468 -0.3337
   14SAPS  H17R 1802   2.755   6.891   8.023 -0.7730 -0.5583 -2.3883
   14SAPS  H17S 1803   2.926   6.941   7.987  2.4833 -1.7630  0.2972
   14SAPS  C218 1804   2.903   6.738   8.043  0.0242  0.2891 -0.4000
   14SAPS  H18R 1805   3.014   6.730   8.040 -0.0415 -1.6459  1.3528
   14SAPS  H18S 1806   2.851   6.647   8.007  2.2774 -0.8593 -0.8745
   14SAPS  C219 1807   2.864   6.749   8.194 -0.8921  0.1461 -0.5148
   14SAPS  H19R 1808   2.753   6.754   8.185 -0.8776  0.0524 -0.7432
   14SAPS  H19S 1809   2.894   6.838   8.254 -0.5090 -0.6017  0.4084
   14SAPS  C220 1810   2.917   6.637   8.270 -0.5906  0.8369  0.4581
   14SAPS  H20R 1811   2.917   6.544   8.210 -1.3265  1.1141  0.0139
   14SAPS  H20S 1812   2.859   6.613   8.362 -1.6944 -0.0737 -0.4544
   14SAPS  H20T 1813   3.025   6.647   8.294 -0.5287  0.8482  0.1761
   14SAPS   C33 1814   2.184   6.428   6.629 -0.0220  0.6410 -0.7879
   14SAPS   H3X 1815   2.077   6.451   6.607 -0.1067  2.7974  1.6974
   14SAPS   H3Y 1816   2.234   6.512   6.681 -1.0771  0.3601  0.7083
   14SAPS   C34 1817   2.181   6.308   6.720  0.0220  0.1706  0.2129
   14SAPS   H4X 1818   2.286   6.281   6.746 -0.2973 -0.4970  0.7979
   14SAPS   H4Y 1819   2.132   6.215   6.686  0.2155  0.0224  0.3414
   14SAPS   C35 1820   2.115   6.338   6.853 -0.1377  0.6354  0.5357
   14SAPS   H5X 1821   2.005   6.350   6.845 -0.3567  1.2204  3.8193
   14SAPS   H5Y 1822   2.164   6.432   6.887 -0.3750  1.2417 -0.7603
   14SAPS   C36 1823   2.138   6.234   6.960  0.0347 -0.3345  0.2372
   14SAPS   H6X 1824   2.238   6.185   6.950  0.4974  0.2518  1.8651
   14SAPS   H6Y 1825   2.064   6.152   6.945  0.0060 -0.1503 -0.6388
   14SAPS   C37 1826   2.129   6.288   7.100  0.0963  0.0728  0.4863
   14SAPS   H7X 1827   2.032   6.339   7.118 -1.5951 -2.1657 -1.9769
   14SAPS   H7Y 1828   2.215   6.357   7.116 -1.5610  2.1109  0.8697
   14SAPS   C38 1829   2.128   6.185   7.213  0.0899  0.6161 -0.4198
   14SAPS   H8X 1830   2.224   6.129   7.221  0.0233  0.5614 -0.0067
   14SAPS   H8Y 1831   2.049   6.115   7.179 -0.4854  0.2280  1.6395
   14SAPS   C39 1832   2.109   6.248   7.353 -0.0370  0.5584 -1.2189
   14SAPS   H9X 1833   2.010   6.296   7.368  0.1036  1.2455 -2.3927
   14SAPS   H9Y 1834   2.176   6.335   7.370 -0.8731  0.7275  1.4542
   14SAPS  C310 1835   2.118   6.151   7.474 -0.4178  1.3145 -0.1081
   14SAPS  H10X 1836   2.213   6.094   7.462 -0.9045  0.6121 -0.6203
   14SAPS  H10Y 1837   2.028   6.087   7.480 -1.0130  2.0371 -1.1589
   14SAPS  C311 1838   2.140   6.217   7.611 -0.0043 -0.3669  0.4865
   14SAPS  H11X 1839   2.053   6.280   7.638 -0.7680 -0.5941 -1.3328
   14SAPS  H11Y 1840   2.228   6.284   7.602 -0.8454  0.7343  0.3717
   14SAPS  C312 1841   2.160   6.106   7.718  0.0282  0.3049  0.3325
   14SAPS  H12X 1842   2.251   6.047   7.693 -0.6777 -1.3115  1.5276
   14SAPS  H12Y 1843   2.077   6.033   7.725  0.2753 -0.2030 -1.7258
   14SAPS  C313 1844   2.184   6.155   7.865  0.2396  0.4141  0.4031
   14SAPS  H13X 1845   2.095   6.209   7.904 -3.4146 -3.1821 -2.5272
   14SAPS  H13Y 1846   2.275   6.218   7.872  0.1858  0.2789  2.9108
   14SAPS  C314 1847   2.196   6.036   7.958 -0.5308  0.2289 -0.3327
   14SAPS  H14X 1848   2.272   5.970   7.910  0.1149  2.0699 -1.9059
   14SAPS  H14Y 1849   2.099   5.984   7.972 -1.5439  1.5058 -2.3833
   14SAPS  C315 1850   2.233   6.063   8.105  0.3344 -0.8521  0.2263
   14SAPS  H15X 1851   2.162   6.143   8.138 -0.6021 -1.9305  0.8631
   14SAPS  H15Y 1852   2.340   6.090   8.117  0.3538 -1.6288  1.9713
   14SAPS  C316 1853   2.221   5.938   8.194 -0.3178  0.0993 -0.1327
   14SAPS  H16X 1854   2.290   5.860   8.157  2.2473  0.9695  2.6568
   14SAPS  H16Y 1855   2.116   5.902   8.186 -0.8034  1.6073 -0.8725
   14SAPS  C317 1856   2.268   5.975   8.339 -0.0796  0.2670  0.8810
   14SAPS  H17X 1857   2.185   6.037   8.379 -1.0699 -2.3536  3.0419
   14SAPS  H17Y 1858   2.355   6.043   8.341  1.2593 -1.3805  0.0867
   14SAPS  C318 1859   2.280   5.861   8.431 -0.0576 -0.5282 -0.3012
   14SAPS  H18X 1860   2.288   5.898   8.535 -1.4683 -1.4201  0.1401
   14SAPS  H18Y 1861   2.371   5.805   8.402  1.6132  1.4417  1.0185
   14SAPS  H18Z 1862   2.195   5.789   8.436 -0.5483 -0.0909 -1.9727
   15SAPS     N 1863   3.589   6.526   6.016 -0.1794 -0.2678 -0.2190
   15SAPS   HN1 1864   3.490   6.502   6.032 -0.2973 -0.9087 -1.9053
   15SAPS   HN2 1865   3.649   6.536   6.101 -0.9788 -0.2003  0.3370
   15SAPS   HN3 1866   3.588   6.616   5.963 -0.5418 -1.0280 -1.5156
   15SAPS   C12 1867   3.649   6.418   5.932 -0.4713  0.1784 -0.3639
   15SAPS  H12A 1868   3.629   6.447   5.829  1.1776  0.6916 -0.5606
   15SAPS   C13 1869   3.798   6.402   5.937 -0.0491 -0.2188 -0.1552
   15SAPS  O13A 1870   3.871   6.444   6.028  0.7595 -0.0640  0.8854
   15SAPS  O13B 1871   3.846   6.308   5.870 -0.1089  0.0585 -0.3551
   15SAPS   C11 1872   3.568   6.296   5.978 -0.1341  0.4570  0.2006
   15SAPS  H11A 1873   3.596   6.269   6.082  1.6282  0.6587 -0.2077
   15SAPS  H11B 1874   3.597   6.208   5.917  1.8156  0.5686  0.9524
   15SAPS     P 1875   3.313   6.221   5.952  0.2073  0.0164  0.1966
   15SAPS   O13 1876   3.187   6.259   6.030 -0.0911 -0.0685  0.5175
   15SAPS   O14 1877   3.313   6.208   5.802 -0.2615  0.0625 -0.1508
   15SAPS   O12 1878   3.428   6.323   5.988  0.4369 -0.1800  0.3045
   15SAPS   O11 1879   3.384   6.086   6.002 -0.5711 -0.1620 -0.6063
   15SAPS    C1 1880   3.298   5.972   6.004 -0.3322  0.9322 -0.6152
   15SAPS    HA 1881   3.191   5.998   5.989 -0.6761 -0.2831 -0.2745
   15SAPS    HB 1882   3.318   5.910   5.914  0.1954  0.7238 -0.3609
   15SAPS    C2 1883   3.304   5.893   6.141 -0.4144 -0.6645  0.1752
   15SAPS    HS 1884   3.240   5.803   6.127 -1.6513  0.3406 -0.6917
   15SAPS   O21 1885   3.273   5.975   6.252 -0.0219  0.1568 -0.9377
   15SAPS   C21 1886   3.144   5.994   6.271  0.7635 -0.0658  0.6217
   15SAPS   O22 1887   3.050   5.938   6.208 -0.9355  0.0936 -0.4589
   15SAPS   C22 1888   3.143   6.101   6.373  0.4919  0.5708  0.6726
   15SAPS   H2R 1889   3.141   6.201   6.326 -1.4930  0.9157  1.4191
   15SAPS   H2S 1890   3.038   6.103   6.409 -0.0177  0.7643 -0.8017
   15SAPS    C3 1891   3.448   5.833   6.156  0.0604 -0.3229  0.3284
   15SAPS    HX 1892   3.512   5.924   6.153  0.3859 -0.5514  0.3233
   15SAPS    HY 1893   3.475   5.779   6.063 -1.6961 -0.9232  0.1500
   15SAPS   O31 1894   3.477   5.758   6.272 -0.4406 -0.2783 -0.2189
   15SAPS   C31 1895   3.428   5.631   6.271  0.2560  0.0884  0.5894
   15SAPS   O32 1896   3.376   5.579   6.172  0.1127 -0.6427 -0.1550
   15SAPS   C32 1897   3.442   5.564   6.407 -0.0352  0.4794 -0.2821
   15SAPS   H2X 1898   3.529   5.615   6.453 -0.3296 -0.0122  0.8518
   15SAPS   H2Y 1899   3.476   5.458   6.397 -1.5703  0.1711 -2.5230
   15SAPS   C23 1900   3.241   6.069   6.487 -0.1197  0.1784 -0.1187
   15SAPS   H3R 1901   3.345   6.073   6.447  1.4083  0.1201  3.6483
   15SAPS   H3S 1902   3.223   5.963   6.517 -0.8492 -0.1153 -1.5361
   15SAPS   C24 1903   3.211   6.155   6.612  0.2750  0.0669  0.3619
   15SAPS   H4R 1904   3.280   6.123   6.693 -0.1649  0.8478  1.0479
   15SAPS   H4S 1905   3.106   6.144   6.646 -0.5116 -0.5873 -2.1396
   15SAPS   C25 1906   3.231   6.299   6.595 -0.7528  0.1646 -0.4166
   15SAPS   H5R 1907   3.327   6.329   6.552 -0.7839 -0.6937 -1.0850
   15SAPS   C26 1908   3.150   6.398   6.614  0.8069 -0.3914 -0.5951
   15SAPS   H6R 1909   3.191   6.500   6.608 -1.1040  0.3090 -2.1563
   15SAPS   C27 1910   3.010   6.397   6.673 -0.3149 -0.3545 -0.5917
   15SAPS   H7R 1911   2.982   6.291   6.688 -1.1358 -0.1679 -0.8046
   15SAPS   H7S 1912   2.943   6.437   6.594  1.2518  3.1214 -0.2409
   15SAPS   C28 1913   3.000   6.481   6.798 -0.1496  0.0622  0.1451
   15SAPS   H8R 1914   2.969   6.584   6.773  1.0723  0.5395  0.5361
   15SAPS   C29 1915   3.025   6.430   6.921 -0.1450  0.0956  1.1137
   15SAPS   H9R 1916   3.017   6.505   7.001  0.2614  1.4588 -0.1020
   15SAPS  C210 1917   3.066   6.291   6.963 -0.4896  0.5911  0.0222
   15SAPS  H10R 1918   3.149   6.300   7.037 -0.8319 -0.0281  0.4833
   15SAPS  H10S 1919   3.105   6.231   6.878  0.6453 -0.0791  0.9937
   15SAPS  C211 1920   2.950   6.204   7.011 -0.1429 -0.5998 -0.6502
   15SAPS  H11R 1921   2.908   6.134   6.937 -1.2589  1.0632 -1.6098
   15SAPS  C212 1922   2.915   6.188   7.138 -0.1202  0.1442  0.3713
   15SAPS  H12R 1923   2.821   6.136   7.161 -0.1294  0.4853  1.0905
   15SAPS  C213 1924   2.984   6.259   7.253  0.0458  0.0673  0.4373
   15SAPS  H13R 1925   3.076   6.314   7.223  1.0128 -1.4934  0.4987
   15SAPS  H13S 1926   3.015   6.181   7.325 -1.5451 -0.0770  0.9987
   15SAPS  C214 1927   2.901   6.357   7.334  0.1493 -0.3897 -0.4392
   15SAPS  H14R 1928   2.858   6.439   7.274  0.1171 -0.7570 -0.9210
   15SAPS  C215 1929   2.896   6.369   7.465 -0.9941 -0.8409 -0.4169
   15SAPS  H15R 1930   2.838   6.449   7.512  1.4326  0.5018  0.3829
   15SAPS  C216 1931   2.955   6.271   7.564 -0.0351  0.8741 -0.1997
   15SAPS  H16R 1932   3.058   6.307   7.588  0.5784  0.6159 -2.3015
   15SAPS  H16S 1933   2.963   6.164   7.534  0.8769  0.5025  1.3211
   15SAPS  C217 1934   2.855   6.270   7.683  0.4303 -0.1164 -0.9621
   15SAPS  H17R 1935   2.892   6.182   7.739  0.4770  0.1965 -0.4995
   15SAPS  H17S 1936   2.751   6.249   7.652  0.8378 -0.0375 -2.4601
   15SAPS  C218 1937   2.855   6.396   7.778 -0.6588 -0.1516  0.7946
   15SAPS  H18R 1938   2.828   6.481   7.712  1.2332 -1.0042 -1.1763
   15SAPS  H18S 1939   2.960   6.417   7.810  0.3214 -1.6819 -1.2525
   15SAPS  C219 1940   2.769   6.383   7.899 -0.0385 -0.3479  0.3092
   15SAPS  H19R 1941   2.671   6.337   7.874 -0.0921  1.2436 -2.7403
   15SAPS  H19S 1942   2.749   6.485   7.939  0.3920  0.4625 -1.4674
   15SAPS  C220 1943   2.841   6.293   8.010 -0.4078  0.3400 -0.3425
   15SAPS  H20R 1944   2.846   6.186   7.979  2.7903 -0.0385  1.3332
   15SAPS  H20S 1945   2.779   6.294   8.102 -2.7935  1.3801 -1.9061
   15SAPS  H20T 1946   2.942   6.335   8.028 -0.8598  1.8200 -1.1754
   15SAPS   C33 1947   3.313   5.558   6.497  0.5072  0.2749  0.4553
   15SAPS   H3X 1948   3.336   5.500   6.589  0.5237 -1.8682 -0.8618
   15SAPS   H3Y 1949   3.248   5.486   6.442  1.7025 -1.0571  0.7471
   15SAPS   C34 1950   3.249   5.695   6.532 -1.0370 -0.3270  0.2663
   15SAPS   H4X 1951   3.214   5.747   6.441 -0.1639  0.9798  0.6479
   15SAPS   H4Y 1952   3.322   5.765   6.577 -0.3283  1.3099 -3.2613
   15SAPS   C35 1953   3.139   5.681   6.644 -0.2675  0.8584  0.1382
   15SAPS   H5X 1954   3.179   5.632   6.735 -0.1080 -1.5988 -1.1912
   15SAPS   H5Y 1955   3.070   5.603   6.604 -1.0666  1.9668 -0.6645
   15SAPS   C36 1956   3.073   5.812   6.687  0.1291 -0.1469  0.9596
   15SAPS   H6X 1957   3.017   5.851   6.600  3.0976  1.0444 -0.4635
   15SAPS   H6Y 1958   3.157   5.883   6.695  0.1751 -0.2577  1.4859
   15SAPS   C37 1959   2.986   5.799   6.814  0.2752  0.0583  0.0339
   15SAPS   H7X 1960   2.906   5.725   6.795 -0.8538  1.2573  0.0406
   15SAPS   H7Y 1961   2.913   5.879   6.838 -1.6865 -1.2167 -1.5160
   15SAPS   C38 1962   3.068   5.806   6.939 -0.1000 -0.4143 -0.5316
   15SAPS   H8X 1963   3.132   5.897   6.936 -0.8053  0.1662  1.2752
   15SAPS   H8Y 1964   3.134   5.717   6.946  0.3442 -0.0941 -0.6098
   15SAPS   C39 1965   2.971   5.815   7.063  0.4372 -0.2093 -0.0840
   15SAPS   H9X 1966   2.898   5.731   7.059  0.5296 -0.5318  3.5901
   15SAPS   H9Y 1967   2.906   5.904   7.056  1.2239  0.2772 -1.3613
   15SAPS  C310 1968   3.045   5.819   7.201  0.4480  0.1223  0.2333
   15SAPS  H10X 1969   3.049   5.920   7.246  1.3112  0.6938 -1.1162
   15SAPS  H10Y 1970   3.150   5.789   7.180  0.7932  2.3331 -1.3012
   15SAPS  C311 1971   2.979   5.721   7.305  0.2835  0.2189 -0.5271
   15SAPS  H11X 1972   3.007   5.615   7.287  2.1574  0.3562  1.2639
   15SAPS  H11Y 1973   2.871   5.739   7.288  0.7139  0.0713 -3.7357
   15SAPS  C312 1974   3.011   5.762   7.453 -0.4480  0.4313 -0.3619
   15SAPS  H12X 1975   2.972   5.865   7.471  2.1781  1.2856  0.5600
   15SAPS  H12Y 1976   3.121   5.762   7.467 -0.7584  1.3721  2.3812
   15SAPS  C313 1977   2.951   5.664   7.554 -0.4537  0.0779 -0.9154
   15SAPS  H13X 1978   2.973   5.560   7.524  0.4922 -0.0908  0.3278
   15SAPS  H13Y 1979   2.842   5.669   7.532 -0.3762 -0.5378 -1.4455
   15SAPS  C314 1980   2.988   5.691   7.697 -0.2354 -0.3694  0.1297
   15SAPS  H14X 1981   2.980   5.800   7.716 -2.5526 -0.2603 -1.3263
   15SAPS  H14Y 1982   3.094   5.659   7.710 -0.2560 -0.1430  0.8986
   15SAPS  C315 1983   2.893   5.611   7.789  0.6998 -1.1503 -0.1502
   15SAPS  H15X 1984   2.908   5.505   7.761  3.2773 -1.4423  2.1506
   15SAPS  H15Y 1985   2.786   5.640   7.779  0.9893 -0.4225 -1.2017
   15SAPS  C316 1986   2.946   5.624   7.933 -0.6449  0.2499 -0.6605
   15SAPS  H16X 1987   2.956   5.731   7.961  0.8530 -0.4529  1.5700
   15SAPS  H16Y 1988   3.047   5.579   7.929 -1.1094 -0.8271 -0.3290
   15SAPS  C317 1989   2.865   5.558   8.036 -0.3530 -0.1513 -0.3612
   15SAPS  H17X 1990   2.837   5.451   8.027  0.7530 -0.3807 -1.1001
   15SAPS  H17Y 1991   2.767   5.611   8.026 -0.3747 -0.0594  0.3234
   15SAPS  C318 1992   2.915   5.597   8.170 -0.5138  0.5749  0.1235
   15SAPS  H18X 1993   2.922   5.707   8.178  0.5340  0.6886 -2.1076
   15SAPS  H18Y 1994   3.010   5.542   8.189 -2.1250 -1.9429  1.2018
   15SAPS  H18Z 1995   2.846   5.562   8.250 -0.6403 -2.1672 -1.1187
   16SAPS     N 1996   4.966   0.957   6.506  0.5974 -1.2575 -0.4609
   16SAPS   HN1 1997   4.957   1.057   6.481  0.3038 -0.6894  1.8802
   16SAPS   HN2 1998   4.911   0.888   6.449 -0.6431  0.8147 -1.8469
   16SAPS   HN3 1999   4.926   0.945   6.601 -0.2992 -2.4184 -0.9629
   16SAPS   C12 2000   5.112   0.913   6.505  0.3659 -0.4673 -0.2493
   16SAPS  H12A 2001   5.127   0.813   6.540 -0.4095 -0.0178  1.4358
   16SAPS   C13 2002   5.161   0.922   6.357 -0.0644  0.4148  0.1748
   16SAPS  O13A 2003   5.081   0.952   6.262  0.3842 -0.6809  0.3182
   16SAPS  O13B 2004   5.283   0.900   6.337 -0.0630  0.8774  0.2165
   16SAPS   C11 2005   5.197   1.012   6.586  0.1526 -0.7475  0.5070
   16SAPS  H11A 2006   5.306   0.990   6.582  1.4728  4.6680  1.8773
   16SAPS  H11B 2007   5.162   0.992   6.690  1.2795 -2.6084  0.5524
   16SAPS     P 2008   5.263   1.265   6.618  0.1398 -0.1256  0.4658
   16SAPS   O13 2009   5.404   1.249   6.583  0.3031  0.6055 -0.0385
   16SAPS   O14 2010   5.205   1.400   6.596 -0.0986 -0.2654 -0.6328
   16SAPS   O12 2011   5.183   1.155   6.543 -0.6714 -0.3192 -0.4170
   16SAPS   O11 2012   5.256   1.230   6.772  0.1364 -0.1264 -0.0912
   16SAPS    C1 2013   5.292   1.318   6.880  0.0636 -0.1706  0.5667
   16SAPS    HA 2014   5.386   1.368   6.848  0.2707 -1.4040 -0.7785
   16SAPS    HB 2015   5.211   1.391   6.899  1.2100  1.0157  1.0075
   16SAPS    C2 2016   5.324   1.240   7.007  0.2408  0.0079  0.2738
   16SAPS    HS 2017   5.414   1.179   6.982  1.6366  1.3723  1.8637
   16SAPS   O21 2018   5.210   1.161   7.046 -0.0292  0.2795 -0.4284
   16SAPS   C21 2019   5.207   1.031   7.013 -0.4291 -0.7679  1.2059
   16SAPS   O22 2020   5.295   0.971   6.947  0.0019  0.0540  0.3439
   16SAPS   C22 2021   5.085   0.965   7.069 -0.2005 -0.3773 -0.0643
   16SAPS   H2R 2022   5.027   1.036   7.132  0.8293 -0.7757  1.3539
   16SAPS   H2S 2023   5.030   0.952   6.974 -0.6756  1.4178 -0.0595
   16SAPS    C3 2024   5.342   1.343   7.123  0.4463 -0.5507 -0.3658
   16SAPS    HX 2025   5.249   1.398   7.148  1.2831  0.9481 -0.4775
   16SAPS    HY 2026   5.426   1.415   7.112 -0.4607  0.4276 -0.9196
   16SAPS   O31 2027   5.385   1.264   7.236  0.5631  0.2557  0.2414
   16SAPS   C31 2028   5.300   1.257   7.337  0.5428  1.1299  0.3165
   16SAPS   O32 2029   5.186   1.300   7.336  0.2993  0.8652  0.0765
   16SAPS   C32 2030   5.379   1.186   7.451  0.0558 -0.6599  0.2283
   16SAPS   H2X 2031   5.472   1.244   7.461 -0.0567 -0.6781  1.4667
   16SAPS   H2Y 2032   5.411   1.089   7.408  0.9765 -0.7423  1.0798
   16SAPS   C23 2033   5.121   0.840   7.158 -0.8543  0.0282 -0.2908
   16SAPS   H3R 2034   5.206   0.791   7.106  0.4046 -0.7653  2.4014
   16SAPS   H3S 2035   5.037   0.767   7.155 -0.8340 -0.0288  0.3750
   16SAPS   C24 2036   5.163   0.886   7.297  0.6734 -0.5210 -0.5255
   16SAPS   H4R 2037   5.241   0.964   7.282 -2.6391  2.7866 -1.5434
   16SAPS   H4S 2038   5.216   0.809   7.357 -0.0302 -0.0038  0.7920
   16SAPS   C25 2039   5.041   0.936   7.373 -0.6383  0.0655  0.2382
   16SAPS   H5R 2040   4.983   1.007   7.313  1.0078  0.1521 -1.2895
   16SAPS   C26 2041   5.004   0.908   7.499  0.4762  0.0759  0.3161
   16SAPS   H6R 2042   4.925   0.964   7.552  0.4132  1.3657 -1.1074
   16SAPS   C27 2043   5.069   0.816   7.602 -0.0571  0.3103 -0.2486
   16SAPS   H7R 2044   5.027   0.841   7.701  0.2186 -0.5289  0.0880
   16SAPS   H7S 2045   5.175   0.844   7.622  0.6221 -2.9183  1.0434
   16SAPS   C28 2046   5.060   0.669   7.568  0.0606 -0.4366 -1.1808
   16SAPS   H8R 2047   5.067   0.641   7.462  2.0483  1.0474 -1.4640
   16SAPS   C29 2048   5.064   0.573   7.662  0.2849 -0.2398  0.1980
   16SAPS   H9R 2049   5.078   0.470   7.628 -3.6016 -0.6786 -0.2980
   16SAPS  C210 2050   5.075   0.591   7.807 -0.5967 -0.4966 -0.0841
   16SAPS  H10R 2051   5.119   0.687   7.839  2.4534 -1.0473 -2.3972
   16SAPS  H10S 2052   5.142   0.508   7.839  0.3422  0.6587  0.9728
   16SAPS  C211 2053   4.943   0.565   7.880 -0.8740  0.1908 -0.2417
   16SAPS  H11R 2054   4.870   0.508   7.821  0.0104 -2.6201  1.2808
   16SAPS  C212 2055   4.921   0.609   8.001 -0.0847 -0.4201 -0.0222
   16SAPS  H12R 2056   4.830   0.581   8.055 -1.8148  0.8457 -2.2234
   16SAPS  C213 2057   5.012   0.696   8.080 -0.0023 -0.2058 -0.2900
   16SAPS  H13R 2058   4.946   0.730   8.163 -0.7705 -0.0141 -0.9793
   16SAPS  H13S 2059   5.037   0.794   8.034 -2.0589  2.0186  3.0752
   16SAPS  C214 2060   5.128   0.627   8.150  0.2680 -0.4619  0.0493
   16SAPS  H14R 2061   5.175   0.547   8.091 -1.0524 -1.1434 -0.1081
   16SAPS  C215 2062   5.162   0.633   8.274  0.1192 -0.8755 -0.6395
   16SAPS  H15R 2063   5.231   0.553   8.304  0.2057 -1.4276 -2.2363
   16SAPS  C216 2064   5.088   0.714   8.383  0.2657 -0.1169 -0.7805
   16SAPS  H16R 2065   5.039   0.805   8.343  1.9537  0.8829 -0.5982
   16SAPS  H16S 2066   5.166   0.753   8.453 -0.9129 -0.9362  1.0449
   16SAPS  C217 2067   4.985   0.634   8.473  0.1619  0.0391  0.4051
   16SAPS  H17R 2068   5.027   0.534   8.493  0.6088  0.0042 -0.6873
   16SAPS  H17S 2069   4.882   0.618   8.433  0.5415  0.8471 -0.9368
   16SAPS  C218 2070   4.969   0.705   8.609 -0.1547  0.6621 -1.3579
   16SAPS  H18R 2071   4.905   0.795   8.615  1.0806  1.4572  0.2985
   16SAPS  H18S 2072   5.068   0.742   8.642 -0.2245 -2.1367  2.2821
   16SAPS  C219 2073   4.936   0.593   8.713  0.0491 -0.2166  0.7335
   16SAPS  H19R 2074   4.998   0.503   8.693  0.4947 -0.0515  1.3570
   16SAPS  H19S 2075   4.832   0.558   8.699  0.3959 -1.8085  2.1040
   16SAPS  C220 2076   4.947   0.644   8.850 -0.0841  0.1223 -0.1931
   16SAPS  H20R 2077   4.940   0.556   8.917 -1.8651  0.7318  0.4595
   16SAPS  H20S 2078   4.863   0.712   8.875  0.0467 -0.4858  1.9329
   16SAPS  H20T 2079   5.042   0.700   8.861  0.4795 -0.9272  0.4351
   16SAPS   C33 2080   5.319   1.178   7.591  0.5982 -0.2463 -0.7539
   16SAPS   H3X 2081   5.224   1.121   7.584 -0.6817  1.6724  0.5613
   16SAPS   H3Y 2082   5.285   1.274   7.634 -1.2868 -0.3871 -1.9229
   16SAPS   C34 2083   5.415   1.103   7.681  0.3234  0.3070  0.2544
   16SAPS   H4X 2084   5.517   1.144   7.692 -0.1394  1.5110  0.1831
   16SAPS   H4Y 2085   5.434   1.002   7.640 -1.0339  0.6911 -1.4111
   16SAPS   C35 2086   5.372   1.107   7.827 -0.8292  0.5815 -0.6167
   16SAPS   H5X 2087   5.266   1.074   7.837 -0.6583  0.6105  1.4186
   16SAPS   H5Y 2088   5.380   1.210   7.868  2.4387 -0.7007  2.1614
   16SAPS   C36 2089   5.456   1.007   7.912 -0.6956 -0.3075  0.4086
   16SAPS   H6X 2090   5.564   1.035   7.912 -1.1281  1.3787  0.9693
   16SAPS   H6Y 2091   5.437   0.902   7.879  0.0500 -0.3964  0.2451
   16SAPS   C37 2092   5.419   1.013   8.062 -0.1318 -0.3118 -0.5003
   16SAPS   H7X 2093   5.310   0.995   8.076 -0.3453  0.8117 -0.7122
   16SAPS   H7Y 2094   5.442   1.109   8.113  0.4076 -0.1222 -1.0986
   16SAPS   C38 2095   5.491   0.901   8.137 -0.7027 -0.5419  0.0125
   16SAPS   H8X 2096   5.601   0.912   8.126 -0.1826 -2.7854  2.4267
   16SAPS   H8Y 2097   5.457   0.802   8.102  0.2356 -0.5621 -0.8632
   16SAPS   C39 2098   5.463   0.901   8.291 -0.8578  0.4604 -0.1994
   16SAPS   H9X 2099   5.360   0.871   8.323 -0.5239 -1.4713 -0.8587
   16SAPS   H9Y 2100   5.468   1.006   8.327 -0.5533  0.9901 -1.7369
   16SAPS  C310 2101   5.569   0.809   8.362  0.0868  0.2224 -0.1386
   16SAPS  H10X 2102   5.668   0.850   8.333  0.3201  0.7810  1.4064
   16SAPS  H10Y 2103   5.567   0.707   8.320  1.1781 -0.2342  0.9137
   16SAPS  C311 2104   5.560   0.787   8.517  0.3414  0.2658  0.2882
   16SAPS  H11X 2105   5.544   0.880   8.577 -0.7307 -0.4869  1.1915
   16SAPS  H11Y 2106   5.651   0.747   8.566  0.7857  0.9127  0.0033
   16SAPS  C312 2107   5.451   0.684   8.559  0.3450 -0.0598  0.4154
   16SAPS  H12X 2108   5.489   0.584   8.529  0.1360  0.1656 -0.5947
   16SAPS  H12Y 2109   5.362   0.710   8.499 -1.5921  1.2663  3.6983
   16SAPS  C313 2110   5.415   0.678   8.710  0.7916  0.0209  0.2969
   16SAPS  H13X 2111   5.323   0.616   8.706  0.2997  0.6786  1.4201
   16SAPS  H13Y 2112   5.399   0.779   8.753 -0.6529  0.1745 -0.5887
   16SAPS  C314 2113   5.519   0.606   8.793  0.9233 -0.1751  0.3366
   16SAPS  H14X 2114   5.617   0.658   8.787  0.8887 -0.1252  0.1866
   16SAPS  H14Y 2115   5.542   0.509   8.745  1.8725 -0.2778  0.9898
   16SAPS  C315 2116   5.459   0.577   8.934  0.4468 -0.1411  0.9251
   16SAPS  H15X 2117   5.356   0.535   8.926  0.7321 -0.4766 -1.2499
   16SAPS  H15Y 2118   5.455   0.672   8.990 -0.2640 -0.4024  1.3245
   16SAPS  C316 2119   5.528   0.467   9.024  0.6360 -0.1571 -0.0584
   16SAPS  H16X 2120   5.625   0.507   9.057  1.8837 -2.7735 -0.4010
   16SAPS  H16Y 2121   5.541   0.376   8.961  0.8956 -0.4969  0.4896
   16SAPS  C317 2122   5.444   0.429   9.152  0.1846 -0.2215 -0.2471
   16SAPS  H17X 2123   5.502   0.353   9.209  1.6373  1.8956  1.1838
   16SAPS  H17Y 2124   5.346   0.384   9.126 -0.4413  1.7074 -1.2998
   16SAPS  C318 2125   5.417   0.537   9.247 -0.0841 -0.0016  0.0482
   16SAPS  H18X 2126   5.363   0.497   9.335  0.8078  0.4442  0.8073
   16SAPS  H18Y 2127   5.351   0.619   9.211  2.2065  0.7689 -2.6620
   16SAPS  H18Z 2128   5.514   0.576   9.285  0.3091  0.9004 -1.8046
   17SAPC     N 2129   3.289   4.086  10.677 -0.4031 -0.2723 -0.2067
   17SAPC   C12 2130   3.306   4.077  10.527 -0.7185  0.0752  0.0085
   17SAPC  H12A 2131   3.396   4.129  10.499 -2.0643  1.5566 -1.6856
   17SAPC  H12B 2132   3.220   4.127  10.484  0.6001  1.8270 -0.6644
   17SAPC   C13 2133   3.383   3.991  10.755 -0.0312  0.2543 -0.4403
   17SAPC  H13A 2134   3.369   4.006  10.861  0.6622  0.7293 -0.4088
   17SAPC  H13B 2135   3.344   3.900  10.712 -1.2060  1.2833 -1.6007
   17SAPC  H13C 2136   3.489   4.001  10.737 -0.3836  3.3312 -1.1088
   17SAPC   C14 2137   3.291   4.224  10.732 -1.1578  0.2331  0.1062
   17SAPC  H14A 2138   3.387   4.274  10.741 -0.4790 -1.5341  3.9391
   17SAPC  H14B 2139   3.226   4.283  10.670 -0.0499  1.3820  0.0343
   17SAPC  H14C 2140   3.255   4.240  10.833  1.6943  3.7855  0.6737
   17SAPC   C15 2141   3.149   4.045  10.708  0.2785  0.5980  0.3747
   17SAPC  H15A 2142   3.126   3.949  10.666  1.0399 -0.0299  1.3545
   17SAPC  H15B 2143   3.127   4.040  10.814 -2.6424  1.1448 -0.1647
   17SAPC  H15C 2144   3.075   4.111  10.666  0.7632  1.2955  0.5968
   17SAPC   C11 2145   3.305   3.932  10.472  1.0914 -0.2371  0.3231
   17SAPC  H11A 2146   3.388   3.881  10.524  3.5566  2.2901 -1.0115
   17SAPC  H11B 2147   3.329   3.930  10.364  2.1110  0.1162  0.5428
   17SAPC     P 2148   3.058   3.871  10.412  0.3295  0.3725  0.0875
   17SAPC   O13 2149   2.945   3.804  10.477 -0.3207 -0.5287  0.2134
   17SAPC   O14 2150   3.038   4.009  10.370 -0.8884  0.3646  0.0596
   17SAPC   O12 2151   3.184   3.865  10.505 -0.1661 -0.5365  0.1218
   17SAPC   O11 2152   3.105   3.788  10.288  0.2669  0.1138  0.2539
   17SAPC    C1 2153   3.126   3.649  10.296 -0.8149  0.9008  0.3928
   17SAPC    HA 2154   3.069   3.601  10.378 -1.9821 -2.8093 -2.4341
   17SAPC    HB 2155   3.093   3.604  10.200 -0.9338 -1.3915  1.4584
   17SAPC    C2 2156   3.273   3.619  10.316  0.0681  0.3376 -0.6388
   17SAPC    HS 2157   3.292   3.649  10.422 -0.1838 -1.4182 -0.0859
   17SAPC   O21 2158   3.349   3.712  10.231  0.2125 -0.4140 -0.3990
   17SAPC   C21 2159   3.470   3.705  10.244 -0.4613 -0.1768 -0.0829
   17SAPC   O22 2160   3.541   3.645  10.328  0.2857 -0.2976  0.3779
   17SAPC   C22 2161   3.526   3.810  10.138  0.6202 -0.1937  0.3591
   17SAPC   H2R 2162   3.460   3.795  10.050 -0.2425 -0.3416  1.0263
   17SAPC   H2S 2163   3.517   3.914  10.175 -0.0571 -0.5330  1.1817
   17SAPC    C3 2164   3.311   3.475  10.294  0.4621 -0.1859  0.1765
   17SAPC    HX 2165   3.255   3.419  10.372  0.8539 -3.1744 -1.6056
   17SAPC    HY 2166   3.414   3.452  10.327  0.4939  0.7983  0.7880
   17SAPC   O31 2167   3.279   3.431  10.163  0.4120 -0.6652  0.3569
   17SAPC   C31 2168   3.372   3.416  10.072 -0.5173  0.5498 -0.0262
   17SAPC   O32 2169   3.491   3.436  10.094 -0.1110  0.2241  0.1473
   17SAPC   C32 2170   3.307   3.394   9.930 -0.1368 -0.0349  0.5420
   17SAPC   H2X 2171   3.230   3.473   9.916  0.2169 -0.0090 -1.3560
   17SAPC   H2Y 2172   3.252   3.298   9.931 -1.3106  0.6352  1.4219
   17SAPC   C23 2173   3.671   3.767  10.088  0.4130  0.1228 -0.4800
   17SAPC   H3R 2174   3.685   3.778   9.979 -0.6512  1.2203 -0.5109
   17SAPC   H3S 2175   3.678   3.656  10.093 -0.0469 -0.0176 -2.5003
   17SAPC   C24 2176   3.790   3.826  10.158  0.6493 -0.2281 -0.0313
   17SAPC   H4R 2177   3.884   3.793  10.108 -0.5542  2.0745 -4.0046
   17SAPC   H4S 2178   3.805   3.786  10.261 -1.3893 -1.4736 -0.2001
   17SAPC   C25 2179   3.782   3.979  10.153  0.1539 -0.5859 -1.3042
   17SAPC   H5R 2180   3.744   4.031  10.243  0.9188  0.0843 -1.3631
   17SAPC   C26 2181   3.798   4.053  10.045  0.4110 -0.4307 -0.4745
   17SAPC   H6R 2182   3.797   4.162  10.062  1.2792 -0.4291 -0.4213
   17SAPC   C27 2183   3.825   4.003   9.903  0.6957  0.9500 -0.2029
   17SAPC   H7R 2184   3.737   4.034   9.842  0.9367  0.6296 -0.7267
   17SAPC   H7S 2185   3.830   3.892   9.911 -0.5958  1.0416  2.4507
   17SAPC   C28 2186   3.957   4.050   9.853  0.5840 -0.3222 -0.1882
   17SAPC   H8R 2187   4.045   4.012   9.907  0.9524 -0.7777 -1.0887
   17SAPC   C29 2188   3.984   4.128   9.751  0.8490 -0.1071  0.1711
   17SAPC   H9R 2189   4.090   4.155   9.738  1.1298 -1.0447  0.4198
   17SAPC  C210 2190   3.891   4.187   9.641  0.1741 -0.3045  0.4606
   17SAPC  H10R 2191   3.854   4.289   9.668  1.1117 -0.5219  2.6110
   17SAPC  H10S 2192   3.803   4.119   9.647 -0.2743 -0.1377 -2.9212
   17SAPC  C211 2193   3.961   4.180   9.513 -0.1482 -0.5459 -0.3027
   17SAPC  H11R 2194   4.054   4.236   9.497 -0.3091  0.0506  0.8123
   17SAPC  C212 2195   3.926   4.109   9.406  0.1738 -0.7903 -0.7179
   17SAPC  H12R 2196   4.003   4.102   9.328  1.0000  2.4394 -0.2655
   17SAPC  C213 2197   3.797   4.027   9.391  0.8118  0.0430  0.5481
   17SAPC  H13R 2198   3.713   4.084   9.435 -0.3050 -0.6298 -0.6823
   17SAPC  H13S 2199   3.809   3.928   9.440  0.4986 -0.5121 -0.4742
   17SAPC  C214 2200   3.752   4.009   9.246  1.1065  0.2870  0.4659
   17SAPC  H14R 2201   3.746   3.905   9.208 -0.2091 -0.4771  2.6941
   17SAPC  C215 2202   3.720   4.113   9.170  0.0637 -0.3882  0.4691
   17SAPC  H15R 2203   3.687   4.093   9.067  4.1279  2.5889 -1.5496
   17SAPC  C216 2204   3.716   4.258   9.204  0.8081  0.2139 -0.6668
   17SAPC  H16R 2205   3.715   4.288   9.311  1.2572  1.8807 -1.1136
   17SAPC  H16S 2206   3.622   4.294   9.158 -0.1001 -1.7134 -0.3452
   17SAPC  C217 2207   3.815   4.353   9.122  0.6950  0.4136 -0.4996
   17SAPC  H17R 2208   3.913   4.316   9.158 -0.2130 -0.5258  1.0804
   17SAPC  H17S 2209   3.795   4.459   9.147  0.5893  0.4234 -0.6207
   17SAPC  C218 2210   3.815   4.346   8.971  0.3385  0.1005 -0.3750
   17SAPC  H18R 2211   3.713   4.367   8.932  0.3102 -0.7757 -0.8010
   17SAPC  H18S 2212   3.847   4.245   8.935  0.2533 -0.3937  0.9137
   17SAPC  C219 2213   3.912   4.450   8.908 -0.4135 -0.1927 -0.5322
   17SAPC  H19R 2214   4.007   4.427   8.962 -0.9778  1.9898  1.4689
   17SAPC  H19S 2215   3.876   4.550   8.940  1.0941  0.0969  0.3105
   17SAPC  C220 2216   3.924   4.433   8.759  0.1410  0.4117 -0.1822
   17SAPC  H20R 2217   3.820   4.419   8.723  0.9191 -1.5587 -1.7875
   17SAPC  H20S 2218   3.977   4.337   8.739 -0.8789 -0.0506 -0.6933
   17SAPC  H20T 2219   3.980   4.515   8.709  2.0535 -0.8981 -0.2432
   17SAPC   C33 2220   3.415   3.384   9.818  0.5264  0.4863  0.0996
   17SAPC   H3X 2221   3.362   3.376   9.721  1.5046 -1.7724 -0.2791
   17SAPC   H3Y 2222   3.482   3.295   9.830  0.8705  0.0960 -3.9914
   17SAPC   C34 2223   3.521   3.498   9.803 -0.3461  0.4128  0.2455
   17SAPC   H4X 2224   3.611   3.466   9.747  1.5815  1.7797  2.5096
   17SAPC   H4Y 2225   3.561   3.540   9.897 -4.0027  0.9712  1.6308
   17SAPC   C35 2226   3.468   3.622   9.726  0.1852  1.1673 -0.0126
   17SAPC   H5X 2227   3.422   3.676   9.812 -2.8012  0.6034 -1.1987
   17SAPC   H5Y 2228   3.383   3.603   9.657 -1.9211 -0.0649  2.8189
   17SAPC   C36 2229   3.571   3.704   9.646  0.0654 -0.5778  0.3027
   17SAPC   H6X 2230   3.613   3.635   9.571  0.0238 -0.1483 -0.1205
   17SAPC   H6Y 2231   3.642   3.728   9.728  0.6424 -1.3288  0.0247
   17SAPC   C37 2232   3.520   3.824   9.565 -0.6114  0.5246  0.5122
   17SAPC   H7X 2233   3.616   3.865   9.526 -0.6365 -0.6742 -0.8642
   17SAPC   H7Y 2234   3.488   3.903   9.635 -2.0956 -1.0494  1.6396
   17SAPC   C38 2235   3.414   3.801   9.452  0.4299 -0.5256 -0.1093
   17SAPC   H8X 2236   3.315   3.765   9.486  0.1994 -0.7401 -0.9879
   17SAPC   H8Y 2237   3.464   3.736   9.376 -2.3325 -0.5721 -1.9554
   17SAPC   C39 2238   3.396   3.924   9.366  0.6487  0.1583 -0.1344
   17SAPC   H9X 2239   3.490   3.982   9.366  1.1402 -0.5532  2.8734
   17SAPC   H9Y 2240   3.314   3.984   9.411  0.6564  0.7024 -0.8392
   17SAPC  C310 2241   3.345   3.898   9.224  0.3341  0.9187 -0.2606
   17SAPC  H10X 2242   3.283   3.806   9.213 -2.8636  3.0713 -0.8048
   17SAPC  H10Y 2243   3.436   3.874   9.165  0.6645  0.6954  0.3352
   17SAPC  C311 2244   3.259   4.021   9.175 -0.2609 -0.1944 -0.5196
   17SAPC  H11X 2245   3.312   4.114   9.204  0.5462 -1.3979  1.9963
   17SAPC  H11Y 2246   3.161   4.018   9.227  0.4274 -0.9870  0.7566
   17SAPC  C312 2247   3.233   4.033   9.023  0.2551 -0.1812  0.3929
   17SAPC  H12X 2248   3.172   4.124   9.006  1.3363  0.6227  0.7042
   17SAPC  H12Y 2249   3.184   3.940   8.989  0.9138 -0.3863 -0.0091
   17SAPC  C313 2250   3.362   4.052   8.939 -0.3926 -1.0374 -0.5367
   17SAPC  H13X 2251   3.434   3.972   8.968 -0.8111 -0.8152  1.2010
   17SAPC  H13Y 2252   3.414   4.136   8.988 -0.2585 -0.0106 -2.4022
   17SAPC  C314 2253   3.325   4.094   8.796  0.6141 -0.4809  0.4817
   17SAPC  H14X 2254   3.232   4.153   8.804 -0.6674 -2.1026 -1.7195
   17SAPC  H14Y 2255   3.308   3.998   8.742 -2.8975  0.5308 -0.3087
   17SAPC  C315 2256   3.438   4.186   8.736  0.3379  0.2870 -0.0295
   17SAPC  H15X 2257   3.534   4.131   8.746  0.1738 -0.4410 -2.1722
   17SAPC  H15Y 2258   3.443   4.278   8.798  0.5171  1.0593 -1.1939
   17SAPC  C316 2259   3.394   4.243   8.601  0.5464  0.1797 -0.0051
   17SAPC  H16X 2260   3.308   4.313   8.605 -0.0624 -0.5146 -0.8984
   17SAPC  H16Y 2261   3.363   4.155   8.542  1.5464 -0.6355  0.6696
   17SAPC  C317 2262   3.506   4.322   8.533  0.4113  0.0570  0.3881
   17SAPC  H17X 2263   3.544   4.393   8.610  2.6418 -0.6482 -0.0361
   17SAPC  H17Y 2264   3.473   4.378   8.443 -0.5079 -1.9905 -0.5927
   17SAPC  C318 2265   3.626   4.240   8.480 -0.3956 -0.3751  0.5839
   17SAPC  H18X 2266   3.587   4.154   8.420 -0.5390 -0.5034  0.8586
   17SAPC  H18Y 2267   3.700   4.299   8.424 -2.3056 -0.7611 -2.4663
   17SAPC  H18Z 2268   3.682   4.199   8.567  1.3539 -0.8846 -0.7566
   18SAPC     N 2269   3.211   3.167  10.893  0.1254  0.1846 -0.2147
   18SAPC   C12 2270   3.191   3.109  10.748 -0.1268 -0.3899 -0.1826
   18SAPC  H12A 2271   3.089   3.111  10.713  0.5130 -1.1544 -2.1764
   18SAPC  H12B 2272   3.222   3.006  10.751 -0.9639 -0.5929  2.8552
   18SAPC   C13 2273   3.141   3.074  10.985 -0.8968  0.1414  0.0826
   18SAPC  H13A 2274   3.190   2.978  10.992 -1.8025 -0.1572  2.9306
   18SAPC  H13B 2275   3.152   3.115  11.084 -0.6272 -2.4848  1.1646
   18SAPC  H13C 2276   3.037   3.057  10.961 -0.8647 -0.3902  0.3228
   18SAPC   C14 2277   3.358   3.170  10.932  0.0192 -0.6998 -0.2987
   18SAPC  H14A 2278   3.403   3.245  10.870 -2.8293 -0.2704 -1.9370
   18SAPC  H14B 2279   3.381   3.201  11.033  1.3697 -1.9821 -0.1922
   18SAPC  H14C 2280   3.413   3.077  10.923  1.3220 -0.4058  3.5617
   18SAPC   C15 2281   3.153   3.305  10.914 -0.1784 -0.2367  0.4199
   18SAPC  H15A 2282   3.162   3.377  10.834 -1.0822  0.1119  0.6158
   18SAPC  H15B 2283   3.046   3.290  10.917 -0.1823 -0.0618  3.3751
   18SAPC  H15C 2284   3.190   3.350  11.005  1.2002 -0.6040  0.0501
   18SAPC   C11 2285   3.271   3.182  10.642  0.4490  0.2795  0.5439
   18SAPC  H11A 2286   3.270   3.293  10.643  1.1939  0.3729 -3.8629
   18SAPC  H11B 2287   3.217   3.158  10.548  4.0695  0.2720 -1.6225
   18SAPC     P 2288   3.444   2.991  10.591  0.0176 -0.2620 -0.0550
   18SAPC   O13 2289   3.584   2.957  10.615  0.4340  0.0598 -0.8273
   18SAPC   O14 2290   3.345   2.895  10.647  0.4509 -0.2047  0.2695
   18SAPC   O12 2291   3.411   3.141  10.632  0.2934  0.7364 -0.2902
   18SAPC   O11 2292   3.414   2.984  10.433 -0.5670  0.1520 -0.3873
   18SAPC    C1 2293   3.454   3.087  10.345 -0.0083  0.3417 -0.3233
   18SAPC    HA 2294   3.387   3.173  10.366  2.8715  2.6870 -0.3584
   18SAPC    HB 2295   3.554   3.129  10.368 -0.3927  1.0355  0.0909
   18SAPC    C2 2296   3.447   3.048  10.199  0.6934  0.3828  0.2050
   18SAPC    HS 2297   3.492   2.947  10.188  0.5421  0.0148  2.6874
   18SAPC   O21 2298   3.523   3.136  10.118  0.2859  0.0790 -0.3205
   18SAPC   C21 2299   3.658   3.117  10.118  0.3617 -0.2718  0.4187
   18SAPC   O22 2300   3.718   3.042  10.194 -0.0871 -0.7068  0.0599
   18SAPC   C22 2301   3.724   3.191   9.997 -1.0023 -0.2003 -0.6991
   18SAPC   H2R 2302   3.664   3.280   9.969 -1.4419 -0.4210 -0.4653
   18SAPC   H2S 2303   3.826   3.216  10.032 -1.3705 -1.5414  1.4434
   18SAPC    C3 2304   3.304   3.050  10.145  0.3434 -0.9487  0.7038
   18SAPC    HX 2305   3.266   3.150  10.176  0.1979 -0.6320 -0.4920
   18SAPC    HY 2306   3.244   2.975  10.202  0.4256 -0.7652  1.0307
   18SAPC   O31 2307   3.298   3.028  10.006 -0.4579  0.6471  0.2004
   18SAPC   C31 2308   3.324   2.902   9.962  0.7099  0.2386 -0.0204
   18SAPC   O32 2309   3.346   2.807  10.039 -0.1261 -0.1748 -0.5180
   18SAPC   C32 2310   3.330   2.896   9.807  0.7156 -0.2483  0.5520
   18SAPC   H2X 2311   3.292   2.794   9.785  0.7132 -0.0234 -0.5070
   18SAPC   H2Y 2312   3.439   2.905   9.788  0.5551 -0.1141 -0.3214
   18SAPC   C23 2313   3.729   3.100   9.873 -0.0960 -0.2844  0.1342
   18SAPC   H3R 2314   3.636   3.042   9.854 -1.4185  1.2309  1.9043
   18SAPC   H3S 2315   3.807   3.024   9.895  0.1859  0.3589  1.3631
   18SAPC   C24 2316   3.752   3.169   9.739 -0.5475 -0.4077  0.0932
   18SAPC   H4R 2317   3.860   3.196   9.744 -0.9214  1.3285 -1.1401
   18SAPC   H4S 2318   3.687   3.259   9.737 -2.6126 -1.8848 -0.7779
   18SAPC   C25 2319   3.748   3.089   9.613  0.1300  0.1551 -0.0639
   18SAPC   H5R 2320   3.752   2.979   9.615 -0.1486  0.1634  1.1192
   18SAPC   C26 2321   3.738   3.138   9.484 -0.4084 -0.6314  0.5519
   18SAPC   H6R 2322   3.726   3.066   9.402  3.1308 -0.4195 -0.2221
   18SAPC   C27 2323   3.732   3.279   9.444 -0.0949 -0.1641  0.2708
   18SAPC   H7R 2324   3.796   3.301   9.356  0.3766 -0.2002  0.6022
   18SAPC   H7S 2325   3.763   3.344   9.528  1.5941 -0.3629 -0.1725
   18SAPC   C28 2326   3.594   3.330   9.411 -1.4095 -0.3248 -0.0079
   18SAPC   H8R 2327   3.512   3.304   9.479 -0.3853 -0.6048  1.1403
   18SAPC   C29 2328   3.553   3.414   9.307  0.1065  0.2434 -0.8610
   18SAPC   H9R 2329   3.454   3.462   9.304  0.7778  1.7919  0.6212
   18SAPC  C210 2330   3.648   3.462   9.197  0.0604  0.5506  0.1326
   18SAPC  H10R 2331   3.634   3.396   9.109  0.3510  1.1389 -0.3632
   18SAPC  H10S 2332   3.757   3.457   9.221  0.6638  2.7590 -1.8351
   18SAPC  C211 2333   3.634   3.606   9.145  0.5115  0.0848 -0.1069
   18SAPC  H11R 2334   3.697   3.678   9.199  2.3287 -1.8706  0.4393
   18SAPC  C212 2335   3.565   3.642   9.033  0.6807 -0.1889 -0.1555
   18SAPC  H12R 2336   3.541   3.748   9.016  1.9435  0.0206 -0.6940
   18SAPC  C213 2337   3.486   3.565   8.930  0.3692  0.2103  0.0130
   18SAPC  H13R 2338   3.386   3.613   8.922  0.3259  0.1698  0.3167
   18SAPC  H13S 2339   3.465   3.468   8.980 -0.6550  0.2605 -0.3024
   18SAPC  C214 2340   3.555   3.541   8.799 -0.0784 -0.5725 -0.1901
   18SAPC  H14R 2341   3.646   3.481   8.807 -0.4789 -1.1340  0.2101
   18SAPC  C215 2342   3.524   3.568   8.676 -0.4076 -0.0400  0.2942
   18SAPC  H15R 2343   3.599   3.533   8.603  0.8491  2.6918  0.2144
   18SAPC  C216 2344   3.408   3.640   8.619 -0.0119  0.2194  0.4137
   18SAPC  H16R 2345   3.429   3.745   8.592 -0.8066 -0.0379 -1.2932
   18SAPC  H16S 2346   3.330   3.646   8.699 -1.0607 -0.2717 -0.5474
   18SAPC  C217 2347   3.364   3.563   8.496  0.0244 -0.0087 -0.4462
   18SAPC  H17R 2348   3.335   3.456   8.506 -2.9116  0.9357  1.8931
   18SAPC  H17S 2349   3.438   3.556   8.413  0.3399  1.1589 -0.2704
   18SAPC  C218 2350   3.241   3.625   8.429 -0.5423 -0.6249  0.0203
   18SAPC  H18R 2351   3.257   3.735   8.420  1.1702 -0.9637 -1.5184
   18SAPC  H18S 2352   3.163   3.610   8.506 -0.1032 -1.3647  0.3245
   18SAPC  C219 2353   3.205   3.569   8.287  0.5364  0.9530 -0.4642
   18SAPC  H19R 2354   3.185   3.461   8.303  0.4105  1.0975  0.3404
   18SAPC  H19S 2355   3.295   3.569   8.222 -0.0751  1.1709 -1.3278
   18SAPC  C220 2356   3.096   3.646   8.211 -0.4504 -0.3124 -0.4334
   18SAPC  H20R 2357   3.125   3.750   8.187 -1.9448  0.2313  0.0377
   18SAPC  H20S 2358   2.997   3.650   8.262 -0.6613 -0.4654 -0.8251
   18SAPC  H20T 2359   3.068   3.604   8.112 -2.2579  2.3045 -1.0884
   18SAPC   C33 2360   3.247   3.008   9.737 -0.3570  0.4121 -0.8793
   18SAPC   H3X 2361   3.308   3.101   9.744  0.4820 -0.1421 -0.8526
   18SAPC   H3Y 2362   3.151   3.025   9.791 -1.0245 -0.5901 -1.7432
   18SAPC   C34 2363   3.223   2.973   9.588  0.1062 -0.2435 -0.6668
   18SAPC   H4X 2364   3.145   3.040   9.546 -1.0612 -0.7381  0.6396
   18SAPC   H4Y 2365   3.166   2.877   9.595 -0.5018  0.1090 -0.7251
   18SAPC   C35 2366   3.343   2.970   9.492  0.1064 -0.1098  0.0820
   18SAPC   H5X 2367   3.411   2.886   9.518  0.7489 -0.3359 -2.2216
   18SAPC   H5Y 2368   3.397   3.065   9.513 -0.9820  0.7415 -0.9135
   18SAPC   C36 2369   3.315   2.962   9.339  0.4683 -0.8440  0.0302
   18SAPC   H6X 2370   3.247   3.047   9.319  0.9621  0.2726  2.8694
   18SAPC   H6Y 2371   3.260   2.867   9.325  2.5071 -1.9153 -1.0657
   18SAPC   C37 2372   3.448   2.954   9.266  0.2779  0.6039  0.3262
   18SAPC   H7X 2373   3.518   2.876   9.305 -0.7474  0.4666  1.9443
   18SAPC   H7Y 2374   3.490   3.056   9.271  0.7968  0.4121 -0.0865
   18SAPC   C38 2375   3.453   2.931   9.110  0.4459 -0.9692 -0.0913
   18SAPC   H8X 2376   3.409   2.832   9.086  1.9530 -1.4560 -0.9082
   18SAPC   H8Y 2377   3.554   2.924   9.066 -0.5674  0.5351 -2.7791
   18SAPC   C39 2378   3.376   3.034   9.028 -0.1675  0.0033 -0.0806
   18SAPC   H9X 2379   3.406   3.140   9.042  0.2686  0.0083 -1.0080
   18SAPC   H9Y 2380   3.270   3.024   9.058  0.0305  1.8688  1.2932
   18SAPC  C310 2381   3.377   3.012   8.877  0.5606  0.1019 -0.1494
   18SAPC  H10X 2382   3.286   3.058   8.832 -0.1552 -0.9585  0.1879
   18SAPC  H10Y 2383   3.369   2.903   8.859  1.8892  0.0457 -0.3990
   18SAPC  C311 2384   3.507   3.055   8.806  0.2050  0.7683  0.0168
   18SAPC  H11X 2385   3.542   2.970   8.743 -0.0099 -0.0115  0.9297
   18SAPC  H11Y 2386   3.588   3.066   8.882  0.8951  0.1880 -0.6215
   18SAPC  C312 2387   3.495   3.168   8.697 -0.4496  0.2265 -0.1048
   18SAPC  H12X 2388   3.501   3.267   8.746 -0.0962 -0.0726  0.4664
   18SAPC  H12Y 2389   3.400   3.154   8.641 -0.1782  0.3560 -0.6032
   18SAPC  C313 2390   3.611   3.162   8.594  0.1541 -0.4891  0.3007
   18SAPC  H13X 2391   3.587   3.240   8.519  0.8287  1.0003  1.5900
   18SAPC  H13Y 2392   3.610   3.069   8.533  3.8243 -0.8112  0.5774
   18SAPC  C314 2393   3.740   3.197   8.660 -0.2855  0.4483  0.1433
   18SAPC  H14X 2394   3.770   3.122   8.736 -0.5238  2.2436  2.0606
   18SAPC  H14Y 2395   3.714   3.292   8.713  1.1875  0.2797  1.2088
   18SAPC  C315 2396   3.859   3.230   8.564 -0.0434 -0.4084 -0.6218
   18SAPC  H15X 2397   3.835   3.327   8.516  3.6364  0.5664 -0.5782
   18SAPC  H15Y 2398   3.868   3.151   8.485  0.8232 -0.9351 -0.0006
   18SAPC  C316 2399   3.991   3.239   8.642  0.0654 -0.7203  0.4167
   18SAPC  H16X 2400   4.027   3.142   8.683 -1.2087 -0.6905  1.6851
   18SAPC  H16Y 2401   3.984   3.299   8.736  1.9718  0.1407  0.0277
   18SAPC  C317 2402   4.111   3.288   8.551  0.8274  0.6863 -0.3435
   18SAPC  H17X 2403   4.199   3.297   8.619 -0.8631  1.2881  1.8575
   18SAPC  H17Y 2404   4.080   3.386   8.509 -4.2942 -1.4003 -1.7701
   18SAPC  C318 2405   4.128   3.183   8.436  0.3200  0.0763  0.3731
   18SAPC  H18X 2406   4.047   3.205   8.363  1.3697  1.0437 -0.5173
   18SAPC  H18Y 2407   4.129   3.083   8.484 -2.4240  0.0743  0.5113
   18SAPC  H18Z 2408   4.226   3.207   8.389 -1.5054  4.3672 -1.4697
   19SAPC     N 2409   2.763   4.865  10.459  0.1828  0.2515 -0.5165
   19SAPC   C12 2410   2.726   4.934  10.581 -0.5531 -0.9864 -0.3003
   19SAPC  H12A 2411   2.814   4.975  10.629 -0.9798 -1.3625  0.8339
   19SAPC  H12B 2412   2.675   4.867  10.648 -2.0530  1.5308  1.1819
   19SAPC   C13 2413   2.889   4.783  10.475  0.0471 -0.6531  0.1091
   19SAPC  H13A 2414   2.905   4.727  10.385  2.5818  0.5075 -0.1920
   19SAPC  H13B 2415   2.968   4.854  10.491 -2.5034  2.3357  0.0620
   19SAPC  H13C 2416   2.876   4.711  10.555 -0.9585 -0.1926  0.3724
   19SAPC   C14 2417   2.660   4.764  10.428 -0.2702  0.2723 -0.3314
   19SAPC  H14A 2418   2.676   4.722  10.330  0.6865  3.4784 -1.6077
   19SAPC  H14B 2419   2.663   4.684  10.501  0.5530  0.6420  0.0379
   19SAPC  H14C 2420   2.558   4.795  10.447 -0.6898 -1.7114  0.8214
   19SAPC   C15 2421   2.791   4.963  10.347  0.2435  0.1216  0.0095
   19SAPC  H15A 2422   2.817   4.908  10.259 -1.5119 -0.3749 -0.2199
   19SAPC  H15B 2423   2.696   5.008  10.322 -0.2709 -1.1277 -0.2910
   19SAPC  H15C 2424   2.866   5.038  10.367  0.2491  0.2818 -0.6166
   19SAPC   C11 2425   2.625   5.045  10.574  0.8649  0.1382  0.0616
   19SAPC  H11A 2426   2.662   5.130  10.512  0.5635 -0.9181 -1.5805
   19SAPC  H11B 2427   2.623   5.084  10.678  0.9250 -0.5190  0.3095
   19SAPC     P 2428   2.372   5.081  10.534 -0.0755  0.1106  0.2871
   19SAPC   O13 2429   2.263   4.992  10.481  0.1955  0.2416  0.2681
   19SAPC   O14 2430   2.349   5.155  10.655 -0.4507  0.6821  0.2723
   19SAPC   O12 2431   2.501   4.994  10.548  0.5184 -0.8249 -0.1560
   19SAPC   O11 2432   2.414   5.184  10.430  0.1260  0.2643  0.0200
   19SAPC    C1 2433   2.348   5.303  10.420  0.3808 -0.3104  0.2289
   19SAPC    HA 2434   2.238   5.290  10.428  0.5712 -1.4515  1.1542
   19SAPC    HB 2435   2.400   5.370  10.492  1.6336 -2.1023  1.0094
   19SAPC    C2 2436   2.371   5.370  10.285  0.4873  0.6935  0.2268
   19SAPC    HS 2437   2.310   5.463  10.286 -0.2239  0.2422  2.0801
   19SAPC   O21 2438   2.332   5.280  10.177 -0.1907  0.5897 -0.0499
   19SAPC   C21 2439   2.206   5.252  10.160  0.4184  0.7989 -0.6056
   19SAPC   O22 2440   2.115   5.272  10.234 -0.4608 -0.0204 -0.2315
   19SAPC   C22 2441   2.203   5.183  10.025  0.5852  0.8347 -0.3760
   19SAPC   H2R 2442   2.251   5.256   9.957 -0.6435  1.4973 -0.5540
   19SAPC   H2S 2443   2.265   5.093  10.041 -0.4336  0.1966  0.0332
   19SAPC    C3 2444   2.515   5.406  10.256 -0.9352  0.1570  0.1863
   19SAPC    HX 2445   2.573   5.311  10.267  0.4570  0.8857 -0.7150
   19SAPC    HY 2446   2.554   5.468  10.340 -0.7141  0.4825 -0.1564
   19SAPC   O31 2447   2.519   5.478  10.129 -0.3008 -0.1197 -0.6120
   19SAPC   C31 2448   2.624   5.445  10.057 -0.0089 -0.1829 -0.9391
   19SAPC   O32 2449   2.731   5.409  10.107 -0.3722 -0.2779 -0.1800
   19SAPC   C32 2450   2.597   5.454   9.913  0.7824 -0.5226  0.5315
   19SAPC   H2X 2451   2.693   5.486   9.868  0.2198 -0.6839 -0.7955
   19SAPC   H2Y 2452   2.515   5.528   9.901 -1.0650 -2.5884 -0.0650
   19SAPC   C23 2453   2.058   5.165   9.989 -0.0120 -0.8370  0.0708
   19SAPC   H3R 2454   1.999   5.258  10.001 -0.6122 -1.1182 -0.6660
   19SAPC   H3S 2455   2.019   5.083  10.053  0.9072 -0.6940  0.8132
   19SAPC   C24 2456   2.032   5.102   9.847  0.2128  0.6502  0.3863
   19SAPC   H4R 2457   1.922   5.098   9.834  0.3492  0.6197 -0.8603
   19SAPC   H4S 2458   2.072   4.999   9.855 -0.4456  0.3192 -0.5020
   19SAPC   C25 2459   2.104   5.170   9.732  0.6604 -0.5183  0.6028
   19SAPC   H5R 2460   2.203   5.211   9.755  1.4747 -1.1746 -1.6000
   19SAPC   C26 2461   2.061   5.195   9.607 -0.6008 -0.1982 -0.0660
   19SAPC   H6R 2462   2.142   5.232   9.542  1.3504  0.5197  2.7010
   19SAPC   C27 2463   1.934   5.154   9.540  1.2985 -0.7562 -0.0637
   19SAPC   H7R 2464   1.880   5.237   9.490 -0.4945  0.4577  3.7319
   19SAPC   H7S 2465   1.857   5.122   9.613  1.6383  0.3000  0.7669
   19SAPC   C28 2466   1.957   5.046   9.442  0.0273  0.3815  0.1851
   19SAPC   H8R 2467   2.020   4.972   9.493 -0.3287  0.8875  1.3867
   19SAPC   C29 2468   1.946   5.044   9.305 -0.4379  0.3290 -0.5916
   19SAPC   H9R 2469   1.969   4.956   9.245 -0.1240  0.1365 -0.1926
   19SAPC  C210 2470   1.899   5.161   9.231  0.0406 -0.5099  0.4292
   19SAPC  H10R 2471   1.976   5.241   9.232 -3.3144  3.0099 -1.7186
   19SAPC  H10S 2472   1.806   5.201   9.278 -0.8245 -2.4034  0.3574
   19SAPC  C211 2473   1.865   5.144   9.089  0.3541  0.4242  0.1321
   19SAPC  H11R 2474   1.761   5.175   9.068 -0.1490 -0.5568  1.1110
   19SAPC  C212 2475   1.939   5.106   8.986  0.1967 -0.2573 -0.1023
   19SAPC  H12R 2476   1.891   5.097   8.887  0.4423  0.3693 -0.2796
   19SAPC  C213 2477   2.086   5.071   8.978 -0.1801 -0.2844 -0.3243
   19SAPC  H13R 2478   2.100   4.977   8.921  1.7925  0.5611 -1.2911
   19SAPC  H13S 2479   2.134   5.053   9.077 -1.1418  0.2721  0.2504
   19SAPC  C214 2480   2.182   5.173   8.914  0.0670 -0.4480 -0.6500
   19SAPC  H14R 2481   2.256   5.224   8.977 -1.5788  2.7433 -1.2453
   19SAPC  C215 2482   2.192   5.199   8.785  0.7292  0.1430  0.5055
   19SAPC  H15R 2483   2.267   5.274   8.755  0.5859  0.7437  1.5910
   19SAPC  C216 2484   2.111   5.137   8.671 -0.7464 -0.0400 -0.5403
   19SAPC  H16R 2485   2.021   5.082   8.707  0.3914 -1.8871 -0.5046
   19SAPC  H16S 2486   2.176   5.066   8.616 -3.5124 -3.2428  0.1493
   19SAPC  C217 2487   2.065   5.250   8.581  0.6019  0.1244 -0.4239
   19SAPC  H17R 2488   2.003   5.194   8.508  0.6281 -3.4176  2.1166
   19SAPC  H17S 2489   2.155   5.285   8.525  1.0167  1.3339  0.9685
   19SAPC  C218 2490   1.987   5.360   8.652  0.4884 -0.0532 -0.1163
   19SAPC  H18R 2491   2.055   5.418   8.718  1.2831  0.7513 -1.5930
   19SAPC  H18S 2492   1.901   5.311   8.701 -1.6859  1.1492 -2.6072
   19SAPC  C219 2493   1.923   5.450   8.551 -0.3675 -0.0681 -0.3991
   19SAPC  H19R 2494   1.855   5.394   8.483 -1.6333  0.0137  0.7756
   19SAPC  H19S 2495   2.001   5.495   8.485 -0.1798  1.5743  0.8963
   19SAPC  C220 2496   1.848   5.563   8.617  0.5317 -0.0764  0.2844
   19SAPC  H20R 2497   1.841   5.634   8.532 -1.3809 -1.9099 -1.1354
   19SAPC  H20S 2498   1.897   5.617   8.701 -1.1252 -0.9899  1.8623
   19SAPC  H20T 2499   1.742   5.536   8.639  0.1177  0.6099 -0.8151
   19SAPC   C33 2500   2.538   5.316   9.858 -0.3822  0.4796  0.2526
   19SAPC   H3X 2501   2.449   5.283   9.916 -0.4024  2.4594  1.4068
   19SAPC   H3Y 2502   2.615   5.237   9.874 -1.4553 -1.2667 -2.7382
   19SAPC   C34 2503   2.496   5.328   9.713  0.6125  0.3638 -0.4797
   19SAPC   H4X 2504   2.580   5.383   9.664  1.4327  0.3899  0.9225
   19SAPC   H4Y 2505   2.404   5.387   9.689  0.2919 -0.1082 -0.4140
   19SAPC   C35 2506   2.477   5.193   9.639  0.1861  0.0728 -0.5463
   19SAPC   H5X 2507   2.408   5.133   9.702  1.6988  0.0707  1.1311
   19SAPC   H5Y 2508   2.574   5.139   9.637  0.8264  1.2155 -0.9039
   19SAPC   C36 2509   2.415   5.220   9.499  0.5740 -0.3817 -0.1793
   19SAPC   H6X 2510   2.360   5.317   9.497 -1.3043 -1.3601  1.9064
   19SAPC   H6Y 2511   2.359   5.127   9.476 -0.0226  0.0312 -0.4253
   19SAPC   C37 2512   2.511   5.216   9.390 -0.6456 -0.2657 -0.1684
   19SAPC   H7X 2513   2.567   5.119   9.386  1.5758  1.0412 -2.4911
   19SAPC   H7Y 2514   2.590   5.292   9.411  0.1646 -1.2356  0.3419
   19SAPC   C38 2515   2.448   5.241   9.252 -0.0560  0.0532  0.5844
   19SAPC   H8X 2516   2.417   5.346   9.233 -2.0166 -0.8663 -1.4573
   19SAPC   H8Y 2517   2.353   5.185   9.239 -0.8333  1.2089  1.0978
   19SAPC   C39 2518   2.547   5.211   9.138  0.1659  0.1633 -0.7547
   19SAPC   H9X 2519   2.564   5.101   9.137  2.0017  0.4163 -0.2407
   19SAPC   H9Y 2520   2.639   5.264   9.171  0.5345 -2.2170  2.3119
   19SAPC  C310 2521   2.503   5.258   9.000 -0.1696 -0.3159 -0.0681
   19SAPC  H10X 2522   2.419   5.329   9.017  0.5188  0.6298 -0.5782
   19SAPC  H10Y 2523   2.466   5.169   8.943 -1.7257  0.1408  0.1962
   19SAPC  C311 2524   2.608   5.320   8.909  0.2793  0.1605  0.0101
   19SAPC  H11X 2525   2.697   5.258   8.887  1.5654  2.7779 -2.4899
   19SAPC  H11Y 2526   2.633   5.416   8.960 -1.0953  0.4075  0.2226
   19SAPC  C312 2527   2.551   5.355   8.773 -0.0050 -0.1877  0.5580
   19SAPC  H12X 2528   2.460   5.418   8.784 -1.0397 -1.5376 -0.0603
   19SAPC  H12Y 2529   2.520   5.255   8.737 -0.5481 -0.3924  1.5888
   19SAPC  C313 2530   2.654   5.418   8.681 -0.2069  0.1055 -0.2246
   19SAPC  H13X 2531   2.761   5.391   8.696  0.1757  0.6240 -1.9742
   19SAPC  H13Y 2532   2.654   5.527   8.704  0.3819 -0.3298  1.9330
   19SAPC  C314 2533   2.610   5.400   8.537 -0.4609  0.1483 -1.3072
   19SAPC  H14X 2534   2.627   5.293   8.512  0.8189 -0.0821  0.4801
   19SAPC  H14Y 2535   2.679   5.470   8.486  0.0214  0.7429  0.1469
   19SAPC  C315 2536   2.465   5.455   8.513 -0.4215  0.4443  0.5204
   19SAPC  H15X 2537   2.464   5.563   8.537 -0.2041  0.2418  1.4471
   19SAPC  H15Y 2538   2.393   5.398   8.575 -0.3399  1.2710  1.3861
   19SAPC  C316 2539   2.417   5.449   8.370  0.1479 -0.3879 -0.4406
   19SAPC  H16X 2540   2.325   5.506   8.343  1.3381  1.0973 -1.4182
   19SAPC  H16Y 2541   2.396   5.345   8.339 -1.2698 -0.1432 -0.3354
   19SAPC  C317 2542   2.531   5.498   8.270  0.1992  0.4473 -0.9331
   19SAPC  H17X 2543   2.599   5.411   8.261  2.2971  2.0801 -1.2482
   19SAPC  H17Y 2544   2.575   5.591   8.312  0.2198 -1.1313  2.7519
   19SAPC  C318 2545   2.477   5.523   8.123 -0.1499  0.3833 -0.4834
   19SAPC  H18X 2546   2.391   5.593   8.119  0.8598  1.6418 -0.5620
   19SAPC  H18Y 2547   2.445   5.425   8.079 -3.0860  0.9703  0.2326
   19SAPC  H18Z 2548   2.554   5.570   8.058  0.8907  1.6494  1.6338
   20SAPC     N 2549   2.140   2.597  11.038  0.1237  0.3042  0.9854
   20SAPC   C12 2550   2.044   2.562  10.926  0.2818  0.1284  0.0657
   20SAPC  H12A 2551   2.104   2.555  10.837 -0.2898  0.3089 -0.3314
   20SAPC  H12B 2552   1.974   2.644  10.916  0.3040  0.4069  1.9410
   20SAPC   C13 2553   2.208   2.736  11.007  0.3898  0.1016  0.3465
   20SAPC  H13A 2554   2.263   2.763  11.096  0.7610  1.5073 -0.2972
   20SAPC  H13B 2555   2.268   2.733  10.918  0.7592 -0.6123  0.6188
   20SAPC  H13C 2556   2.137   2.817  10.994  0.2266  0.4052  2.8458
   20SAPC   C14 2557   2.081   2.612  11.174 -0.2975  0.3439 -0.6292
   20SAPC  H14A 2558   2.018   2.529  11.200 -0.1820 -0.4426 -2.7463
   20SAPC  H14B 2559   2.160   2.615  11.248  0.3876  0.7979 -1.3656
   20SAPC  H14C 2560   2.026   2.705  11.178  0.8305  0.9971  0.1205
   20SAPC   C15 2561   2.254   2.500  11.045  0.5666  0.1623 -0.5883
   20SAPC  H15A 2562   2.328   2.540  11.113 -0.7200 -0.9703  1.5075
   20SAPC  H15B 2563   2.223   2.397  11.055 -1.7121  0.9169  0.4189
   20SAPC  H15C 2564   2.308   2.504  10.951 -2.1942  0.2846 -2.2222
   20SAPC   C11 2565   1.954   2.436  10.917  0.2981  0.8131  0.2198
   20SAPC  H11A 2566   1.894   2.450  10.825 -1.2001 -2.6278  0.6072
   20SAPC  H11B 2567   1.879   2.434  10.999  0.2105 -1.1476  0.1053
   20SAPC     P 2568   2.006   2.183  10.880 -0.0305  0.3193  0.1851
   20SAPC   O13 2569   2.099   2.089  10.954 -0.9013  0.4053  0.1123
   20SAPC   O14 2570   1.860   2.152  10.885 -0.2713 -0.4007  0.9015
   20SAPC   O12 2571   2.034   2.326  10.930  0.7075 -0.3928  0.3136
   20SAPC   O11 2572   2.049   2.184  10.725 -0.5164  0.8264  0.3419
   20SAPC    C1 2573   2.160   2.255  10.683 -0.5198 -0.7727  0.5202
   20SAPC    HA 2574   2.128   2.331  10.608 -0.2228  1.1399  2.2739
   20SAPC    HB 2575   2.218   2.307  10.763 -1.2071 -0.2010  0.6522
   20SAPC    C2 2576   2.269   2.174  10.606 -0.0771 -0.7145 -0.2470
   20SAPC    HS 2577   2.328   2.140  10.693  2.2429  1.0950 -1.0764
   20SAPC   O21 2578   2.333   2.267  10.516 -0.4243  0.4964  0.1537
   20SAPC   C21 2579   2.461   2.231  10.488  0.6986  0.1453  0.6414
   20SAPC   O22 2580   2.525   2.153  10.557  0.5270  0.2453 -0.6602
   20SAPC   C22 2581   2.505   2.296  10.361 -0.3280 -0.5322 -0.3972
   20SAPC   H2R 2582   2.414   2.317  10.300 -0.2841  1.8510  0.3085
   20SAPC   H2S 2583   2.559   2.388  10.394  1.5107 -1.2035 -1.4464
   20SAPC    C3 2584   2.210   2.049  10.537 -0.0427 -0.5594  0.2631
   20SAPC    HX 2585   2.153   2.095  10.453 -1.3628  0.6984  1.8078
   20SAPC    HY 2586   2.127   2.005  10.595 -1.4957 -1.3903 -2.3655
   20SAPC   O31 2587   2.317   1.956  10.485 -0.2034  0.7962 -0.7538
   20SAPC   C31 2588   2.357   1.872  10.576 -0.3472 -0.6043  0.3199
   20SAPC   O32 2589   2.321   1.864  10.694  0.2163  0.2428  0.5221
   20SAPC   C32 2590   2.448   1.767  10.501  0.3309  0.0784  0.2399
   20SAPC   H2X 2591   2.538   1.757  10.566  0.3069 -0.8961  0.1387
   20SAPC   H2Y 2592   2.479   1.823  10.410 -0.1730 -0.3725 -0.2180
   20SAPC   C23 2593   2.612   2.222  10.276  0.4630 -0.5309  1.0057
   20SAPC   H3R 2594   2.695   2.186  10.340  1.0786 -2.6059 -0.8969
   20SAPC   H3S 2595   2.656   2.299  10.209  0.3993 -0.4427  1.0645
   20SAPC   C24 2596   2.563   2.109  10.180  0.3449 -0.1060  0.7482
   20SAPC   H4R 2597   2.508   2.038  10.246 -0.9259  1.6396  1.6035
   20SAPC   H4S 2598   2.652   2.061  10.135  0.7958  0.7906  0.6640
   20SAPC   C25 2599   2.461   2.167  10.086 -0.1399 -0.0915 -0.8661
   20SAPC   H5R 2600   2.362   2.181  10.134  0.5986  0.1346  0.6217
   20SAPC   C26 2601   2.489   2.196   9.956 -0.7083  0.8318 -0.2502
   20SAPC   H6R 2602   2.403   2.229   9.896  0.5717  0.5498 -2.3299
   20SAPC   C27 2603   2.622   2.187   9.872 -0.3300 -0.5639  0.1029
   20SAPC   H7R 2604   2.596   2.153   9.770 -0.0670  1.2966 -0.6153
   20SAPC   H7S 2605   2.690   2.110   9.914  0.9089  0.6274  0.3413
   20SAPC   C28 2606   2.695   2.321   9.849  1.0054 -0.2208 -0.4480
   20SAPC   H8R 2607   2.737   2.357   9.944 -1.1799  0.0088  0.4552
   20SAPC   C29 2608   2.733   2.379   9.736  0.3795 -0.1694 -0.6285
   20SAPC   H9R 2609   2.788   2.473   9.751  0.9610 -0.3211 -1.7322
   20SAPC  C210 2610   2.715   2.321   9.602 -0.0312 -0.4466  0.4170
   20SAPC  H10R 2611   2.606   2.334   9.583  0.0871  0.2711  0.1951
   20SAPC  H10S 2612   2.735   2.212   9.591 -0.1283 -0.4858  0.6287
   20SAPC  C211 2613   2.791   2.383   9.488  0.4316  0.6859 -0.4029
   20SAPC  H11R 2614   2.870   2.452   9.522 -0.6287  1.3438  0.7495
   20SAPC  C212 2615   2.759   2.380   9.356 -0.0890  0.2546  0.8702
   20SAPC  H12R 2616   2.835   2.425   9.289 -0.5504 -0.4011 -0.1096
   20SAPC  C213 2617   2.637   2.318   9.289  0.6802 -0.2601 -0.2809
   20SAPC  H13R 2618   2.570   2.402   9.261  0.0516 -1.1706 -1.5287
   20SAPC  H13S 2619   2.579   2.257   9.361 -0.0551  1.1813  0.3636
   20SAPC  C214 2620   2.655   2.239   9.163 -0.2194 -0.4618 -0.0506
   20SAPC  H14R 2621   2.697   2.140   9.186 -1.8017 -0.7528  1.7862
   20SAPC  C215 2622   2.630   2.271   9.033 -0.5151 -0.1259  0.6288
   20SAPC  H15R 2623   2.624   2.196   8.954  1.0248  1.3349 -0.9184
   20SAPC  C216 2624   2.575   2.406   8.995 -0.4512 -0.2385 -0.3673
   20SAPC  H16R 2625   2.621   2.478   9.066  1.2777 -1.1459 -0.5102
   20SAPC  H16S 2626   2.467   2.413   9.017  0.1559  0.8407  2.5595
   20SAPC  C217 2627   2.603   2.472   8.863  0.1402 -0.1786 -0.2706
   20SAPC  H17R 2628   2.712   2.473   8.843  0.8005  1.6979  3.1402
   20SAPC  H17S 2629   2.582   2.581   8.864  1.0777  0.0441 -2.3913
   20SAPC  C218 2630   2.535   2.398   8.742  0.6063 -0.5837 -0.4676
   20SAPC  H18R 2631   2.427   2.418   8.760  0.4955 -1.8737  0.4047
   20SAPC  H18S 2632   2.555   2.289   8.740  1.8247 -0.3707 -0.4811
   20SAPC  C219 2633   2.559   2.452   8.605  0.1969  0.8058  0.0488
   20SAPC  H19R 2634   2.666   2.425   8.589 -0.1718 -2.2530  2.1351
   20SAPC  H19S 2635   2.553   2.563   8.614 -2.4185  0.8711 -1.9486
   20SAPC  C220 2636   2.465   2.391   8.499  0.2942 -0.4461  0.4319
   20SAPC  H20R 2637   2.485   2.446   8.405 -2.5539 -0.9332 -0.4771
   20SAPC  H20S 2638   2.356   2.408   8.509  0.1803 -2.0728  2.3445
   20SAPC  H20T 2639   2.486   2.284   8.478  0.9962 -0.1120 -0.5895
   20SAPC   C33 2640   2.381   1.630  10.471  0.3000  0.8491 -0.4367
   20SAPC   H3X 2641   2.332   1.587  10.560 -1.2289  2.0275 -0.6917
   20SAPC   H3Y 2642   2.464   1.561  10.444  0.9948  1.3363  0.4006
   20SAPC   C34 2643   2.284   1.633  10.354 -0.9217  0.6057  0.0967
   20SAPC   H4X 2644   2.322   1.694  10.269  1.5125 -1.4733 -0.3725
   20SAPC   H4Y 2645   2.189   1.675  10.393 -0.4194  1.3295  0.5687
   20SAPC   C35 2646   2.263   1.499  10.281 -0.4118  0.3830  0.0412
   20SAPC   H5X 2647   2.226   1.427  10.357 -0.8475  0.4369 -0.1131
   20SAPC   H5Y 2648   2.357   1.456  10.242 -0.2866 -1.8263  2.6410
   20SAPC   C36 2649   2.145   1.514  10.176  0.2046 -0.0607  1.0545
   20SAPC   H6X 2650   2.055   1.576  10.197 -0.3370 -0.5346  0.1753
   20SAPC   H6Y 2651   2.109   1.411  10.153 -1.8598  0.7098  0.6800
   20SAPC   C37 2652   2.206   1.572  10.048  0.6254 -1.0953 -0.4548
   20SAPC   H7X 2653   2.298   1.513  10.026  1.3538 -1.0646  2.2955
   20SAPC   H7Y 2654   2.241   1.674  10.071 -0.2057 -0.4410 -2.0590
   20SAPC   C38 2655   2.113   1.555   9.927 -0.7556 -1.0620 -0.6635
   20SAPC   H8X 2656   2.024   1.613   9.957  0.2874  0.2027  0.0484
   20SAPC   H8Y 2657   2.085   1.449   9.909 -1.7894 -0.9767  0.3909
   20SAPC   C39 2658   2.175   1.613   9.797 -0.3932 -0.3546 -0.1045
   20SAPC   H9X 2659   2.281   1.579   9.801  0.1181  1.3444  4.4998
   20SAPC   H9Y 2660   2.171   1.724   9.802 -0.4333 -0.4129  1.3877
   20SAPC  C310 2661   2.091   1.575   9.671  0.1900 -0.7518  0.2455
   20SAPC  H10X 2662   1.989   1.607   9.702 -0.5433 -3.2434  0.4725
   20SAPC  H10Y 2663   2.099   1.465   9.663 -1.0686 -0.7757 -0.6516
   20SAPC  C311 2664   2.150   1.653   9.551 -0.3300  0.0851 -0.4719
   20SAPC  H11X 2665   2.260   1.640   9.544 -0.2182  0.6578  0.1328
   20SAPC  H11Y 2666   2.129   1.760   9.572 -0.4672 -0.0003 -0.1761
   20SAPC  C312 2667   2.073   1.621   9.429 -0.1684  0.1729 -0.5260
   20SAPC  H12X 2668   1.964   1.623   9.453  0.0885 -3.9401  1.5610
   20SAPC  H12Y 2669   2.096   1.516   9.401 -0.3932  0.0239 -0.1561
   20SAPC  C313 2670   2.118   1.703   9.312 -0.2604 -0.1958 -0.0972
   20SAPC  H13X 2671   2.223   1.675   9.287 -0.1106  0.3879 -0.1317
   20SAPC  H13Y 2672   2.128   1.809   9.342 -1.8380  0.5958 -2.2010
   20SAPC  C314 2673   2.018   1.711   9.193  0.1412  0.4044  0.1942
   20SAPC  H14X 2674   1.943   1.788   9.222 -0.6606  0.4811 -1.9755
   20SAPC  H14Y 2675   1.964   1.615   9.176  0.4277  0.4322 -0.9026
   20SAPC  C315 2676   2.081   1.740   9.058 -0.0745 -0.3582 -0.0251
   20SAPC  H15X 2677   2.125   1.650   9.010  0.4959  0.0758 -0.3360
   20SAPC  H15Y 2678   2.166   1.812   9.062 -0.8764  0.5499  0.7194
   20SAPC  C316 2679   1.985   1.819   8.961  0.4473  0.0683  0.2991
   20SAPC  H16X 2680   1.957   1.914   9.013  2.6216  0.4487  0.8018
   20SAPC  H16Y 2681   1.890   1.766   8.936  0.3175  0.7905 -0.8027
   20SAPC  C317 2682   2.050   1.850   8.825  0.8175 -0.8455 -0.3051
   20SAPC  H17X 2683   2.149   1.898   8.842  2.0555 -2.6758 -2.1456
   20SAPC  H17Y 2684   1.989   1.931   8.780  1.5134 -1.2506 -1.9969
   20SAPC  C318 2685   2.063   1.735   8.719 -0.5508 -0.2450 -0.3168
   20SAPC  H18X 2686   2.146   1.667   8.748 -0.1373  1.4037  2.5625
   20SAPC  H18Y 2687   2.114   1.758   8.623  2.0599 -1.0872  0.8342
   20SAPC  H18Z 2688   1.960   1.696   8.704  0.0263 -2.0281  0.2259
   21SAPC     N 2689   2.671   0.551  10.990  0.5366 -0.3213  0.1593
   21SAPC   C12 2690   2.643   0.491  10.849  0.0495  0.2124 -0.4763
   21SAPC  H12A 2691   2.727   0.427  10.824 -1.3609 -1.8721 -0.0061
   21SAPC  H12B 2692   2.657   0.564  10.771  1.8105 -2.6168 -2.8949
   21SAPC   C13 2693   2.633   0.449  11.098 -0.0999  0.1847  0.1985
   21SAPC  H13A 2694   2.625   0.499  11.193 -0.2747 -0.1608  0.3664
   21SAPC  H13B 2695   2.530   0.425  11.076  0.3632 -2.0577  0.4023
   21SAPC  H13C 2696   2.701   0.366  11.106 -0.0529  0.1783 -0.2839
   21SAPC   C14 2697   2.817   0.571  10.991  0.6228 -0.2704 -0.5841
   21SAPC  H14A 2698   2.858   0.603  11.086 -0.7841 -1.5736  0.4897
   21SAPC  H14B 2699   2.868   0.483  10.956  3.3594  0.0665  2.3339
   21SAPC  H14C 2700   2.841   0.643  10.914 -1.4768 -2.1645 -3.0829
   21SAPC   C15 2701   2.591   0.681  11.019  0.1046  0.1857 -0.3654
   21SAPC  H15A 2702   2.488   0.659  10.995 -0.5657  0.5114  2.0765
   21SAPC  H15B 2703   2.608   0.716  11.120  0.1939  0.5389 -0.5037
   21SAPC  H15C 2704   2.622   0.757  10.948 -2.2317  0.1931 -1.4093
   21SAPC   C11 2705   2.510   0.411  10.832 -0.0087  0.4085 -0.8774
   21SAPC  H11A 2706   2.512   0.316  10.890 -2.9573  0.2417 -0.9314
   21SAPC  H11B 2707   2.518   0.383  10.725 -2.6063 -0.3025 -0.9336
   21SAPC     P 2708   2.332   0.603  10.774  0.2869  0.3720  0.1804
   21SAPC   O13 2709   2.228   0.562  10.681 -0.9219 -0.1212  0.2414
   21SAPC   O14 2710   2.292   0.710  10.874 -0.0237 -0.5440 -0.2218
   21SAPC   O12 2711   2.389   0.479  10.856 -0.2607  0.1112  0.0950
   21SAPC   O11 2712   2.473   0.640  10.691  0.1683 -0.9472  0.1869
   21SAPC    C1 2713   2.495   0.769  10.639 -0.1182  0.1321 -0.3493
   21SAPC    HA 2714   2.501   0.847  10.719  0.7883 -0.4526  0.1625
   21SAPC    HB 2715   2.593   0.768  10.587 -0.4019  0.3180 -0.8874
   21SAPC    C2 2716   2.399   0.818  10.521  1.2372  0.2483 -0.0090
   21SAPC    HS 2717   2.332   0.893  10.567  0.7795  0.7185 -1.4083
   21SAPC   O21 2718   2.328   0.712  10.459  0.1494 -0.5841  0.1130
   21SAPC   C21 2719   2.203   0.747  10.428 -0.2536  0.2678 -0.0041
   21SAPC   O22 2720   2.146   0.854  10.455  0.0555 -0.1025  0.1750
   21SAPC   C22 2721   2.121   0.636  10.374  0.2769  0.1114  0.3416
   21SAPC   H2R 2722   2.132   0.552  10.446  1.4315  2.1523  2.6552
   21SAPC   H2S 2723   2.011   0.649  10.370  0.0009 -1.7384  1.1788
   21SAPC    C3 2724   2.471   0.915  10.418  0.1142 -0.2692 -0.3525
   21SAPC    HX 2725   2.544   0.855  10.359 -1.1704 -1.0256 -1.2067
   21SAPC    HY 2726   2.526   0.999  10.466  0.9787 -0.5748 -0.7811
   21SAPC   O31 2727   2.368   0.973  10.329  0.5903  0.3948  0.3743
   21SAPC   C31 2728   2.393   1.092  10.274  0.2848  0.6039  0.5859
   21SAPC   O32 2729   2.482   1.168  10.310  0.4677  0.3276  0.8117
   21SAPC   C32 2730   2.279   1.128  10.174  0.3640 -0.1372 -0.0850
   21SAPC   H2X 2731   2.217   1.199  10.233 -0.4119 -1.4569  0.7058
   21SAPC   H2Y 2732   2.219   1.038  10.148  2.3734 -1.5127 -0.0706
   21SAPC   C23 2733   2.171   0.589  10.234 -0.1469  0.7680  0.3506
   21SAPC   H3R 2734   2.141   0.483  10.219  0.6038  0.6606 -0.3825
   21SAPC   H3S 2735   2.282   0.591  10.227 -0.0881 -2.1728  0.0011
   21SAPC   C24 2736   2.116   0.675  10.122  0.7771  0.0206 -0.3203
   21SAPC   H4R 2737   2.177   0.648  10.033  1.7676  3.8332 -0.9304
   21SAPC   H4S 2738   2.148   0.778  10.150  2.0646 -0.6741  0.8654
   21SAPC   C25 2739   1.971   0.660  10.088  0.0312 -0.3833 -0.8793
   21SAPC   H5R 2740   1.917   0.697  10.177 -0.3466 -1.6131 -0.5944
   21SAPC   C26 2741   1.913   0.600   9.980  0.2173  0.1439  0.8475
   21SAPC   H6R 2742   1.804   0.604   9.973  0.1484  1.4836  2.4132
   21SAPC   C27 2743   1.986   0.531   9.868  0.0876 -0.7493  0.4011
   21SAPC   H7R 2744   2.032   0.435   9.899  1.2148  0.8621  3.9181
   21SAPC   H7S 2745   2.072   0.592   9.833  0.0154 -0.4886  0.6743
   21SAPC   C28 2746   1.893   0.516   9.751  0.2406  0.3246 -0.7032
   21SAPC   H8R 2747   1.792   0.483   9.780  0.2017 -1.8800 -3.1267
   21SAPC   C29 2748   1.921   0.532   9.621  0.0112  0.2219  0.6851
   21SAPC   H9R 2749   1.846   0.501   9.547 -1.6256  2.7499  1.2545
   21SAPC  C210 2750   2.054   0.579   9.561 -0.3698  0.5303  0.7355
   21SAPC  H10R 2751   2.135   0.554   9.633 -1.2142 -0.5962  1.3035
   21SAPC  H10S 2752   2.059   0.690   9.555 -2.5316  0.5960 -0.3081
   21SAPC  C211 2753   2.072   0.520   9.427 -0.3982 -0.0966 -0.2891
   21SAPC  H11R 2754   2.086   0.411   9.420  2.1811  0.2484 -1.2707
   21SAPC  C212 2755   2.046   0.568   9.306 -0.2470  0.5344  0.0235
   21SAPC  H12R 2756   2.053   0.501   9.219 -1.1499 -3.0239  2.5774
   21SAPC  C213 2757   1.996   0.714   9.278 -0.9907  0.2026  0.2341
   21SAPC  H13R 2758   1.959   0.745   9.378  0.2408  0.9672  0.4624
   21SAPC  H13S 2759   1.919   0.700   9.198  0.0237 -2.4733 -0.3370
   21SAPC  C214 2760   2.107   0.809   9.243 -0.1666 -1.3083 -0.1727
   21SAPC  H14R 2761   2.187   0.802   9.319  0.1687  0.1944 -0.3878
   21SAPC  C215 2762   2.107   0.907   9.149 -0.1219 -0.2593 -0.2998
   21SAPC  H15R 2763   2.198   0.969   9.142 -0.5213  0.2567 -0.9598
   21SAPC  C216 2764   1.999   0.949   9.053 -0.3941  0.1067  0.4972
   21SAPC  H16R 2765   1.951   1.041   9.093 -0.6540  0.1180  0.1700
   21SAPC  H16S 2766   1.918   0.873   9.057 -0.1856 -0.2138 -0.9464
   21SAPC  C217 2767   2.043   0.988   8.908 -0.1786 -0.3492  0.3184
   21SAPC  H17R 2768   2.126   1.060   8.922 -0.0297 -0.5986  0.7427
   21SAPC  H17S 2769   1.963   1.049   8.861 -1.4599 -0.8076  1.8175
   21SAPC  C218 2770   2.079   0.860   8.816  0.2082 -0.3936  0.2524
   21SAPC  H18R 2771   2.047   0.887   8.713 -2.2614  0.1098  1.1274
   21SAPC  H18S 2772   2.023   0.770   8.848  2.5061 -1.6733  0.8217
   21SAPC  C219 2773   2.232   0.832   8.816  0.0496 -0.3832  0.3215
   21SAPC  H19R 2774   2.259   0.733   8.775  2.4281  0.9880 -1.5085
   21SAPC  H19S 2775   2.268   0.843   8.920  2.4716  0.6489 -0.5999
   21SAPC  C220 2776   2.325   0.921   8.729 -0.2479 -0.4402  0.0641
   21SAPC  H20R 2777   2.286   0.913   8.626 -0.6507 -0.4025  0.2111
   21SAPC  H20S 2778   2.426   0.876   8.742  0.5633  1.6231  1.0035
   21SAPC  H20T 2779   2.319   1.023   8.771 -0.4360 -0.5403  0.2855
   21SAPC   C33 2780   2.336   1.188  10.045 -0.3139  0.7161 -0.8065
   21SAPC   H3X 2781   2.397   1.279  10.065  1.4389 -0.5485 -0.2297
   21SAPC   H3Y 2782   2.249   1.226   9.988 -3.3547 -3.4023  0.8731
   21SAPC   C34 2783   2.426   1.089   9.970 -0.2489  0.1168  0.1773
   21SAPC   H4X 2784   2.354   1.013   9.934  0.6720 -1.0896  0.8566
   21SAPC   H4Y 2785   2.506   1.048  10.035  2.3863  2.1145 -1.6998
   21SAPC   C35 2786   2.497   1.163   9.854  0.2558  0.0575 -0.0477
   21SAPC   H5X 2787   2.584   1.106   9.814  0.0942 -0.3111  0.1336
   21SAPC   H5Y 2788   2.537   1.259   9.894 -0.5289 -0.4448  2.0066
   21SAPC   C36 2789   2.407   1.193   9.736  0.4070 -0.0637  0.2550
   21SAPC   H6X 2790   2.319   1.245   9.778  1.2396 -0.6105  2.7615
   21SAPC   H6Y 2791   2.376   1.100   9.685 -0.7508 -0.3437  1.4372
   21SAPC   C37 2792   2.474   1.275   9.629 -0.4977 -0.2022 -0.1848
   21SAPC   H7X 2793   2.570   1.239   9.586 -1.9308 -1.5542 -2.3616
   21SAPC   H7Y 2794   2.499   1.371   9.678  1.9694  0.7872 -3.2391
   21SAPC   C38 2795   2.378   1.312   9.510 -0.2122  0.3380 -1.2689
   21SAPC   H8X 2796   2.308   1.387   9.552  0.1309 -0.4986  0.8657
   21SAPC   H8Y 2797   2.320   1.224   9.476 -0.8455 -0.2284  1.1593
   21SAPC   C39 2798   2.461   1.382   9.397 -0.0871 -0.1110 -0.2611
   21SAPC   H9X 2799   2.550   1.316   9.399  0.5296  0.7295  0.5442
   21SAPC   H9Y 2800   2.500   1.484   9.416 -0.3081  0.3457 -2.1720
   21SAPC  C310 2801   2.389   1.380   9.260  0.3989 -0.1123 -0.5417
   21SAPC  H10X 2802   2.461   1.427   9.189 -0.9006  1.5371 -0.7929
   21SAPC  H10Y 2803   2.294   1.437   9.257 -0.0721 -0.9233 -1.5397
   21SAPC  C311 2804   2.357   1.239   9.200  0.9160 -0.2054 -0.6033
   21SAPC  H11X 2805   2.281   1.184   9.259  2.2762  0.7904  2.1791
   21SAPC  H11Y 2806   2.456   1.190   9.214  0.5370 -1.0494 -0.8783
   21SAPC  C312 2807   2.317   1.244   9.047  0.0099  0.4842 -0.4765
   21SAPC  H12X 2808   2.228   1.310   9.052  1.0102  1.8892 -0.7851
   21SAPC  H12Y 2809   2.290   1.148   8.999  0.2887  0.3339 -0.3364
   21SAPC  C313 2810   2.419   1.317   8.959 -0.4259 -0.5254  0.2883
   21SAPC  H13X 2811   2.516   1.265   8.964  1.5741  2.7001 -2.6954
   21SAPC  H13Y 2812   2.436   1.417   9.004  0.2032 -1.0625  1.2473
   21SAPC  C314 2813   2.384   1.321   8.810  0.4101 -0.2345  0.2103
   21SAPC  H14X 2814   2.286   1.369   8.794 -0.5681 -0.7469  4.2250
   21SAPC  H14Y 2815   2.380   1.218   8.768  0.4508  0.1094 -0.6563
   21SAPC  C315 2816   2.494   1.388   8.724 -0.1743 -0.3726 -0.6261
   21SAPC  H15X 2817   2.589   1.342   8.760 -0.7860 -0.8472  0.4074
   21SAPC  H15Y 2818   2.506   1.497   8.738  1.5659 -0.6984  0.6747
   21SAPC  C316 2819   2.506   1.351   8.573 -0.0681 -0.2914  0.5104
   21SAPC  H16X 2820   2.406   1.364   8.526  0.5788 -0.1083 -0.8405
   21SAPC  H16Y 2821   2.523   1.241   8.571 -0.9314 -0.4128 -0.8736
   21SAPC  C317 2822   2.611   1.426   8.495 -0.0569 -0.4182  0.6175
   21SAPC  H17X 2823   2.693   1.440   8.569 -1.2209  0.1217  1.8216
   21SAPC  H17Y 2824   2.579   1.529   8.470 -0.8765 -1.4025 -2.7029
   21SAPC  C318 2825   2.678   1.346   8.377  0.2309  0.5455 -0.1272
   21SAPC  H18X 2826   2.760   1.406   8.332 -0.6315  2.1772  0.4437
   21SAPC  H18Y 2827   2.599   1.322   8.303  0.2847  0.7837 -0.2647
   21SAPC  H18Z 2828   2.711   1.248   8.417 -0.3130  1.2231  2.0077
   22SAPC     N 2829   1.131   5.409  10.666  0.2923  0.2694  0.4614
   22SAPC   C12 2830   1.285   5.413  10.643  0.0531  0.0261  0.3104
   22SAPC  H12A 2831   1.313   5.325  10.587 -0.0219  1.1928 -1.6182
   22SAPC  H12B 2832   1.326   5.415  10.743  2.6651  0.7222 -0.7321
   22SAPC   C13 2833   1.056   5.374  10.540  1.0471  0.5114 -0.0429
   22SAPC  H13A 2834   1.061   5.461  10.477 -1.2816 -0.8928 -2.2625
   22SAPC  H13B 2835   1.092   5.285  10.491 -1.2322  0.6780 -2.1591
   22SAPC  H13C 2836   0.950   5.370  10.562  1.3879  2.6707  2.2137
   22SAPC   C14 2837   1.099   5.303  10.761 -0.0059 -0.1023  0.4498
   22SAPC  H14A 2838   1.145   5.210  10.729  2.6909  1.6434 -0.9741
   22SAPC  H14B 2839   1.134   5.322  10.861  1.0159 -0.4427  0.1685
   22SAPC  H14C 2840   0.992   5.289  10.768  0.2412 -3.0337 -0.6559
   22SAPC   C15 2841   1.070   5.534  10.717 -0.3511 -0.0145  0.9391
   22SAPC  H15A 2842   1.115   5.562  10.811  0.1031 -0.5644  0.8894
   22SAPC  H15B 2843   1.087   5.606  10.639  0.7418 -2.2725 -0.9872
   22SAPC  H15C 2844   0.963   5.525  10.728 -0.6125  2.9302  1.1667
   22SAPC   C11 2845   1.336   5.530  10.559 -0.0991 -0.1079  0.1458
   22SAPC  H11A 2846   1.285   5.536  10.461 -0.2028  0.6402  0.2504
   22SAPC  H11B 2847   1.436   5.499  10.523 -0.3520  0.0984 -0.7399
   22SAPC     P 2848   1.469   5.692  10.713 -0.1764  0.0405  0.3762
   22SAPC   O13 2849   1.438   5.820  10.770 -0.4303 -0.2516  0.1797
   22SAPC   O14 2850   1.494   5.581  10.805 -0.2826  0.1094  0.0449
   22SAPC   O12 2851   1.347   5.653  10.623 -0.6448  0.1845  0.1590
   22SAPC   O11 2852   1.582   5.704  10.599 -0.2693 -0.3680  0.0613
   22SAPC    C1 2853   1.596   5.837  10.541 -0.2842  0.0207  0.2494
   22SAPC    HA 2854   1.497   5.883  10.525  0.1403  0.8470 -0.0464
   22SAPC    HB 2855   1.659   5.906  10.601  0.5281 -1.8026  1.5462
   22SAPC    C2 2856   1.657   5.839  10.399 -0.2257 -0.2937  0.1389
   22SAPC    HS 2857   1.644   5.928  10.334 -3.6889 -1.2544 -0.5593
   22SAPC   O21 2858   1.609   5.727  10.325  0.2206 -0.1103  0.0579
   22SAPC   C21 2859   1.489   5.741  10.261  0.0229  0.1640 -0.5343
   22SAPC   O22 2860   1.420   5.841  10.276  0.4008  0.0726  0.1182
   22SAPC   C22 2861   1.460   5.626  10.167 -0.1486 -0.8367 -0.2957
   22SAPC   H2R 2862   1.463   5.540  10.236  2.0726  0.7514  1.6806
   22SAPC   H2S 2863   1.356   5.630  10.130 -0.4335  2.5559  0.7344
   22SAPC    C3 2864   1.815   5.831  10.425 -0.5430  0.0524 -0.1274
   22SAPC    HX 2865   1.826   5.747  10.496  0.9713  1.8387  1.7988
   22SAPC    HY 2866   1.842   5.924  10.479 -0.5507 -0.2918  0.4711
   22SAPC   O31 2867   1.879   5.828  10.301  0.0076 -0.3626  0.0016
   22SAPC   C31 2868   1.935   5.709  10.274  0.6119  0.3045 -0.1162
   22SAPC   O32 2869   1.941   5.619  10.351  0.3577 -0.1725  0.1726
   22SAPC   C32 2870   1.952   5.694  10.128 -0.5328  0.7668  1.0207
   22SAPC   H2X 2871   2.006   5.776  10.076 -0.1227  0.4516  0.9401
   22SAPC   H2Y 2872   1.850   5.700  10.085  0.0100  2.2839 -0.0861
   22SAPC   C23 2873   1.562   5.620  10.053  0.3777  0.0715  0.0607
   22SAPC   H3R 2874   1.663   5.593  10.090  1.3039 -1.0205 -3.0158
   22SAPC   H3S 2875   1.558   5.716   9.998  1.1029  0.2314  0.2962
   22SAPC   C24 2876   1.522   5.515   9.940  0.3876 -0.5716 -0.1765
   22SAPC   H4R 2877   1.431   5.558   9.892 -0.6367 -0.9580  1.3778
   22SAPC   H4S 2878   1.487   5.423   9.991 -3.1370  1.1340  0.6440
   22SAPC   C25 2879   1.633   5.487   9.846 -0.2887 -1.1257  0.6877
   22SAPC   H5R 2880   1.685   5.571   9.798  1.3688 -0.3097  3.7690
   22SAPC   C26 2881   1.682   5.360   9.826  0.0048  0.3831 -1.1373
   22SAPC   H6R 2882   1.768   5.345   9.759  0.8965  0.6152 -0.0442
   22SAPC   C27 2883   1.615   5.233   9.873 -0.2944 -0.1855 -0.3275
   22SAPC   H7R 2884   1.508   5.246   9.899  0.5763  2.1633  2.3969
   22SAPC   H7S 2885   1.657   5.215   9.975 -1.2532  1.2045  0.3299
   22SAPC   C28 2886   1.635   5.107   9.793  0.3390 -0.6780 -0.6579
   22SAPC   H8R 2887   1.694   5.030   9.845  0.0934  0.5143  1.4105
   22SAPC   C29 2888   1.576   5.075   9.670 -0.0742  0.0882 -0.3134
   22SAPC   H9R 2889   1.600   4.978   9.624  3.6787  0.6028  0.3730
   22SAPC  C210 2890   1.482   5.162   9.586  0.6827  0.5273  0.8724
   22SAPC  H10R 2891   1.473   5.269   9.616  0.6969  0.9999 -0.7447
   22SAPC  H10S 2892   1.385   5.114   9.611  1.7274 -0.9286  2.1993
   22SAPC  C211 2893   1.520   5.165   9.443 -0.1858  0.6230 -0.0763
   22SAPC  H11R 2894   1.604   5.233   9.423  2.3254 -2.2195  0.4885
   22SAPC  C212 2895   1.463   5.099   9.342 -0.2386 -0.2299 -0.0401
   22SAPC  H12R 2896   1.499   5.105   9.238 -1.9410  0.9698 -0.5719
   22SAPC  C213 2897   1.344   5.002   9.347  0.1877  0.1733  1.0519
   22SAPC  H13R 2898   1.310   4.975   9.449 -0.9486 -0.5614  0.4794
   22SAPC  H13S 2899   1.373   4.903   9.306  0.6056  0.2379  1.1825
   22SAPC  C214 2900   1.230   5.068   9.273  0.3350  0.4226 -0.0700
   22SAPC  H14R 2901   1.187   5.153   9.327  0.7899  0.3421  0.4195
   22SAPC  C215 2902   1.164   5.021   9.166  0.3044 -0.0318 -0.8929
   22SAPC  H15R 2903   1.079   5.073   9.119 -1.1088 -1.3625  0.1437
   22SAPC  C216 2904   1.203   4.889   9.093 -0.2528 -0.2756  0.3333
   22SAPC  H16R 2905   1.130   4.805   9.103 -4.5992  3.1886 -0.9654
   22SAPC  H16S 2906   1.305   4.849   9.112  0.4427  0.9769 -0.7360
   22SAPC  C217 2907   1.205   4.921   8.942 -0.5316  0.0238  0.2364
   22SAPC  H17R 2908   1.282   4.999   8.928  1.5312 -1.9966  0.0952
   22SAPC  H17S 2909   1.102   4.952   8.914 -0.5627  1.6238  2.0661
   22SAPC  C218 2910   1.238   4.803   8.850 -0.3711 -0.1177  0.6408
   22SAPC  H18R 2911   1.168   4.717   8.855 -0.2779 -0.2075  0.4297
   22SAPC  H18S 2912   1.333   4.761   8.891  1.3864  2.7539 -0.3727
   22SAPC  C219 2913   1.246   4.842   8.703 -0.4968 -0.2329  0.1974
   22SAPC  H19R 2914   1.263   4.756   8.635  0.0268  0.6868 -0.8421
   22SAPC  H19S 2915   1.335   4.905   8.682 -1.2651  1.0461  0.7018
   22SAPC  C220 2916   1.124   4.910   8.651  0.3434  0.2650  0.0607
   22SAPC  H20R 2917   1.120   4.931   8.542  1.8278 -0.5066 -0.1437
   22SAPC  H20S 2918   1.108   5.007   8.703 -0.9649 -0.3099  0.7807
   22SAPC  H20T 2919   1.037   4.850   8.685  0.7589  0.1181  0.8720
   22SAPC   C33 2920   2.019   5.566  10.084  0.5895  0.6956  0.6216
   22SAPC   H3X 2921   1.970   5.482  10.137 -0.8605  0.3220 -1.2473
   22SAPC   H3Y 2922   2.120   5.566  10.129  0.7849  0.0070  0.1850
   22SAPC   C34 2923   2.007   5.542   9.937  0.1790 -0.5986 -0.3701
   22SAPC   H4X 2924   1.902   5.545   9.899  0.1391 -0.6283 -0.2638
   22SAPC   H4Y 2925   2.026   5.435   9.912  0.7935 -0.3255 -1.0749
   22SAPC   C35 2926   2.095   5.635   9.853 -0.3744 -0.0335 -0.5812
   22SAPC   H5X 2927   2.200   5.628   9.889 -0.2356  0.7881 -0.8331
   22SAPC   H5Y 2928   2.057   5.739   9.851  0.5416  0.2976 -1.2504
   22SAPC   C36 2929   2.089   5.595   9.705  0.1893  0.4861 -0.0257
   22SAPC   H6X 2930   1.985   5.567   9.680  0.0202  1.7806 -0.8051
   22SAPC   H6Y 2931   2.156   5.507   9.694  2.3718  1.5964  3.5151
   22SAPC   C37 2932   2.141   5.701   9.604  0.0651  0.2865  0.0351
   22SAPC   H7X 2933   2.240   5.738   9.639  0.6520 -0.4729 -0.8165
   22SAPC   H7Y 2934   2.069   5.786   9.599 -0.3706 -0.1558 -1.3826
   22SAPC   C38 2935   2.167   5.645   9.461 -0.8352 -0.2406  0.7738
   22SAPC   H8X 2936   2.218   5.546   9.467  0.3346  0.2594 -0.4310
   22SAPC   H8Y 2937   2.230   5.720   9.408 -1.4267 -0.9707 -0.9817
   22SAPC   C39 2938   2.036   5.613   9.385 -0.0291  0.0608  0.3883
   22SAPC   H9X 2939   1.988   5.708   9.352  1.0845  1.1550  1.8197
   22SAPC   H9Y 2940   1.961   5.563   9.450 -1.3054  0.0991 -1.0268
   22SAPC  C310 2941   2.071   5.517   9.268 -0.2407  0.0848 -0.2684
   22SAPC  H10X 2942   1.978   5.478   9.221  0.6376 -2.0763 -0.2442
   22SAPC  H10Y 2943   2.125   5.424   9.295 -0.2531 -0.1330 -0.9803
   22SAPC  C311 2944   2.133   5.593   9.148  0.0125 -0.5245 -0.4296
   22SAPC  H11X 2945   2.235   5.630   9.171  0.0416 -1.2935  0.7363
   22SAPC  H11Y 2946   2.066   5.680   9.129  0.3407 -0.3751 -0.9208
   22SAPC  C312 2947   2.137   5.510   9.023  0.5722 -0.2982 -0.2487
   22SAPC  H12X 2948   2.039   5.461   9.001  0.7356 -0.5388 -0.4430
   22SAPC  H12Y 2949   2.212   5.431   9.045 -0.1225 -0.0837  3.1555
   22SAPC  C313 2950   2.193   5.572   8.887  0.1054  0.1841  0.4671
   22SAPC  H13X 2951   2.116   5.644   8.852 -1.4993 -1.1660  1.1373
   22SAPC  H13Y 2952   2.207   5.491   8.812 -0.5076  0.6102 -0.1127
   22SAPC  C314 2953   2.325   5.657   8.907 -0.8655 -0.1883  0.0210
   22SAPC  H14X 2954   2.414   5.603   8.945  0.8356  1.7580 -1.0693
   22SAPC  H14Y 2955   2.301   5.737   8.980 -0.4326 -1.0375  1.1139
   22SAPC  C315 2956   2.375   5.731   8.785 -0.3225  0.8538 -0.2379
   22SAPC  H15X 2957   2.299   5.803   8.748 -1.8555 -0.2380  0.7166
   22SAPC  H15Y 2958   2.384   5.651   8.708  3.7134  1.2316 -0.2953
   22SAPC  C316 2959   2.511   5.795   8.814 -0.0364  0.0752 -0.1871
   22SAPC  H16X 2960   2.586   5.713   8.810  1.1949  1.1368  0.6794
   22SAPC  H16Y 2961   2.505   5.844   8.914  3.9914 -2.5186  1.4565
   22SAPC  C317 2962   2.547   5.908   8.719  0.7283 -0.2781  0.5730
   22SAPC  H17X 2963   2.464   5.981   8.719 -0.4212 -1.5589  1.2968
   22SAPC  H17Y 2964   2.553   5.863   8.618 -0.9406  0.9016 -0.0728
   22SAPC  C318 2965   2.693   5.964   8.741  0.7286  0.3451 -0.5265
   22SAPC  H18X 2966   2.762   5.886   8.701  0.6807  0.5004 -0.9081
   22SAPC  H18Y 2967   2.697   5.954   8.852 -0.9705  1.8253 -0.3144
   22SAPC  H18Z 2968   2.708   6.063   8.693  0.5289  0.5844 -0.1019
   23SAPC     N 2969   3.635   0.787  11.208  0.1332 -0.1934  0.0704
   23SAPC   C12 2970   3.609   0.693  11.090 -0.3491 -0.2615 -0.2445
   23SAPC  H12A 2971   3.510   0.653  11.103 -0.0018  0.0343  3.7502
   23SAPC  H12B 2972   3.675   0.609  11.110 -0.8471  0.0886  3.1247
   23SAPC   C13 2973   3.604   0.713  11.327  0.2214  0.1250 -0.2380
   23SAPC  H13A 2974   3.687   0.646  11.346  2.3202  2.4802 -0.8551
   23SAPC  H13B 2975   3.609   0.780  11.411 -0.5856 -1.0514  0.7715
   23SAPC  H13C 2976   3.514   0.654  11.328  0.7160 -0.6673  3.9179
   23SAPC   C14 2977   3.778   0.832  11.204 -0.3391  0.5770  0.1284
   23SAPC  H14A 2978   3.804   0.903  11.281  0.4424  2.0802 -1.4968
   23SAPC  H14B 2979   3.848   0.750  11.205  0.8678  1.5654 -0.9931
   23SAPC  H14C 2980   3.801   0.884  11.112 -0.9942  0.8224  0.1028
   23SAPC   C15 2981   3.545   0.906  11.195 -0.2112  0.0655  0.4742
   23SAPC  H15A 2982   3.555   0.936  11.092  1.0042 -1.7473  0.0465
   23SAPC  H15B 2983   3.442   0.878  11.208 -0.4984  0.7386 -0.2778
   23SAPC  H15C 2984   3.571   0.982  11.268  0.3204 -0.5122  0.8927
   23SAPC   C11 2985   3.642   0.738  10.947  0.2736  0.4153  0.2414
   23SAPC  H11A 2986   3.644   0.648  10.881  2.6916  0.6595 -0.0524
   23SAPC  H11B 2987   3.744   0.781  10.951  0.5108 -0.1657  0.3811
   23SAPC     P 2988   3.401   0.790  10.852  0.0272 -0.0831  0.1279
   23SAPC   O13 2989   3.363   0.664  10.918 -0.2608  0.1748  0.2095
   23SAPC   O14 2990   3.310   0.903  10.865  0.2789 -0.0713 -0.6288
   23SAPC   O12 2991   3.547   0.837  10.901 -0.4451  0.0533  0.0906
   23SAPC   O11 2992   3.427   0.764  10.689 -0.2155  0.1845  0.3458
   23SAPC    C1 2993   3.485   0.870  10.614 -0.3846  0.2790 -0.7052
   23SAPC    HA 2994   3.429   0.965  10.629  0.0080  0.3377  0.5109
   23SAPC    HB 2995   3.587   0.887  10.656 -1.4263 -1.1326  2.5972
   23SAPC    C2 2996   3.506   0.828  10.464  0.8173 -0.9496  0.2718
   23SAPC    HS 2997   3.571   0.912  10.430 -1.3385  1.6887  2.4458
   23SAPC   O21 2998   3.375   0.835  10.395  0.4347 -0.4046  0.4782
   23SAPC   C21 2999   3.373   0.919  10.287 -0.2513  0.6310 -0.8003
   23SAPC   O22 3000   3.465   0.991  10.253  0.5155  0.3139  0.1075
   23SAPC   C22 3001   3.231   0.928  10.229 -0.6987  0.0773  0.4168
   23SAPC   H2R 3002   3.157   0.923  10.312 -0.2669 -0.7987  0.7480
   23SAPC   H2S 3003   3.233   1.030  10.185 -1.5561 -1.0676 -2.4101
   23SAPC    C3 3004   3.566   0.685  10.463 -1.0373  0.7500  0.2167
   23SAPC    HX 3005   3.503   0.607  10.510 -0.1342 -1.1110 -1.5917
   23SAPC    HY 3006   3.660   0.678  10.522 -1.2539  0.0076  0.4787
   23SAPC   O31 3007   3.600   0.654  10.320  0.4054  0.3643  0.1501
   23SAPC   C31 3008   3.504   0.587  10.249 -0.6105 -0.6106 -0.6225
   23SAPC   O32 3009   3.397   0.551  10.297 -0.2250  0.3711  0.1374
   23SAPC   C32 3010   3.546   0.568  10.105 -0.7416 -0.0589  0.3945
   23SAPC   H2X 3011   3.654   0.548  10.095 -0.7063  0.4159 -0.1764
   23SAPC   H2Y 3012   3.527   0.666  10.056  1.8594  0.1329 -0.3103
   23SAPC   C23 3013   3.207   0.817  10.125  0.6137  0.0734 -0.1823
   23SAPC   H3R 3014   3.099   0.817  10.100  0.8975 -1.7144 -1.5401
   23SAPC   H3S 3015   3.231   0.722  10.179 -2.4717  0.7699  2.5317
   23SAPC   C24 3016   3.295   0.832   9.999  0.3240  0.4298  0.3493
   23SAPC   H4R 3017   3.324   0.731   9.962 -1.5225  0.1866 -0.5269
   23SAPC   H4S 3018   3.392   0.866  10.040  0.7982  0.5962 -0.8875
   23SAPC   C25 3019   3.239   0.923   9.898 -0.2133 -0.5938  0.2724
   23SAPC   H5R 3020   3.213   1.021   9.940  1.2530 -0.0577 -0.0109
   23SAPC   C26 3021   3.237   0.900   9.761 -0.7786 -0.0058 -0.2087
   23SAPC   H6R 3022   3.184   0.978   9.704  0.2795  1.4848  0.8352
   23SAPC   C27 3023   3.281   0.773   9.691  0.0910 -0.0157  0.3616
   23SAPC   H7R 3024   3.193   0.717   9.653 -0.7710  1.8978 -0.5189
   23SAPC   H7S 3025   3.322   0.694   9.758  2.1292 -0.6025 -1.5291
   23SAPC   C28 3026   3.379   0.812   9.583  0.2223  0.7892  0.0783
   23SAPC   H8R 3027   3.483   0.808   9.619 -1.1127 -1.8536  3.9897
   23SAPC   C29 3028   3.349   0.824   9.456  0.4670 -0.5456 -0.4346
   23SAPC   H9R 3029   3.430   0.830   9.382  0.5452  0.0326 -0.3034
   23SAPC  C210 3030   3.219   0.807   9.384  0.0339  0.1195  0.4944
   23SAPC  H10R 3031   3.135   0.789   9.454 -0.4969 -3.0099 -0.8738
   23SAPC  H10S 3032   3.220   0.706   9.337  2.1657  0.7698 -0.9231
   23SAPC  C211 3033   3.196   0.912   9.281 -0.2074 -0.4455  0.4628
   23SAPC  H11R 3034   3.240   1.012   9.298 -2.4356  0.1203  3.1864
   23SAPC  C212 3035   3.140   0.895   9.157 -0.0956 -0.0602  0.1222
   23SAPC  H12R 3036   3.128   0.982   9.091  2.5353  1.9845  2.2649
   23SAPC  C213 3037   3.082   0.766   9.100 -0.9985 -0.5005  0.7425
   23SAPC  H13R 3038   2.992   0.789   9.039 -0.5513  1.3520  0.7759
   23SAPC  H13S 3039   3.040   0.700   9.179 -0.7753 -1.3464  0.1664
   23SAPC  C214 3040   3.184   0.672   9.037  0.0470  0.6141  0.1415
   23SAPC  H14R 3041   3.263   0.644   9.108  1.2182 -0.8634 -1.6825
   23SAPC  C215 3042   3.179   0.614   8.914 -1.4331  0.2091  0.2042
   23SAPC  H15R 3043   3.252   0.534   8.894 -0.0094  1.6258 -0.3236
   23SAPC  C216 3044   3.086   0.635   8.797 -0.0001  0.0530  0.5164
   23SAPC  H16R 3045   2.983   0.663   8.829 -0.2115  1.1560 -1.0827
   23SAPC  H16S 3046   3.085   0.545   8.734  1.0505  1.2333 -1.2281
   23SAPC  C217 3047   3.154   0.738   8.712 -0.4509 -0.0321 -0.1076
   23SAPC  H17R 3048   3.263   0.716   8.708 -0.2204  1.2399 -1.2327
   23SAPC  H17S 3049   3.148   0.843   8.749  0.8506 -0.8332  2.4076
   23SAPC  C218 3050   3.088   0.736   8.571 -0.9483  0.0133  0.5706
   23SAPC  H18R 3051   2.977   0.742   8.581 -0.8335  0.7366  1.3898
   23SAPC  H18S 3052   3.099   0.640   8.516  1.0343 -1.4817  3.4728
   23SAPC  C219 3053   3.138   0.840   8.473  0.4424  0.1832  1.4758
   23SAPC  H19R 3054   3.114   0.941   8.512 -1.8496  1.0048 -1.8731
   23SAPC  H19S 3055   3.087   0.842   8.375  2.1618 -0.0018  0.5679
   23SAPC  C220 3056   3.294   0.844   8.462  0.4652 -0.5378  1.0308
   23SAPC  H20R 3057   3.320   0.858   8.355 -1.7631  0.4607  0.6001
   23SAPC  H20S 3058   3.335   0.742   8.480  1.4290 -0.7282 -1.9315
   23SAPC  H20T 3059   3.350   0.909   8.532 -0.2758  2.6325 -1.2357
   23SAPC   C33 3060   3.450   0.475  10.024  0.2372 -0.1339  0.2121
   23SAPC   H3X 3061   3.341   0.490  10.040 -0.1825 -0.3020 -2.2978
   23SAPC   H3Y 3062   3.465   0.369  10.054  0.0350 -0.9027 -2.3522
   23SAPC   C34 3063   3.491   0.490   9.876  0.4200  0.0478  0.0774
   23SAPC   H4X 3064   3.594   0.451   9.862  0.0961 -1.0667  0.7673
   23SAPC   H4Y 3065   3.482   0.594   9.839 -2.8204 -0.9670 -2.1151
   23SAPC   C35 3066   3.397   0.399   9.792  0.9841  0.4253 -0.3884
   23SAPC   H5X 3067   3.303   0.455   9.772  1.3769  0.8639 -1.0311
   23SAPC   H5Y 3068   3.372   0.299   9.834  0.4333 -0.0507 -1.8180
   23SAPC   C36 3069   3.463   0.388   9.653 -0.3118 -0.7190  0.7322
   23SAPC   H6X 3070   3.560   0.334   9.657  0.0063 -0.0234  2.5182
   23SAPC   H6Y 3071   3.491   0.487   9.612 -1.0094 -0.4945  0.7938
   23SAPC   C37 3072   3.368   0.320   9.552 -0.5157 -0.2027  0.3443
   23SAPC   H7X 3073   3.283   0.389   9.532 -0.2166 -0.1565 -0.7844
   23SAPC   H7Y 3074   3.333   0.225   9.597 -0.6604  0.0638  0.8020
   23SAPC   C38 3075   3.439   0.282   9.423 -0.1731  0.5114 -0.1293
   23SAPC   H8X 3076   3.517   0.205   9.443 -0.2914  0.6138  0.7027
   23SAPC   H8Y 3077   3.488   0.368   9.372  0.1912  0.3064 -0.1342
   23SAPC   C39 3078   3.343   0.214   9.328  0.0103  0.4590 -0.5157
   23SAPC   H9X 3079   3.277   0.295   9.290 -0.0898  0.3324 -0.6090
   23SAPC   H9Y 3080   3.281   0.141   9.385  2.2994 -0.6158  0.6733
   23SAPC  C310 3081   3.405   0.147   9.217 -0.6381  0.3831 -0.7069
   23SAPC  H10X 3082   3.446   0.051   9.255  1.7501  2.0238  1.0535
   23SAPC  H10Y 3083   3.488   0.207   9.174  0.6497 -0.4687  0.5456
   23SAPC  C311 3084   3.316   0.104   9.104  1.3388 -0.8283 -0.7665
   23SAPC  H11X 3085   3.240   0.035   9.149  1.4250 -2.6726 -3.3262
   23SAPC  H11Y 3086   3.360   0.026   9.038 -0.7322 -1.1816 -1.7930
   23SAPC  C312 3087   3.258   0.212   9.011  0.0992  0.4299 -0.1804
   23SAPC  H12X 3088   3.344   0.279   8.988  0.2145  0.6041  0.7628
   23SAPC  H12Y 3089   3.175   0.262   9.065 -0.2334  0.1016 -0.3839
   23SAPC  C313 3090   3.202   0.156   8.883 -0.2009  0.3811 -0.6285
   23SAPC  H13X 3091   3.101   0.116   8.903 -0.1294 -0.1625 -1.3276
   23SAPC  H13Y 3092   3.270   0.073   8.854 -0.5900 -0.4217  0.7472
   23SAPC  C314 3093   3.196   0.246   8.754 -0.4172 -0.4549 -0.2868
   23SAPC  H14X 3094   3.162   0.348   8.780 -1.9643 -0.8764 -0.5949
   23SAPC  H14Y 3095   3.115   0.209   8.688 -0.8304 -1.6189  0.8350
   23SAPC  C315 3096   3.334   0.246   8.682 -0.1376 -0.2505 -0.6526
   23SAPC  H15X 3097   3.357   0.157   8.620 -0.1399  1.7363 -3.6561
   23SAPC  H15Y 3098   3.410   0.255   8.762  0.1683  0.7699 -1.0439
   23SAPC  C316 3099   3.344   0.366   8.590  0.9660  0.7142  0.1968
   23SAPC  H16X 3100   3.338   0.463   8.643 -1.6375  0.0092  1.3002
   23SAPC  H16Y 3101   3.257   0.349   8.524 -0.4897  1.7174  1.8038
   23SAPC  C317 3102   3.470   0.364   8.507 -0.6207 -0.2388 -0.7228
   23SAPC  H17X 3103   3.471   0.285   8.429  2.4840 -1.1185  0.1595
   23SAPC  H17Y 3104   3.558   0.336   8.569 -1.3253 -0.9531 -0.0283
   23SAPC  C318 3105   3.517   0.498   8.447 -0.3379 -0.3691 -0.1832
   23SAPC  H18X 3106   3.501   0.584   8.516 -1.1571 -1.1502  0.6067
   23SAPC  H18Y 3107   3.468   0.521   8.350 -1.3128 -2.6850 -0.2815
   23SAPC  H18Z 3108   3.625   0.499   8.421 -0.4558 -1.5195 -0.7370
   24SAPC     N 3109   5.847   0.664  11.334  0.0495  0.5880  0.1974
   24SAPC   C12 3110   5.937   0.760  11.259  0.8754  0.5223  0.2726
   24SAPC  H12A 3111   6.040   0.742  11.288  0.9060  1.1600  0.5879
   24SAPC  H12B 3112   5.922   0.858  11.304 -0.3506  0.7861 -0.6941
   24SAPC   C13 3113   5.704   0.699  11.328 -0.3340  0.6235  0.5017
   24SAPC  H13A 3114   5.677   0.681  11.225 -0.0647  3.6234 -0.1261
   24SAPC  H13B 3115   5.645   0.631  11.388  0.7301  0.5324  1.4648
   24SAPC  H13C 3116   5.670   0.799  11.351 -1.3826  0.2394  0.6366
   24SAPC   C14 3117   5.867   0.524  11.280 -0.6588 -1.0126  0.3980
   24SAPC  H14A 3118   5.880   0.522  11.173  1.4688 -0.8352  0.6282
   24SAPC  H14B 3119   5.961   0.495  11.322 -0.3789 -0.8888 -0.1381
   24SAPC  H14C 3120   5.802   0.447  11.319  1.2741 -1.9907  1.7224
   24SAPC   C15 3121   5.901   0.660  11.476  0.2651  0.0541 -0.1581
   24SAPC  H15A 3122   5.837   0.617  11.552 -0.0862 -0.0477 -0.5074
   24SAPC  H15B 3123   5.993   0.603  11.481  1.0664  1.4303  0.8823
   24SAPC  H15C 3124   5.928   0.759  11.508  0.6955  0.3442 -1.3703
   24SAPC   C11 3125   5.915   0.779  11.111  0.3277 -0.2424 -0.4474
   24SAPC  H11A 3126   5.980   0.860  11.072 -2.2716  1.1885 -1.9868
   24SAPC  H11B 3127   5.810   0.814  11.097 -0.3191 -1.8226  0.2982
   24SAPC     P 3128   5.864   0.638  10.902 -0.1968  0.2873  0.1002
   24SAPC   O13 3129   5.717   0.640  10.919 -0.3146  0.8391  0.0235
   24SAPC   O14 3130   5.925   0.725  10.801  0.2877  0.5737 -0.2541
   24SAPC   O12 3131   5.934   0.662  11.041  0.0901 -0.7240  0.0511
   24SAPC   O11 3132   5.910   0.494  10.870  0.4378 -0.2200  0.6161
   24SAPC    C1 3133   6.041   0.459  10.834  0.4079  0.0674  0.4583
   24SAPC    HA 3134   6.113   0.543  10.843  0.5654 -0.0792  0.5682
   24SAPC    HB 3135   6.076   0.378  10.901  3.2569 -0.8039 -1.9724
   24SAPC    C2 3136   6.036   0.393  10.687 -0.3160  0.4503 -0.5475
   24SAPC    HS 3137   6.142   0.371  10.662 -0.0235 -1.5812  2.1438
   24SAPC   O21 3138   5.976   0.480  10.586  0.0877  0.2401  0.1230
   24SAPC   C21 3139   6.034   0.601  10.581 -0.0776 -0.1984 -0.8296
   24SAPC   O22 3140   6.140   0.635  10.626  0.1862 -0.5453  0.3270
   24SAPC   C22 3141   5.934   0.699  10.513  0.3373 -1.1492  0.3797
   24SAPC   H2R 3142   5.877   0.637  10.440 -1.5094  1.2989 -0.3370
   24SAPC   H2S 3143   5.860   0.732  10.589 -0.7649  2.3234 -2.0544
   24SAPC    C3 3144   5.950   0.259  10.681 -1.0596  0.3592  0.0673
   24SAPC    HX 3145   5.847   0.285  10.716 -0.1995 -1.2068  4.0801
   24SAPC    HY 3146   5.994   0.196  10.761 -0.1932 -1.0947 -1.5374
   24SAPC   O31 3147   5.947   0.190  10.554 -0.8613  0.5865  0.5229
   24SAPC   C31 3148   6.024   0.085  10.544 -0.2202  0.5104  0.8473
   24SAPC   O32 3149   6.102   0.043  10.630  0.1812  0.2076  0.2162
   24SAPC   C32 3150   6.029   0.025  10.394 -0.2179 -0.4633 -0.4217
   24SAPC   H2X 3151   6.013  -0.084  10.393  0.1424 -0.5146 -0.5649
   24SAPC   H2Y 3152   6.124   0.061  10.349 -2.0196  0.3307 -3.7780
   24SAPC   C23 3153   6.004   0.820  10.449  0.2822  0.2210  0.0579
   24SAPC   H3R 3154   6.104   0.782  10.418 -1.0577 -2.1439 -1.5257
   24SAPC   H3S 3155   6.018   0.897  10.528 -2.7853  1.0244 -0.1126
   24SAPC   C24 3156   5.922   0.871  10.329 -0.6159  0.5306 -0.3818
   24SAPC   H4R 3157   5.815   0.877  10.357 -0.6647 -2.4904  0.2490
   24SAPC   H4S 3158   5.938   0.799  10.246 -0.6424  0.4954 -0.3566
   24SAPC   C25 3159   5.980   1.005  10.294 -0.3364  0.4615  0.2692
   24SAPC   H5R 3160   5.967   1.083  10.370 -0.0173  0.5884  0.1918
   24SAPC   C26 3161   6.046   1.038  10.177  0.6772 -0.1736  0.5379
   24SAPC   H6R 3162   6.059   1.147  10.162  1.3143 -0.2963  0.1920
   24SAPC   C27 3163   6.063   0.950  10.053  0.1289  0.1868 -0.1589
   24SAPC   H7R 3164   6.078   1.015   9.964 -0.1987  0.0382 -0.3227
   24SAPC   H7S 3165   5.968   0.895  10.033  0.1621 -0.7892  2.3044
   24SAPC   C28 3166   6.175   0.844  10.058 -0.0954  0.6017 -0.0977
   24SAPC   H8R 3167   6.196   0.790  10.152  3.4581  0.2689 -1.0215
   24SAPC   C29 3168   6.233   0.792   9.952 -0.1682  0.2661  0.0597
   24SAPC   H9R 3169   6.318   0.727   9.975 -1.5844 -2.0371 -1.0009
   24SAPC  C210 3170   6.201   0.818   9.807  0.4422 -0.3238  0.6954
   24SAPC  H10R 3171   6.247   0.917   9.790 -0.3466  0.1426  1.2300
   24SAPC  H10S 3172   6.093   0.818   9.782  0.3798 -1.9669  0.9062
   24SAPC  C211 3173   6.274   0.716   9.719  0.2302 -0.2668  0.3198
   24SAPC  H11R 3174   6.344   0.654   9.777  0.2353  2.1681  3.0197
   24SAPC  C212 3175   6.242   0.682   9.598  0.9071 -1.4307  0.4270
   24SAPC  H12R 3176   6.289   0.590   9.560  0.5471 -1.6131  0.4242
   24SAPC  C213 3177   6.125   0.743   9.517 -0.5781 -0.4478  0.2903
   24SAPC  H13R 3178   6.109   0.851   9.534  0.4587 -0.5259  1.8106
   24SAPC  H13S 3179   6.033   0.688   9.546  1.3443 -3.4802  0.9742
   24SAPC  C214 3180   6.151   0.720   9.376  0.8457  0.5620  0.6151
   24SAPC  H14R 3181   6.211   0.798   9.327  0.9395  0.2824  0.2825
   24SAPC  C215 3182   6.106   0.616   9.306 -0.0682 -0.0781  0.4072
   24SAPC  H15R 3183   6.122   0.616   9.197 -0.8824 -0.7161  0.2826
   24SAPC  C216 3184   6.019   0.493   9.344  0.1742  0.1564  0.7540
   24SAPC  H16R 3185   5.914   0.530   9.349  1.0709  3.0983 -0.8262
   24SAPC  H16S 3186   6.057   0.456   9.441  2.8489  1.0110  0.0947
   24SAPC  C217 3187   6.027   0.375   9.243  1.4746 -0.0574  0.1344
   24SAPC  H17R 3188   6.025   0.274   9.289  1.4733 -0.4191 -0.6559
   24SAPC  H17S 3189   6.125   0.372   9.190  0.3942 -0.2929 -1.8582
   24SAPC  C218 3190   5.921   0.387   9.126 -0.3492  0.0306 -0.2409
   24SAPC  H18R 3191   5.925   0.485   9.072 -1.4534  0.2230  0.0235
   24SAPC  H18S 3192   5.819   0.384   9.168  0.1856  0.4833  1.1143
   24SAPC  C219 3193   5.938   0.266   9.031  0.4866  0.0207  0.0188
   24SAPC  H19R 3194   5.934   0.176   9.096 -1.4465  0.7927  1.0230
   24SAPC  H19S 3195   6.039   0.273   8.985  0.3261 -1.1840 -0.5337
   24SAPC  C220 3196   5.834   0.268   8.920  0.8199 -0.4544 -0.1973
   24SAPC  H20R 3197   5.845   0.358   8.856  1.5854 -1.3449 -1.3377
   24SAPC  H20S 3198   5.729   0.252   8.953  0.5109  0.7475 -0.5629
   24SAPC  H20T 3199   5.861   0.184   8.853  1.3132 -0.9762  0.6411
   24SAPC   C33 3200   5.918   0.089  10.311  0.1505 -0.2243  0.3149
   24SAPC   H3X 3201   5.934   0.197  10.330 -0.2337  0.4280 -2.7303
   24SAPC   H3Y 3202   5.817   0.054  10.341 -0.9646  1.8511 -0.8633
   24SAPC   C34 3203   5.938   0.056  10.157 -1.2573 -0.3764  1.4498
   24SAPC   H4X 3204   6.036   0.104  10.137 -1.7729  0.6236  1.2783
   24SAPC   H4Y 3205   5.854   0.106  10.104 -1.0854 -2.2877 -0.7034
   24SAPC   C35 3206   5.945  -0.093  10.128 -0.6073  1.0607 -0.0499
   24SAPC   H5X 3207   5.850  -0.132  10.172 -0.5285  0.4101 -0.4437
   24SAPC   H5Y 3208   6.037  -0.143  10.166 -0.6393  0.6753 -0.4680
   24SAPC   C36 3209   5.933  -0.106   9.974  0.5651  0.4453  0.5784
   24SAPC   H6X 3210   5.850  -0.046   9.933 -2.1703 -3.7154 -0.2851
   24SAPC   H6Y 3211   5.907  -0.212   9.955 -1.4922  1.0719 -0.1799
   24SAPC   C37 3212   6.067  -0.072   9.904 -0.8445 -0.2970 -0.3370
   24SAPC   H7X 3213   6.144  -0.140   9.947 -1.1625 -0.1809  0.4311
   24SAPC   H7Y 3214   6.091   0.031   9.936  1.9577 -1.3463  1.1159
   24SAPC   C38 3215   6.053  -0.101   9.751 -0.9543  0.1065 -0.3010
   24SAPC   H8X 3216   6.041  -0.208   9.725 -2.2160 -0.4847  2.5647
   24SAPC   H8Y 3217   6.153  -0.080   9.706 -1.2534  0.8507 -0.6215
   24SAPC   C39 3218   5.936  -0.035   9.676 -0.0356  0.3417 -0.1038
   24SAPC   H9X 3219   5.949   0.075   9.681 -0.4938  0.4011 -0.1552
   24SAPC   H9Y 3220   5.841  -0.061   9.728  0.3369 -0.7556  0.0430
   24SAPC  C310 3221   5.929  -0.097   9.534  0.4187 -0.1913 -0.7765
   24SAPC  H10X 3222   5.882  -0.195   9.558  1.6898 -0.7692 -0.5815
   24SAPC  H10Y 3223   6.036  -0.112   9.507  0.1324 -0.1912 -1.9138
   24SAPC  C311 3224   5.855  -0.010   9.429 -0.8084 -0.6809 -0.3357
   24SAPC  H11X 3225   5.914   0.083   9.411 -2.2328 -0.3602 -3.6999
   24SAPC  H11Y 3226   5.765   0.033   9.478 -0.5392 -1.4756  0.8697
   24SAPC  C312 3227   5.816  -0.074   9.300 -0.1837 -0.7955  0.1194
   24SAPC  H12X 3228   5.780  -0.005   9.221 -2.3326  0.2052  1.9072
   24SAPC  H12Y 3229   5.732  -0.145   9.321  0.3738 -1.7485 -0.8408
   24SAPC  C313 3230   5.932  -0.145   9.232 -0.5845  0.7442 -0.3196
   24SAPC  H13X 3231   5.981  -0.209   9.310  1.2555  2.4925  0.0090
   24SAPC  H13Y 3232   6.004  -0.065   9.205 -0.5688  0.1211 -2.1535
   24SAPC  C314 3233   5.892  -0.234   9.116  0.1556  0.8808  0.2093
   24SAPC  H14X 3234   5.815  -0.306   9.152  1.4532 -1.2570 -1.1805
   24SAPC  H14Y 3235   5.982  -0.292   9.085  0.5947  0.8944  1.4275
   24SAPC  C315 3236   5.856  -0.153   8.990 -0.0195 -0.7320 -0.0659
   24SAPC  H15X 3237   5.948  -0.103   8.953 -0.1472 -1.3621 -1.2404
   24SAPC  H15Y 3238   5.771  -0.087   9.018 -0.3905 -1.3326  0.2183
   24SAPC  C316 3239   5.792  -0.230   8.875 -0.9494  0.1232  0.3187
   24SAPC  H16X 3240   5.712  -0.302   8.901 -1.0899 -0.8369 -2.6065
   24SAPC  H16Y 3241   5.875  -0.293   8.838 -0.1013  2.3614 -1.7865
   24SAPC  C317 3242   5.763  -0.147   8.749 -0.0830 -0.2714  0.6524
   24SAPC  H17X 3243   5.857  -0.099   8.715 -0.7211  0.3723 -0.2279
   24SAPC  H17Y 3244   5.684  -0.077   8.783  0.8033 -0.1373  2.4946
   24SAPC  C318 3245   5.698  -0.227   8.629  0.2464  0.2043  0.8903
   24SAPC  H18X 3246   5.770  -0.307   8.600 -1.4876 -1.1732  0.2103
   24SAPC  H18Y 3247   5.688  -0.163   8.539  1.2245 -2.5153 -1.2378
   24SAPC  H18Z 3248   5.614  -0.287   8.672  0.6530 -0.1947  1.1268
   25SAPC     N 3249   1.680   5.471   5.880  0.1032 -0.1831  0.4036
   25SAPC   C12 3250   1.545   5.403   5.867  0.0022 -0.4300  0.4327
   25SAPC  H12A 3251   1.497   5.456   5.787  2.1086  0.0506 -0.5458
   25SAPC  H12B 3252   1.483   5.423   5.953  1.0455  1.4326  0.7836
   25SAPC   C13 3253   1.760   5.395   5.986 -0.5135 -0.6034  0.1618
   25SAPC  H13A 3254   1.759   5.290   5.962 -1.3273 -1.2156  2.6965
   25SAPC  H13B 3255   1.861   5.427   6.003 -0.6216  0.3941 -1.0202
   25SAPC  H13C 3256   1.708   5.392   6.081  1.1926  0.3570  1.1389
   25SAPC   C14 3257   1.764   5.463   5.757 -0.5960  0.0794 -0.0819
   25SAPC  H14A 3258   1.795   5.362   5.734 -0.0305 -0.2145  1.9086
   25SAPC  H14B 3259   1.716   5.520   5.679  1.0810  0.1316 -1.1241
   25SAPC  H14C 3260   1.858   5.516   5.770  0.4581 -1.8355  0.2490
   25SAPC   C15 3261   1.657   5.612   5.917  0.2170 -0.2683 -0.9169
   25SAPC  H15A 3262   1.567   5.623   5.976  0.3346  1.3230 -1.0126
   25SAPC  H15B 3263   1.739   5.652   5.975 -0.2099  0.6249 -0.9332
   25SAPC  H15C 3264   1.644   5.685   5.840  0.1914  3.0152  2.0576
   25SAPC   C11 3265   1.543   5.246   5.854 -0.7602  0.6358 -0.1418
   25SAPC  H11A 3266   1.607   5.215   5.768 -2.3790 -0.3492 -1.0182
   25SAPC  H11B 3267   1.449   5.211   5.808  0.0169 -1.3519 -0.2592
   25SAPC     P 3268   1.466   5.160   6.093  0.1331 -0.4273  0.5985
   25SAPC   O13 3269   1.395   5.284   6.120  0.0495 -0.8060  0.0071
   25SAPC   O14 3270   1.383   5.041   6.051  0.0175 -0.2481  0.6627
   25SAPC   O12 3271   1.567   5.180   5.976 -0.5270  0.6341 -0.9365
   25SAPC   O11 3272   1.563   5.128   6.212 -0.1872  0.3335  0.1536
   25SAPC    C1 3273   1.638   5.005   6.217 -0.8713 -0.9947 -0.3121
   25SAPC    HA 3274   1.579   4.911   6.212 -0.5230 -1.4059  2.4780
   25SAPC    HB 3275   1.712   5.005   6.134 -1.3552  2.8942 -0.8388
   25SAPC    C2 3276   1.728   4.999   6.347 -0.9536 -0.1057 -0.2962
   25SAPC    HS 3277   1.797   4.915   6.324  0.1159 -0.4920  3.9907
   25SAPC   O21 3278   1.642   4.982   6.462  0.1728  0.3009  0.3088
   25SAPC   C21 3279   1.709   4.941   6.566  0.7442 -0.4533 -0.5468
   25SAPC   O22 3280   1.811   4.876   6.568 -0.1291  0.4119 -0.0022
   25SAPC   C22 3281   1.637   4.970   6.698  0.1274 -0.3229  0.2791
   25SAPC   H2R 3282   1.626   5.080   6.696 -1.6676 -0.4789 -3.0010
   25SAPC   H2S 3283   1.535   4.926   6.685  0.5994 -0.6371 -2.6589
   25SAPC    C3 3284   1.810   5.134   6.354 -0.0336  0.2181 -0.3071
   25SAPC    HX 3285   1.740   5.220   6.363 -0.3187 -0.1287  0.9821
   25SAPC    HY 3286   1.866   5.133   6.258  0.0937 -1.0024 -0.2211
   25SAPC   O31 3287   1.915   5.134   6.462 -0.6127  0.8852  0.0140
   25SAPC   C31 3288   2.014   5.216   6.450  0.1517 -0.4163  0.2057
   25SAPC   O32 3289   2.029   5.299   6.358  0.3483  1.0307  0.6235
   25SAPC   C32 3290   2.102   5.210   6.578  0.6348  0.3349  0.5715
   25SAPC   H2X 3291   2.206   5.229   6.545  0.5687  0.4790  0.4530
   25SAPC   H2Y 3292   2.099   5.107   6.620  2.3117  0.3823  0.8703
   25SAPC   C23 3293   1.700   4.917   6.828  0.3991  1.2515  0.3138
   25SAPC   H3R 3294   1.808   4.943   6.822  0.4992  0.7425 -0.1725
   25SAPC   H3S 3295   1.693   4.807   6.811 -4.2663  1.9476 -3.3765
   25SAPC   C24 3296   1.663   4.968   6.966 -1.1253  0.4174 -0.0294
   25SAPC   H4R 3297   1.651   5.078   6.960 -1.7731  0.5280  2.7444
   25SAPC   H4S 3298   1.725   4.934   7.051 -2.3024 -1.3370  0.1568
   25SAPC   C25 3299   1.523   4.925   6.983 -0.4173  0.4111  0.3019
   25SAPC   H5R 3300   1.455   4.958   6.902  0.8649 -0.5674 -1.2004
   25SAPC   C26 3301   1.466   4.849   7.083  0.6430 -0.3997  0.8530
   25SAPC   H6R 3302   1.357   4.835   7.077  0.6623 -0.3318  0.2294
   25SAPC   C27 3303   1.533   4.800   7.206  0.0830  0.1429  0.7268
   25SAPC   H7R 3304   1.636   4.760   7.191  0.4900  0.0485  3.4771
   25SAPC   H7S 3305   1.482   4.707   7.237 -0.7817 -0.0401 -1.1895
   25SAPC   C28 3306   1.516   4.909   7.314 -0.4467 -0.0998 -0.3673
   25SAPC   H8R 3307   1.420   4.960   7.308 -1.7743 -2.1400  2.4580
   25SAPC   C29 3308   1.605   4.935   7.411 -0.7159 -0.9892 -0.5452
   25SAPC   H9R 3309   1.563   5.014   7.476  0.5482 -2.4397  2.0905
   25SAPC  C210 3310   1.738   4.875   7.440  0.3389  1.0594 -0.4541
   25SAPC  H10R 3311   1.808   4.959   7.460 -1.6528  2.2943  1.6070
   25SAPC  H10S 3312   1.777   4.820   7.352 -1.0061 -0.6071 -0.0341
   25SAPC  C211 3313   1.723   4.770   7.551 -0.4046 -0.1580  0.2269
   25SAPC  H11R 3314   1.628   4.716   7.567 -0.2230  0.0551  2.1212
   25SAPC  C212 3315   1.824   4.714   7.624 -0.6234 -0.4867 -0.1955
   25SAPC  H12R 3316   1.802   4.644   7.707 -0.6703 -0.3565 -0.0994
   25SAPC  C213 3317   1.977   4.744   7.620 -0.1866 -0.1715  0.0062
   25SAPC  H13R 3318   1.993   4.800   7.714 -2.6425 -0.4195  0.6022
   25SAPC  H13S 3319   2.003   4.805   7.530 -0.1919  0.9629  0.7699
   25SAPC  C214 3320   2.069   4.623   7.607 -0.2884 -0.1194 -0.6155
   25SAPC  H14R 3321   2.018   4.530   7.577  0.6847  0.1382 -3.1784
   25SAPC  C215 3322   2.204   4.625   7.611  0.1176  0.2044 -0.3783
   25SAPC  H15R 3323   2.252   4.528   7.631 -0.8291 -0.5620 -1.7282
   25SAPC  C216 3324   2.286   4.747   7.636 -0.3933 -0.3968  0.3825
   25SAPC  H16R 3325   2.223   4.837   7.654  1.7829  1.2328  0.0260
   25SAPC  H16S 3326   2.353   4.783   7.555 -0.6250  1.0027  0.7913
   25SAPC  C217 3327   2.379   4.728   7.754 -0.1601 -0.2036  0.0305
   25SAPC  H17R 3328   2.449   4.814   7.762 -0.6259  0.2204 -0.4385
   25SAPC  H17S 3329   2.452   4.646   7.734 -0.0174 -0.5874  1.9698
   25SAPC  C218 3330   2.301   4.697   7.875  0.4306  0.6925 -0.6799
   25SAPC  H18R 3331   2.234   4.608   7.869  1.9662 -0.4352 -1.1881
   25SAPC  H18S 3332   2.243   4.787   7.908  0.4324  0.8207 -1.0295
   25SAPC  C219 3333   2.392   4.668   7.995 -0.9370  0.9236  0.1687
   25SAPC  H19R 3334   2.434   4.755   8.049 -0.9252  1.2011 -0.2928
   25SAPC  H19S 3335   2.472   4.611   7.944 -0.8975 -1.1194  2.4015
   25SAPC  C220 3336   2.318   4.599   8.110 -0.7040 -0.0367  0.9173
   25SAPC  H20R 3337   2.379   4.575   8.199  1.1488 -1.5181 -0.7101
   25SAPC  H20S 3338   2.269   4.504   8.078 -1.0988  1.0230 -1.8062
   25SAPC  H20T 3339   2.235   4.670   8.134 -0.6437  1.3013 -2.5177
   25SAPC   C33 3340   2.073   5.304   6.695  0.9593 -0.5436 -0.4683
   25SAPC   H3X 3341   2.074   5.414   6.679 -0.5672 -0.2402  1.4042
   25SAPC   H3Y 3342   2.154   5.283   6.768  0.4822  0.0418  0.2387
   25SAPC   C34 3343   1.931   5.284   6.763 -0.3298 -0.1664  0.1917
   25SAPC   H4X 3344   1.913   5.176   6.782 -1.3456  0.0433  0.4246
   25SAPC   H4Y 3345   1.857   5.318   6.688 -0.6791 -4.0569 -1.3431
   25SAPC   C35 3346   1.926   5.356   6.896  0.0295  0.7406  0.4392
   25SAPC   H5X 3347   1.918   5.464   6.870 -2.5809 -0.4954 -4.6057
   25SAPC   H5Y 3348   2.020   5.354   6.954 -0.6143  0.1476  1.4766
   25SAPC   C36 3349   1.802   5.322   6.985 -0.7591  0.6221  0.0400
   25SAPC   H6X 3350   1.821   5.220   7.024  0.9133  0.2262 -1.7227
   25SAPC   H6Y 3351   1.724   5.314   6.906 -0.8406 -2.1259  0.3704
   25SAPC   C37 3352   1.768   5.421   7.099  0.2390 -0.0100  0.1297
   25SAPC   H7X 3353   1.687   5.383   7.164 -0.7444  1.5381 -0.1840
   25SAPC   H7Y 3354   1.749   5.522   7.058  0.1158  0.6002  1.6864
   25SAPC   C38 3355   1.884   5.430   7.198 -0.1482  1.0427 -0.9936
   25SAPC   H8X 3356   1.949   5.512   7.161 -0.1820  0.9231 -1.3241
   25SAPC   H8Y 3357   1.943   5.336   7.208 -0.7795  0.8877  1.7633
   25SAPC   C39 3358   1.834   5.460   7.341 -0.2898 -0.1677  0.5671
   25SAPC   H9X 3359   1.754   5.388   7.369  1.7202 -3.2301 -1.2759
   25SAPC   H9Y 3360   1.807   5.568   7.347  0.8115  0.0451  1.9756
   25SAPC  C310 3361   1.946   5.456   7.447  0.0255 -0.3624  0.1595
   25SAPC  H10X 3362   1.914   5.497   7.545 -0.9565 -1.3902  0.2858
   25SAPC  H10Y 3363   2.030   5.520   7.414  1.3281 -1.7565  0.7198
   25SAPC  C311 3364   2.001   5.313   7.475 -0.8074  0.4630  0.1050
   25SAPC  H11X 3365   2.083   5.318   7.549 -0.1718 -0.2330 -0.5437
   25SAPC  H11Y 3366   2.045   5.277   7.380  0.7979  0.5094  0.8216
   25SAPC  C312 3367   1.911   5.206   7.533  0.3474  0.8138  0.6643
   25SAPC  H12X 3368   1.967   5.111   7.532  0.9482  1.1585 -1.6479
   25SAPC  H12Y 3369   1.821   5.212   7.467  0.5066  1.3803  0.4892
   25SAPC  C313 3370   1.866   5.229   7.677 -0.1748 -0.8901  0.0414
   25SAPC  H13X 3371   1.791   5.310   7.686 -0.7991 -1.1418 -2.5106
   25SAPC  H13Y 3372   1.947   5.277   7.736  0.3633 -2.4412  0.5811
   25SAPC  C314 3373   1.815   5.099   7.734 -0.2149  0.2976 -0.0225
   25SAPC  H14X 3374   1.901   5.031   7.716 -0.0299 -0.0625  2.1269
   25SAPC  H14Y 3375   1.725   5.056   7.685 -2.0382 -0.9451  4.1331
   25SAPC  C315 3376   1.785   5.096   7.888 -0.1219 -0.2215 -0.4377
   25SAPC  H15X 3377   1.710   5.176   7.902 -0.9383 -0.8593 -1.1313
   25SAPC  H15Y 3378   1.879   5.132   7.935  0.0642  0.0778 -1.0383
   25SAPC  C316 3379   1.751   4.955   7.921  0.0293 -0.1400  0.4171
   25SAPC  H16X 3380   1.840   4.894   7.894  0.0990 -0.0203  0.3833
   25SAPC  H16Y 3381   1.664   4.913   7.866  3.4115 -0.5393 -5.0233
   25SAPC  C317 3382   1.739   4.927   8.074 -0.3480  0.1316  0.0756
   25SAPC  H17X 3383   1.838   4.946   8.121 -0.6680 -1.0118  1.2552
   25SAPC  H17Y 3384   1.712   4.821   8.095 -1.5020  0.2005 -1.0486
   25SAPC  C318 3385   1.627   5.016   8.132 -0.2647  1.0399 -0.0649
   25SAPC  H18X 3386   1.657   5.122   8.145 -0.6882  1.1940 -0.3075
   25SAPC  H18Y 3387   1.602   4.975   8.232  4.2610 -2.3551 -0.1807
   25SAPC  H18Z 3388   1.537   5.009   8.067 -0.8953  1.7383  0.7311
   26SAPC     N 3389   1.240   1.145   6.342  0.7185  0.4072  0.0356
   26SAPC   C12 3390   1.094   1.106   6.378 -0.4936  0.1406  0.3779
   26SAPC  H12A 3391   1.053   1.195   6.425 -0.8748  0.0488  0.2255
   26SAPC  H12B 3392   1.093   1.035   6.460 -0.6761  0.4517  0.6504
   26SAPC   C13 3393   1.309   1.030   6.272 -0.5188  0.1797  0.1173
   26SAPC  H13A 3394   1.412   1.055   6.251  0.6905 -1.9886  3.1919
   26SAPC  H13B 3395   1.321   0.942   6.334  0.6626  0.4619  0.3096
   26SAPC  H13C 3396   1.254   1.003   6.183  2.3828 -0.4774 -1.5749
   26SAPC   C14 3397   1.233   1.263   6.249 -0.3814  0.2711 -0.4557
   26SAPC  H14A 3398   1.219   1.354   6.306 -0.4492 -0.0281  0.0092
   26SAPC  H14B 3399   1.324   1.278   6.193  0.0709  0.0624  0.2091
   26SAPC  H14C 3400   1.147   1.251   6.184 -0.4854 -2.6026  0.1202
   26SAPC   C15 3401   1.324   1.180   6.461 -0.0247 -0.5426 -0.1951
   26SAPC  H15A 3402   1.300   1.269   6.516 -1.0431 -1.2093  0.4539
   26SAPC  H15B 3403   1.324   1.102   6.536 -1.2731  2.1254  2.6705
   26SAPC  H15C 3404   1.423   1.180   6.417 -0.1429 -0.9912 -0.4632
   26SAPC   C11 3405   1.006   1.069   6.256  0.3672  0.2024 -0.4702
   26SAPC  H11A 3406   1.007   1.162   6.196  1.3360  0.1371 -0.5509
   26SAPC  H11B 3407   0.901   1.053   6.290  0.7841 -2.6729 -0.3490
   26SAPC     P 3408   1.037   0.808   6.251 -0.4833 -0.4156  0.4969
   26SAPC   O13 3409   0.928   0.743   6.176 -0.7049  0.5655  0.4418
   26SAPC   O14 3410   1.166   0.743   6.242 -0.5529  0.2779 -0.0827
   26SAPC   O12 3411   1.051   0.952   6.183  0.1478  0.1197  0.3884
   26SAPC   O11 3412   0.988   0.842   6.395 -0.1942 -0.1233 -0.4750
   26SAPC    C1 3413   0.937   0.744   6.489  0.5728  0.1291 -0.0184
   26SAPC    HA 3414   0.861   0.795   6.552 -0.6837 -2.2347  0.4296
   26SAPC    HB 3415   0.880   0.666   6.433  1.9292 -0.4818 -0.5840
   26SAPC    C2 3416   1.049   0.687   6.570  1.0440  0.8146  0.3397
   26SAPC    HS 3417   1.125   0.648   6.498  0.4307  0.3627 -0.0733
   26SAPC   O21 3418   0.994   0.581   6.652 -0.1609  0.0990  0.3195
   26SAPC   C21 3419   1.087   0.498   6.702  0.8421 -0.2543 -0.9283
   26SAPC   O22 3420   1.205   0.503   6.669  0.3916  0.5273 -0.2537
   26SAPC   C22 3421   1.024   0.413   6.815  0.2501 -0.7921 -0.6558
   26SAPC   H2R 3422   1.002   0.484   6.898  1.4749 -0.4814 -0.5953
   26SAPC   H2S 3423   0.927   0.375   6.775 -0.6050  2.3274 -1.7258
   26SAPC    C3 3424   1.127   0.798   6.647 -0.0261 -0.2708 -0.5969
   26SAPC    HX 3425   1.148   0.880   6.575 -2.1883  0.0962 -0.8643
   26SAPC    HY 3426   1.224   0.751   6.672  0.4753  0.3552 -1.3450
   26SAPC   O31 3427   1.053   0.850   6.760  0.0567 -0.1320 -0.1174
   26SAPC   C31 3428   1.080   0.786   6.874 -0.4478  0.1270 -0.6442
   26SAPC   O32 3429   1.159   0.695   6.887  0.3874  0.5853  0.6823
   26SAPC   C32 3430   0.978   0.825   6.982  0.1466  0.0606  0.0098
   26SAPC   H2X 3431   0.873   0.809   6.949  0.2797 -2.8897  0.8445
   26SAPC   H2Y 3432   0.988   0.932   7.009  1.6268 -0.1605  0.3749
   26SAPC   C23 3433   1.116   0.298   6.855  0.3383 -0.5060 -0.0406
   26SAPC   H3R 3434   1.206   0.348   6.895  0.7297 -1.6738  0.5629
   26SAPC   H3S 3435   1.124   0.242   6.759 -0.4052  1.1923 -1.1232
   26SAPC   C24 3436   1.064   0.203   6.963  0.0946  0.6335  1.3108
   26SAPC   H4R 3437   0.957   0.187   6.936  0.6736 -2.5620  0.6976
   26SAPC   H4S 3438   1.062   0.255   7.062  0.0154 -0.5237  1.9297
   26SAPC   C25 3439   1.142   0.070   6.979 -0.4755  0.3630  0.0762
   26SAPC   H5R 3440   1.164   0.013   6.887 -1.4773 -1.5347  0.9862
   26SAPC   C26 3441   1.180   0.026   7.101 -0.2609 -0.0714 -0.1339
   26SAPC   H6R 3442   1.228  -0.072   7.105 -1.0309 -0.4692 -0.4472
   26SAPC   C27 3443   1.151   0.081   7.236 -0.5469 -0.1170 -0.3443
   26SAPC   H7R 3444   1.040   0.084   7.236 -0.5414  0.0981 -0.0619
   26SAPC   H7S 3445   1.183   0.188   7.243 -0.8765  0.1192 -2.1708
   26SAPC   C28 3446   1.211   0.002   7.348 -0.4542  0.3282  0.0749
   26SAPC   H8R 3447   1.275  -0.084   7.322 -0.4305  0.6995 -1.1241
   26SAPC   C29 3448   1.192   0.014   7.478 -0.0337  0.4791  0.4965
   26SAPC   H9R 3449   1.242  -0.050   7.552 -0.4997  0.8492  1.1418
   26SAPC  C210 3450   1.110   0.114   7.545  0.5223  0.1789 -0.7648
   26SAPC  H10R 3451   1.087   0.204   7.483  3.0609  0.6852 -1.0121
   26SAPC  H10S 3452   1.155   0.159   7.636 -0.4563 -0.0325 -0.1641
   26SAPC  C211 3453   0.974   0.062   7.574  0.1913 -0.0026  0.1699
   26SAPC  H11R 3454   0.899   0.058   7.494 -0.3378  1.4875  0.5774
   26SAPC  C212 3455   0.943   0.019   7.697 -0.5257  0.0223  0.1655
   26SAPC  H12R 3456   0.844  -0.025   7.716  0.6150 -1.4278  2.9938
   26SAPC  C213 3457   1.029   0.021   7.824 -0.2636 -0.1394 -0.0596
   26SAPC  H13R 3458   1.131   0.057   7.799 -0.3623  1.1463  1.3249
   26SAPC  H13S 3459   1.053  -0.080   7.865  1.8826  0.5551  0.4703
   26SAPC  C214 3460   0.988   0.111   7.939  0.1064 -0.0010  0.1312
   26SAPC  H14R 3461   1.014   0.218   7.946  0.0711  0.0390 -0.3009
   26SAPC  C215 3462   0.888   0.070   8.021 -0.1082  0.9515  0.4016
   26SAPC  H15R 3463   0.864   0.135   8.106 -1.5542 -1.3433  1.8116
   26SAPC  C216 3464   0.824  -0.069   8.030 -0.8451 -0.2553 -0.2870
   26SAPC  H16R 3465   0.883  -0.154   7.989  2.2576  0.4204  2.5685
   26SAPC  H16S 3466   0.727  -0.071   7.976 -0.2391  0.8422 -1.4519
   26SAPC  C217 3467   0.791  -0.105   8.176 -0.4182  0.4635  0.1213
   26SAPC  H17R 3468   0.762  -0.016   8.237 -0.3037  1.0988 -0.7418
   26SAPC  H17S 3469   0.883  -0.153   8.213  0.1605  1.0110 -0.5849
   26SAPC  C218 3470   0.672  -0.206   8.193  0.0322 -0.4746  0.3618
   26SAPC  H18R 3471   0.681  -0.272   8.105  1.6757 -0.3030  0.3695
   26SAPC  H18S 3472   0.574  -0.155   8.185 -0.1001 -0.8850 -0.7573
   26SAPC  C219 3473   0.677  -0.284   8.323  0.4602 -0.0148  0.6858
   26SAPC  H19R 3474   0.706  -0.210   8.401  0.1166 -0.1164  0.9135
   26SAPC  H19S 3475   0.762  -0.355   8.321  1.0709  0.7222  0.4278
   26SAPC  C220 3476   0.544  -0.352   8.354  0.3374 -0.5722 -0.0109
   26SAPC  H20R 3477   0.467  -0.280   8.390 -0.6354  0.2149 -3.5077
   26SAPC  H20S 3478   0.562  -0.435   8.426  2.1669 -1.0500 -0.9862
   26SAPC  H20T 3479   0.502  -0.396   8.261 -2.4695  0.9203  0.5104
   26SAPC   C33 3480   1.004   0.741   7.113 -0.1607  0.4030  0.1345
   26SAPC   H3X 3481   1.113   0.734   7.132 -0.6593 -1.3346  2.6937
   26SAPC   H3Y 3482   0.975   0.637   7.082  0.0944  0.2599  0.3813
   26SAPC   C34 3483   0.939   0.798   7.240  0.5815  0.8700  0.6468
   26SAPC   H4X 3484   0.831   0.816   7.220  0.6202 -0.6813 -0.9997
   26SAPC   H4Y 3485   0.986   0.895   7.267 -2.0402  2.4291 -0.2135
   26SAPC   C35 3486   0.962   0.701   7.359 -0.0486 -0.3782  0.2081
   26SAPC   H5X 3487   1.069   0.679   7.379 -0.2130 -0.7466  0.6949
   26SAPC   H5Y 3488   0.917   0.605   7.324 -3.0747  0.5105  1.5735
   26SAPC   C36 3489   0.888   0.748   7.488  0.6286 -0.0722  0.1024
   26SAPC   H6X 3490   0.781   0.758   7.459  0.5436  1.7984  0.9548
   26SAPC   H6Y 3491   0.928   0.846   7.521  0.4045 -0.4102  1.3794
   26SAPC   C37 3492   0.907   0.647   7.602 -0.6746  0.0537 -0.2274
   26SAPC   H7X 3493   0.911   0.544   7.562 -1.3946 -0.2117  0.3582
   26SAPC   H7Y 3494   0.814   0.657   7.663 -0.2453  2.3195  0.1118
   26SAPC   C38 3495   1.030   0.690   7.699  0.0373  0.3990  0.5500
   26SAPC   H8X 3496   1.032   0.799   7.718  0.6961  0.6185 -0.7675
   26SAPC   H8Y 3497   1.125   0.670   7.646 -0.3662 -0.7572  0.2308
   26SAPC   C39 3498   1.036   0.617   7.834  0.1347  0.3032  0.5638
   26SAPC   H9X 3499   1.049   0.512   7.802 -0.2651  0.0396  1.2410
   26SAPC   H9Y 3500   0.941   0.619   7.892 -0.9838 -0.7660 -1.1940
   26SAPC  C310 3501   1.157   0.640   7.920  0.3482  0.1083 -0.3415
   26SAPC  H10X 3502   1.148   0.731   7.985 -1.7715  0.2495 -0.8008
   26SAPC  H10Y 3503   1.247   0.661   7.858  1.6546  1.6004  1.9452
   26SAPC  C311 3504   1.186   0.517   8.009 -0.4152  0.5743 -0.3655
   26SAPC  H11X 3505   1.293   0.532   8.036 -0.5036 -2.1098  1.7545
   26SAPC  H11Y 3506   1.188   0.427   7.944  0.8258  0.0058  0.4261
   26SAPC  C312 3507   1.088   0.496   8.125 -0.7474 -0.8778  0.2636
   26SAPC  H12X 3508   0.987   0.475   8.084 -0.0254 -1.9303 -0.9791
   26SAPC  H12Y 3509   1.082   0.588   8.188 -2.7097 -0.3783 -0.6034
   26SAPC  C313 3510   1.126   0.376   8.207  0.8358 -0.3425 -0.1238
   26SAPC  H13X 3511   1.234   0.369   8.230  1.0984  1.3742 -0.7933
   26SAPC  H13Y 3512   1.113   0.277   8.158 -1.3541  0.6715 -1.6810
   26SAPC  C314 3513   1.043   0.358   8.333  0.2732  0.2865  0.0155
   26SAPC  H14X 3514   0.938   0.333   8.307 -0.8500  1.8083  2.9196
   26SAPC  H14Y 3515   1.039   0.450   8.395 -0.9151  0.4510 -0.3003
   26SAPC  C315 3516   1.093   0.235   8.422  0.2392 -0.4329  0.9965
   26SAPC  H15X 3517   1.202   0.253   8.432  0.6551 -1.4597 -1.3469
   26SAPC  H15Y 3518   1.069   0.144   8.362  0.8971 -0.8306  1.3311
   26SAPC  C316 3519   1.036   0.210   8.563 -0.1319 -0.4557 -0.6241
   26SAPC  H16X 3520   0.927   0.190   8.561 -0.0161 -1.2225  0.6409
   26SAPC  H16Y 3521   1.037   0.300   8.629 -4.0879 -0.5513 -0.3356
   26SAPC  C317 3522   1.100   0.096   8.643 -0.6040  1.0727  0.2000
   26SAPC  H17X 3523   1.210   0.113   8.652 -0.0354 -1.4446 -1.5173
   26SAPC  H17Y 3524   1.080   0.002   8.587 -0.7426 -0.0957  2.1555
   26SAPC  C318 3525   1.020   0.077   8.775 -0.6661 -0.3025  0.1690
   26SAPC  H18X 3526   0.910   0.062   8.768 -0.4924 -1.3512 -0.3612
   26SAPC  H18Y 3527   1.028   0.165   8.844 -0.4757 -1.2471  1.3671
   26SAPC  H18Z 3528   1.051  -0.010   8.836  1.6134 -0.2836 -0.9217
   27SAPC     N 3529   6.262   0.748   6.394 -0.6845  0.1935  0.0368
   27SAPC   C12 3530   6.274   0.802   6.533  0.2215  0.0231  0.1431
   27SAPC  H12A 3531   6.191   0.867   6.557  1.0044  0.2011  2.4763
   27SAPC  H12B 3532   6.360   0.868   6.536  0.9808 -0.9336 -0.4546
   27SAPC   C13 3533   6.288   0.847   6.283  0.2443  0.4360 -0.2695
   27SAPC  H13A 3534   6.387   0.880   6.308  0.5239 -0.1717 -0.5695
   27SAPC  H13B 3535   6.290   0.811   6.181  0.5697 -0.1355 -0.0595
   27SAPC  H13C 3536   6.223   0.934   6.285 -1.0610 -0.5402  0.0677
   27SAPC   C14 3537   6.363   0.632   6.383 -0.3490  0.1821 -0.7373
   27SAPC  H14A 3538   6.465   0.656   6.407  0.0766 -2.4864  0.3032
   27SAPC  H14B 3539   6.340   0.554   6.454  0.1027  1.4055  0.7632
   27SAPC  H14C 3540   6.351   0.592   6.283  2.0385 -0.2502 -0.8583
   27SAPC   C15 3541   6.127   0.678   6.369  0.1251  0.3179  0.0282
   27SAPC  H15A 3542   6.045   0.740   6.336  0.7919  0.5426 -1.2027
   27SAPC  H15B 3543   6.140   0.601   6.295 -0.3449  1.7093 -1.5430
   27SAPC  H15C 3544   6.091   0.624   6.455  3.7614 -2.8492 -0.3157
   27SAPC   C11 3545   6.300   0.709   6.654 -1.1285  0.2327  0.3099
   27SAPC  H11A 3546   6.308   0.776   6.742  2.3814  2.0664 -1.3059
   27SAPC  H11B 3547   6.394   0.652   6.639 -0.0653  1.7678  1.0672
   27SAPC     P 3548   6.061   0.656   6.743  0.3981  0.1284 -0.1677
   27SAPC   O13 3549   6.065   0.793   6.796  0.0775 -0.4984  0.4987
   27SAPC   O14 3550   5.963   0.635   6.637 -0.3534  0.1423 -0.2590
   27SAPC   O12 3551   6.193   0.613   6.670 -0.0960  0.6863 -0.3726
   27SAPC   O11 3552   6.050   0.547   6.858 -0.0661  0.1823 -0.3832
   27SAPC    C1 3553   5.925   0.508   6.918 -0.3858 -0.1931  0.4061
   27SAPC    HA 3554   5.838   0.545   6.859  1.4917  2.9524 -0.5174
   27SAPC    HB 3555   5.927   0.397   6.918  2.1123 -0.1921 -1.5188
   27SAPC    C2 3556   5.908   0.550   7.062 -0.2200  0.8887  0.0447
   27SAPC    HS 3557   5.826   0.497   7.115  1.4727 -0.6456  1.1521
   27SAPC   O21 3558   5.915   0.695   7.087  0.6073  0.0907 -0.0979
   27SAPC   C21 3559   5.813   0.760   7.026  0.5690  0.2726 -0.5075
   27SAPC   O22 3560   5.720   0.706   6.972  0.0462 -1.6047  0.3752
   27SAPC   C22 3561   5.831   0.911   7.026  0.3244  0.6892 -0.7167
   27SAPC   H2R 3562   5.881   0.944   7.120  0.4135  0.0561 -0.5432
   27SAPC   H2S 3563   5.902   0.931   6.942  1.5258  0.7009  0.3002
   27SAPC    C3 3564   6.038   0.495   7.139  0.3923 -0.1608 -0.2327
   27SAPC    HX 3565   6.126   0.559   7.115  1.9799 -1.8632  0.9215
   27SAPC    HY 3566   6.070   0.398   7.095 -0.4202 -0.5355  0.0011
   27SAPC   O31 3567   6.012   0.493   7.285 -0.3111  0.1433  0.1493
   27SAPC   C31 3568   5.982   0.372   7.331  0.2816  0.2411 -0.8310
   27SAPC   O32 3569   6.007   0.264   7.272  0.1309  0.0177 -0.3893
   27SAPC   C32 3570   5.942   0.378   7.472 -0.4411  0.3853 -0.1713
   27SAPC   H2X 3571   5.875   0.467   7.482 -1.8332 -0.6892  0.2474
   27SAPC   H2Y 3572   6.033   0.396   7.532 -0.9822 -2.6428  1.6274
   27SAPC   C23 3573   5.706   0.997   7.006 -0.4180  0.4823 -0.2636
   27SAPC   H3R 3574   5.654   0.953   6.918 -0.1799  0.1786 -0.2559
   27SAPC   H3S 3575   5.727   1.105   6.993  0.1755  0.4263  0.1986
   27SAPC   C24 3576   5.614   0.990   7.127  0.7415  0.9923 -0.1841
   27SAPC   H4R 3577   5.590   0.883   7.145 -1.3276  2.1451  4.8109
   27SAPC   H4S 3578   5.514   1.028   7.095 -0.2451 -0.1520  1.4624
   27SAPC   C25 3579   5.656   1.058   7.255 -0.0216 -0.4045  0.0080
   27SAPC   H5R 3580   5.660   1.168   7.246  5.6715 -0.5100 -0.5786
   27SAPC   C26 3581   5.687   1.003   7.367  0.7132  0.0287  0.0586
   27SAPC   H6R 3582   5.723   1.057   7.456  1.4730 -0.7357  0.2183
   27SAPC   C27 3583   5.684   0.854   7.385  0.5097 -0.3904 -0.3264
   27SAPC   H7R 3584   5.663   0.798   7.292  0.6209 -1.5901  0.3551
   27SAPC   H7S 3585   5.599   0.822   7.450  0.0212 -0.2090 -0.8713
   27SAPC   C28 3586   5.816   0.803   7.437 -0.1923  0.2094 -0.2234
   27SAPC   H8R 3587   5.896   0.763   7.373  1.1618  1.4655  0.6650
   27SAPC   C29 3588   5.844   0.807   7.570 -0.4028  0.3940  0.6173
   27SAPC   H9R 3589   5.941   0.775   7.611 -0.6322  0.5475  1.2850
   27SAPC  C210 3590   5.748   0.858   7.681 -0.4129 -0.7029  0.3862
   27SAPC  H10R 3591   5.653   0.800   7.678 -2.2820  2.2697  0.2849
   27SAPC  H10S 3592   5.730   0.962   7.648 -1.6122 -0.9310  0.3007
   27SAPC  C211 3593   5.784   0.860   7.821 -0.2489  0.2097  0.3361
   27SAPC  H11R 3594   5.780   0.959   7.869  0.7786  1.0158 -1.1977
   27SAPC  C212 3595   5.821   0.749   7.891  0.6048  0.5287  0.1606
   27SAPC  H12R 3596   5.835   0.756   8.000  0.6483 -0.6135  0.2350
   27SAPC  C213 3597   5.834   0.608   7.840  0.0029 -0.0078 -0.3904
   27SAPC  H13R 3598   5.811   0.597   7.732  2.3839 -0.3024 -0.9037
   27SAPC  H13S 3599   5.759   0.545   7.891  0.9300 -0.7169  0.1172
   27SAPC  C214 3600   5.978   0.560   7.863  0.1708  0.3599  0.8102
   27SAPC  H14R 3601   6.048   0.561   7.778  0.6665  0.9019  1.2209
   27SAPC  C215 3602   6.025   0.519   7.982  0.1424 -0.4037 -0.1355
   27SAPC  H15R 3603   6.132   0.491   7.988  0.4603  0.7868 -0.1073
   27SAPC  C216 3604   5.952   0.503   8.115 -0.2563  0.3351  0.3839
   27SAPC  H16R 3605   5.966   0.398   8.151 -1.1943 -0.2363 -0.9101
   27SAPC  H16S 3606   5.842   0.516   8.113 -0.6392 -2.3857  1.2540
   27SAPC  C217 3607   6.008   0.603   8.200  0.2454  0.0922  1.1590
   27SAPC  H17R 3608   5.984   0.704   8.163  0.3425  0.3082  1.6795
   27SAPC  H17S 3609   6.119   0.602   8.198  0.2859  2.9836 -0.5797
   27SAPC  C218 3610   5.980   0.587   8.350 -0.1129 -0.5728  0.1657
   27SAPC  H18R 3611   6.020   0.488   8.379 -0.7971 -0.1687  2.5316
   27SAPC  H18S 3612   5.871   0.589   8.372 -0.0062  1.0150  0.6011
   27SAPC  C219 3613   6.047   0.703   8.436  0.5684  0.0564 -0.1984
   27SAPC  H19R 3614   6.003   0.801   8.407 -2.8670 -1.4077 -0.1155
   27SAPC  H19S 3615   6.153   0.705   8.402  1.4405 -2.1671  2.2437
   27SAPC  C220 3616   6.059   0.679   8.586 -0.0325 -0.0174  0.3810
   27SAPC  H20R 3617   6.123   0.591   8.611 -1.7374 -1.6289 -0.8061
   27SAPC  H20S 3618   5.959   0.668   8.633  0.4389 -0.1252  1.3943
   27SAPC  H20T 3619   6.098   0.763   8.647 -2.9276  1.7213 -0.0688
   27SAPC   C33 3620   5.866   0.249   7.512  0.6440  0.2526 -0.0103
   27SAPC   H3X 3621   5.943   0.169   7.514  1.9381  1.4472 -0.4366
   27SAPC   H3Y 3622   5.788   0.215   7.440 -0.8430  1.0528  1.1919
   27SAPC   C34 3623   5.804   0.267   7.649  0.5007  0.0757  0.4126
   27SAPC   H4X 3624   5.705   0.217   7.644 -1.0653  2.9342  1.5567
   27SAPC   H4Y 3625   5.780   0.371   7.682 -1.7647  0.5422 -2.5322
   27SAPC   C35 3626   5.880   0.196   7.762  0.5750 -0.5368  0.1754
   27SAPC   H5X 3627   5.968   0.263   7.769  0.2602 -0.0709 -0.3684
   27SAPC   H5Y 3628   5.921   0.102   7.719  1.1681  0.7280 -2.0713
   27SAPC   C36 3629   5.816   0.188   7.905  0.2882 -0.2293  0.0106
   27SAPC   H6X 3630   5.721   0.131   7.910 -0.6962  1.4396  0.8491
   27SAPC   H6Y 3631   5.795   0.291   7.941  1.6284  0.1155 -0.1803
   27SAPC   C37 3632   5.920   0.118   7.995 -0.6613  0.2673 -0.1550
   27SAPC   H7X 3633   6.016   0.169   8.015  1.2448 -3.0447 -0.6025
   27SAPC   H7Y 3634   5.945   0.027   7.937 -1.1410  0.2469 -0.3379
   27SAPC   C38 3635   5.854   0.073   8.125  0.4610  0.4985  0.5022
   27SAPC   H8X 3636   5.754   0.031   8.102  1.1883 -0.8021 -0.2734
   27SAPC   H8Y 3637   5.840   0.161   8.192  1.0295 -0.4352  1.8679
   27SAPC   C39 3638   5.933  -0.043   8.188 -0.6099 -0.4683  0.7824
   27SAPC   H9X 3639   6.026  -0.004   8.235 -2.0975  1.5041  2.1946
   27SAPC   H9Y 3640   5.958  -0.105   8.100 -1.4256 -1.0401  0.9565
   27SAPC  C310 3641   5.846  -0.114   8.287  0.8476 -0.4155 -0.4871
   27SAPC  H10X 3642   5.743  -0.149   8.263 -0.9146  2.2923  2.6406
   27SAPC  H10Y 3643   5.823  -0.045   8.371 -0.0958 -1.2794 -0.0065
   27SAPC  C311 3644   5.912  -0.241   8.336  0.2298 -0.5108 -0.0726
   27SAPC  H11X 3645   5.974  -0.295   8.262  2.0686  0.4340  0.7259
   27SAPC  H11Y 3646   5.842  -0.311   8.386 -0.0823  0.2663  0.5981
   27SAPC  C312 3647   6.010  -0.208   8.448 -0.3402 -0.6471 -1.2450
   27SAPC  H12X 3648   5.969  -0.190   8.549  3.0625 -1.5448  0.3616
   27SAPC  H12Y 3649   6.065  -0.114   8.427  0.1874 -0.8679 -0.8467
   27SAPC  C313 3650   6.108  -0.324   8.466  0.9570  0.2671  0.1657
   27SAPC  H13X 3651   6.153  -0.322   8.364  0.6668 -2.7975 -0.0785
   27SAPC  H13Y 3652   6.062  -0.423   8.484  0.9667  0.4880  1.4275
   27SAPC  C314 3653   6.215  -0.289   8.576 -0.4094  0.5041  0.3203
   27SAPC  H14X 3654   6.160  -0.271   8.671 -0.3479 -1.9818  0.8567
   27SAPC  H14Y 3655   6.266  -0.196   8.543  1.0904  0.2051  1.7318
   27SAPC  C315 3656   6.308  -0.409   8.599  0.1568  0.7553  0.9275
   27SAPC  H15X 3657   6.331  -0.455   8.500  0.4569  1.0578  0.8534
   27SAPC  H15Y 3658   6.262  -0.490   8.659  0.8948  1.9646  3.1955
   27SAPC  C316 3659   6.432  -0.368   8.671 -0.2847 -0.4072  0.0308
   27SAPC  H16X 3660   6.416  -0.328   8.774 -0.1221  0.7491 -0.3842
   27SAPC  H16Y 3661   6.490  -0.299   8.605 -1.0581  1.0262  0.8251
   27SAPC  C317 3662   6.534  -0.485   8.688 -0.0809 -0.3902 -0.1299
   27SAPC  H17X 3663   6.628  -0.458   8.741 -1.1705  0.8983  1.1860
   27SAPC  H17Y 3664   6.567  -0.533   8.593  0.3932  0.3818 -0.3641
   27SAPC  C318 3665   6.467  -0.592   8.776  0.2777  0.4949 -0.8287
   27SAPC  H18X 3666   6.433  -0.550   8.873  1.4212  0.2521 -0.3104
   27SAPC  H18Y 3667   6.541  -0.674   8.789  0.8380  1.3029  1.2630
   27SAPC  H18Z 3668   6.368  -0.624   8.737  0.9172 -2.0240 -0.4482
   28SAPC     N 3669   5.411   4.297   6.283 -0.2021 -0.2678 -0.0885
   28SAPC   C12 3670   5.404   4.388   6.160 -0.2990 -0.5709  0.2828
   28SAPC  H12A 3671   5.373   4.326   6.077  0.7402 -0.5238 -0.1461
   28SAPC  H12B 3672   5.510   4.402   6.144 -0.4047 -0.6324 -0.5186
   28SAPC   C13 3673   5.295   4.206   6.288 -0.4803  0.0447 -0.4381
   28SAPC  H13A 3674   5.298   4.148   6.379 -0.9579  3.3028  1.7478
   28SAPC  H13B 3675   5.200   4.256   6.297  0.7782  2.3566  0.1426
   28SAPC  H13C 3676   5.287   4.155   6.193 -2.3141  0.4836 -0.5425
   28SAPC   C14 3677   5.531   4.221   6.268  0.2439  0.1864 -1.2252
   28SAPC  H14A 3678   5.555   4.154   6.349 -2.0466 -0.5858 -1.1318
   28SAPC  H14B 3679   5.514   4.151   6.187 -1.9284 -1.5677  0.6627
   28SAPC  H14C 3680   5.621   4.279   6.259  0.5291 -0.0736 -0.1522
   28SAPC   C15 3681   5.408   4.386   6.405 -0.0739 -0.0211  0.3560
   28SAPC  H15A 3682   5.320   4.449   6.399  0.4557  0.5873 -1.3928
   28SAPC  H15B 3683   5.399   4.335   6.500  0.5608 -1.0272 -0.1230
   28SAPC  H15C 3684   5.494   4.451   6.408 -0.0971  0.2415 -2.8409
   28SAPC   C11 3685   5.323   4.513   6.160 -0.1113 -0.0398  0.0031
   28SAPC  H11A 3686   5.327   4.558   6.059  1.0310 -0.6370 -0.2270
   28SAPC  H11B 3687   5.376   4.581   6.231 -1.2672  0.3731  0.4827
   28SAPC     P 3688   5.061   4.449   6.118 -0.5051 -0.0799  0.0810
   28SAPC   O13 3689   5.046   4.514   5.988  0.0416 -0.1372 -0.0180
   28SAPC   O14 3690   5.058   4.299   6.116  0.2431  0.2579  0.1885
   28SAPC   O12 3691   5.189   4.506   6.199 -0.7264 -0.0253  0.3521
   28SAPC   O11 3692   4.933   4.500   6.207 -0.0076  0.1317  0.1231
   28SAPC    C1 3693   4.939   4.633   6.267 -0.1026 -0.2700 -0.1285
   28SAPC    HA 3694   5.017   4.695   6.217 -0.9234  0.4980 -0.4652
   28SAPC    HB 3695   4.841   4.686   6.264  0.1603  0.2158 -0.1938
   28SAPC    C2 3696   4.993   4.621   6.410 -0.7002 -0.1082 -0.2090
   28SAPC    HS 3697   5.101   4.600   6.399 -0.7133 -0.3645  0.1750
   28SAPC   O21 3698   4.924   4.524   6.497  0.1070 -0.3374  0.6860
   28SAPC   C21 3699   5.007   4.457   6.584  0.6910 -0.6127 -0.5768
   28SAPC   O22 3700   5.129   4.475   6.582  0.2604  0.3291 -0.5286
   28SAPC   C22 3701   4.934   4.368   6.680 -0.6439  0.3341  0.5104
   28SAPC   H2R 3702   4.912   4.276   6.622 -1.2926  1.0006 -0.2996
   28SAPC   H2S 3703   5.002   4.340   6.764  0.3980 -1.0494 -0.7592
   28SAPC    C3 3704   4.991   4.756   6.484  0.1354  0.0020  0.3498
   28SAPC    HX 3705   4.887   4.777   6.516  0.2734 -0.7566  1.3414
   28SAPC    HY 3706   5.023   4.833   6.410  0.1784 -0.5306 -0.1845
   28SAPC   O31 3707   5.079   4.755   6.601  0.3707  0.3058  0.0428
   28SAPC   C31 3708   5.039   4.819   6.711  1.0139  0.1552  0.1918
   28SAPC   O32 3709   4.938   4.889   6.722 -0.4993  0.7749 -0.1020
   28SAPC   C32 3710   5.146   4.793   6.814 -0.2163 -0.3235  0.6848
   28SAPC   H2X 3711   5.232   4.859   6.787 -0.6457 -0.2411 -0.5192
   28SAPC   H2Y 3712   5.189   4.693   6.793 -0.9110 -0.4285 -0.2800
   28SAPC   C23 3713   4.795   4.436   6.719 -0.4983 -0.7035 -0.3593
   28SAPC   H3R 3714   4.742   4.455   6.623  0.1895  0.5453 -0.4986
   28SAPC   H3S 3715   4.804   4.532   6.774 -0.2229 -1.8112  1.5692
   28SAPC   C24 3716   4.701   4.343   6.800  0.2171  0.0420  0.2875
   28SAPC   H4R 3717   4.604   4.394   6.821  0.1621  0.0322  0.0544
   28SAPC   H4S 3718   4.684   4.251   6.740 -2.3026  1.5212 -1.3901
   28SAPC   C25 3719   4.755   4.304   6.937  0.6410 -0.1941 -0.4619
   28SAPC   H5R 3720   4.861   4.277   6.946  0.6616  0.1060  0.1817
   28SAPC   C26 3721   4.695   4.308   7.055  0.1661 -0.5799  0.0982
   28SAPC   H6R 3722   4.751   4.288   7.148  0.7333  2.7415  0.5568
   28SAPC   C27 3723   4.555   4.356   7.089 -0.8669  0.1986  0.8975
   28SAPC   H7R 3724   4.501   4.286   7.157  0.0489 -0.3555  1.0581
   28SAPC   H7S 3725   4.486   4.368   7.002  0.9144  4.4114 -0.0607
   28SAPC   C28 3726   4.550   4.488   7.145 -0.0436 -0.6377  0.0414
   28SAPC   H8R 3727   4.572   4.564   7.069  2.4563 -0.7294  0.6154
   28SAPC   C29 3728   4.545   4.517   7.277 -0.0075  0.1049  0.5227
   28SAPC   H9R 3729   4.544   4.625   7.300 -0.6705  0.0933  0.5432
   28SAPC  C210 3730   4.539   4.426   7.401 -0.4407  0.1341  0.5126
   28SAPC  H10R 3731   4.487   4.329   7.381  2.3275 -1.0919 -1.1214
   28SAPC  H10S 3732   4.464   4.471   7.469 -2.3560  1.6915 -2.4769
   28SAPC  C211 3733   4.668   4.397   7.461 -0.4962  0.3165 -0.6632
   28SAPC  H11R 3734   4.759   4.385   7.400  1.4455 -1.0991  2.3759
   28SAPC  C212 3735   4.685   4.396   7.596  0.7199 -0.5686  0.1255
   28SAPC  H12R 3736   4.785   4.375   7.637  0.2800 -1.2801  0.8668
   28SAPC  C213 3737   4.573   4.409   7.697  0.3955 -0.1501  0.7408
   28SAPC  H13R 3738   4.537   4.514   7.692 -0.2743 -0.4732 -1.9309
   28SAPC  H13S 3739   4.628   4.399   7.794  0.7162  0.2759  0.6032
   28SAPC  C214 3740   4.457   4.314   7.700 -0.8244 -0.3344 -0.1982
   28SAPC  H14R 3741   4.455   4.236   7.623  0.6203 -2.3708  1.7778
   28SAPC  C215 3742   4.369   4.304   7.803 -0.4891 -0.6363 -0.3936
   28SAPC  H15R 3743   4.293   4.227   7.788  1.0813 -2.1362 -0.7887
   28SAPC  C216 3744   4.354   4.405   7.914  0.3320 -0.0456  0.0581
   28SAPC  H16R 3745   4.247   4.432   7.911 -0.4301 -2.9015  0.8514
   28SAPC  H16S 3746   4.417   4.497   7.908 -0.7622  0.7910  1.1946
   28SAPC  C217 3747   4.400   4.346   8.047 -0.0773  0.5929 -0.5601
   28SAPC  H17R 3748   4.508   4.322   8.050 -0.4652 -1.2937 -0.8957
   28SAPC  H17S 3749   4.352   4.252   8.081 -0.0178  0.3823 -1.0599
   28SAPC  C218 3750   4.361   4.432   8.171 -0.0623 -0.4535 -0.4617
   28SAPC  H18R 3751   4.393   4.382   8.265 -1.1253 -0.4057 -0.0643
   28SAPC  H18S 3752   4.251   4.434   8.187 -0.4903  0.7940 -3.2877
   28SAPC  C219 3753   4.422   4.577   8.177  0.2040  0.2303  0.3192
   28SAPC  H19R 3754   4.377   4.610   8.273 -0.5354 -0.1945  0.1253
   28SAPC  H19S 3755   4.371   4.638   8.099 -2.8777  1.2571  3.0358
   28SAPC  C220 3756   4.576   4.578   8.171 -0.2214 -0.9177 -0.2408
   28SAPC  H20R 3757   4.609   4.599   8.067 -1.7744 -1.7395 -0.9168
   28SAPC  H20S 3758   4.608   4.476   8.201 -1.7914 -1.7001 -1.1619
   28SAPC  H20T 3759   4.604   4.659   8.242  1.2327  1.8257 -3.7690
   28SAPC   C33 3760   5.091   4.796   6.959  0.1363 -0.0145 -0.0226
   28SAPC   H3X 3761   5.043   4.894   6.982 -0.2952 -0.0880 -0.5874
   28SAPC   H3Y 3762   5.174   4.795   7.032  0.3559 -0.8263 -0.2821
   28SAPC   C34 3763   4.989   4.687   6.989 -0.0166 -0.0757 -0.9059
   28SAPC   H4X 3764   5.016   4.606   6.918  2.6794  1.1157 -1.2813
   28SAPC   H4Y 3765   4.882   4.715   6.978 -0.3434 -0.5791  0.8745
   28SAPC   C35 3766   5.011   4.642   7.138  0.3124  0.2218 -0.2623
   28SAPC   H5X 3767   4.965   4.724   7.198  0.4854 -0.7913  1.2976
   28SAPC   H5Y 3768   5.118   4.644   7.168 -0.3788  1.2065  2.2873
   28SAPC   C36 3769   4.956   4.501   7.160 -0.0807  0.0243  0.2571
   28SAPC   H6X 3770   4.991   4.440   7.074 -3.1444 -1.4422 -0.0009
   28SAPC   H6Y 3771   4.845   4.502   7.163 -0.0851 -0.8990  0.7780
   28SAPC   C37 3772   5.030   4.434   7.279  0.4611 -0.2962  0.3631
   28SAPC   H7X 3773   5.137   4.425   7.249 -0.1417  1.0775 -2.3184
   28SAPC   H7Y 3774   4.999   4.327   7.289  1.0203 -0.5833 -0.9182
   28SAPC   C38 3775   5.028   4.505   7.416  0.4966 -0.2989 -0.4806
   28SAPC   H8X 3776   4.929   4.514   7.464  0.7385  0.2049 -0.0777
   28SAPC   H8Y 3777   5.058   4.611   7.403 -0.3821  0.0877  0.5913
   28SAPC   C39 3778   5.125   4.433   7.512  0.6947  0.0879 -0.0171
   28SAPC   H9X 3779   5.220   4.425   7.455  0.0727 -0.4681 -0.9995
   28SAPC   H9Y 3780   5.089   4.329   7.531  0.5582  0.3790  1.3514
   28SAPC  C310 3781   5.143   4.498   7.649  0.0406 -0.5890  0.5203
   28SAPC  H10X 3782   5.170   4.606   7.642  0.0650 -0.6638 -0.6801
   28SAPC  H10Y 3783   5.222   4.440   7.702  1.5508  2.0742  1.2948
   28SAPC  C311 3784   5.023   4.500   7.741 -0.3184  0.3814 -0.9233
   28SAPC  H11X 3785   4.980   4.397   7.742  1.0996 -0.2281  0.4445
   28SAPC  H11Y 3786   4.949   4.567   7.693 -0.5313  0.3221 -0.6769
   28SAPC  C312 3787   5.052   4.541   7.885  0.1519  0.5148 -0.0940
   28SAPC  H12X 3788   5.089   4.645   7.892  3.2524 -0.2576 -3.1638
   28SAPC  H12Y 3789   5.135   4.470   7.910  1.2207  2.0392  0.7683
   28SAPC  C313 3790   4.930   4.522   7.977  0.4593  0.9727 -0.5074
   28SAPC  H13X 3791   4.898   4.416   7.977  1.3736  0.6914  0.4646
   28SAPC  H13Y 3792   4.850   4.592   7.945  0.6137  1.3152 -0.1481
   28SAPC  C314 3793   4.970   4.548   8.121 -0.5696  0.1908  0.2093
   28SAPC  H14X 3794   4.873   4.551   8.176 -0.9582  0.6140 -0.5050
   28SAPC  H14Y 3795   5.003   4.653   8.109  0.5698 -0.5544 -3.6872
   28SAPC  C315 3796   5.066   4.440   8.172 -0.4461  0.0557  0.3514
   28SAPC  H15X 3797   5.162   4.436   8.117 -1.8708 -0.2688 -2.1935
   28SAPC  H15Y 3798   5.011   4.344   8.169 -3.3917  1.6928 -0.3457
   28SAPC  C316 3799   5.099   4.460   8.318 -0.2132 -0.3438  0.2039
   28SAPC  H16X 3800   5.011   4.466   8.386  0.6307  1.7772  1.1453
   28SAPC  H16Y 3801   5.169   4.543   8.343 -1.0904 -0.1159  1.9662
   28SAPC  C317 3802   5.173   4.334   8.371  0.0759  0.1710  0.1675
   28SAPC  H17X 3803   5.269   4.335   8.316  0.0579  1.6168  0.1394
   28SAPC  H17Y 3804   5.120   4.242   8.340  0.4382 -0.7483  2.2035
   28SAPC  C318 3805   5.185   4.337   8.523 -0.7918  0.2998  0.4752
   28SAPC  H18X 3806   5.223   4.241   8.565  1.5244  0.8674 -0.2449
   28SAPC  H18Y 3807   5.086   4.355   8.569 -1.5793 -1.2292 -0.5652
   28SAPC  H18Z 3808   5.246   4.425   8.552 -0.1125  0.1710 -0.5477
   29SAPC     N 3809   0.595   0.872   6.031 -0.1224  0.1508  0.2636
   29SAPC   C12 3810   0.655   0.952   6.150 -0.7466 -0.1900 -0.0207
   29SAPC  H12A 3811   0.611   1.051   6.153 -0.9494 -0.2819  0.0682
   29SAPC  H12B 3812   0.761   0.966   6.135 -0.8062 -0.3098 -0.5934
   29SAPC   C13 3813   0.444   0.862   6.059  0.3825  0.3702  0.0412
   29SAPC  H13A 3814   0.394   0.956   6.044 -0.1742  0.2917  1.3480
   29SAPC  H13B 3815   0.398   0.793   5.991  1.6264  1.4315 -1.9362
   29SAPC  H13C 3816   0.433   0.826   6.160  0.1883 -1.4580 -0.6155
   29SAPC   C14 3817   0.611   0.945   5.904 -0.0997  0.0993 -0.4226
   29SAPC  H14A 3818   0.712   0.963   5.870  0.1129  0.2955  0.3005
   29SAPC  H14B 3819   0.557   0.894   5.826 -0.5312  0.1320 -0.1467
   29SAPC  H14C 3820   0.563   1.041   5.913 -0.7752 -0.1749 -1.0740
   29SAPC   C15 3821   0.650   0.737   6.010 -0.3039 -0.8437  0.6195
   29SAPC  H15A 3822   0.755   0.748   5.987 -1.3227  3.6327 -2.6001
   29SAPC  H15B 3823   0.645   0.679   6.101 -0.7654 -0.9160  0.5533
   29SAPC  H15C 3824   0.613   0.688   5.921  1.2705 -0.2660 -0.3653
   29SAPC   C11 3825   0.631   0.895   6.295 -0.3624 -0.6259 -0.5526
   29SAPC  H11A 3826   0.687   0.960   6.366 -0.6640 -2.0342  0.9904
   29SAPC  H11B 3827   0.685   0.799   6.303  0.2589 -0.1861  0.5933
   29SAPC     P 3828   0.410   1.026   6.370 -0.3690 -0.1054  0.0743
   29SAPC   O13 3829   0.461   1.129   6.276  0.2520 -0.1532  0.5966
   29SAPC   O14 3830   0.272   0.996   6.365  0.0158 -0.0139  0.1920
   29SAPC   O12 3831   0.488   0.887   6.336  0.2972 -0.2036 -0.3021
   29SAPC   O11 3832   0.467   1.054   6.513  0.0348 -0.3204  0.0700
   29SAPC    C1 3833   0.443   0.951   6.616  0.5380 -1.6237  0.6917
   29SAPC    HA 3834   0.335   0.929   6.628  0.0524 -0.3548 -1.1743
   29SAPC    HB 3835   0.494   0.861   6.576  4.5464  1.3794 -1.2785
   29SAPC    C2 3836   0.510   0.984   6.756 -0.8281 -0.3193 -0.1830
   29SAPC    HS 3837   0.446   1.067   6.792 -0.2002 -0.3808  1.0953
   29SAPC   O21 3838   0.646   1.020   6.742 -0.3992  0.0473 -0.0208
   29SAPC   C21 3839   0.673   1.137   6.691  0.1841  0.6054 -0.4305
   29SAPC   O22 3840   0.598   1.232   6.678  0.4291 -0.7069 -0.2465
   29SAPC   C22 3841   0.817   1.135   6.644 -0.5179 -0.4850  0.7697
   29SAPC   H2R 3842   0.867   1.037   6.658 -1.8871 -1.0719  1.6570
   29SAPC   H2S 3843   0.825   1.154   6.535  1.0084 -0.4541  0.8722
   29SAPC    C3 3844   0.511   0.868   6.862 -0.4454  0.0994 -0.2323
   29SAPC    HX 3845   0.572   0.783   6.824  1.2151  0.0180  2.5051
   29SAPC    HY 3846   0.407   0.830   6.864 -1.1791  2.1401  0.5169
   29SAPC   O31 3847   0.557   0.892   6.996 -0.0292 -0.1067  0.0739
   29SAPC   C31 3848   0.475   0.960   7.071  0.5181 -0.0854  0.3536
   29SAPC   O32 3849   0.366   1.010   7.040 -0.5413  0.4081 -0.0411
   29SAPC   C32 3850   0.516   0.958   7.218 -0.4908 -0.1161  0.2272
   29SAPC   H2X 3851   0.607   1.019   7.235 -0.6443  0.7034 -1.7864
   29SAPC   H2Y 3852   0.530   0.851   7.245 -2.5314  0.1259  2.3959
   29SAPC   C23 3853   0.897   1.239   6.724  0.3717 -0.3016  0.3124
   29SAPC   H3R 3854   0.835   1.327   6.750 -0.5455 -0.9739  0.4397
   29SAPC   H3S 3855   0.983   1.283   6.669 -0.2790  3.6803  2.2875
   29SAPC   C24 3856   0.964   1.183   6.851 -0.1026  0.2757  0.1516
   29SAPC   H4R 3857   1.024   1.097   6.816  0.0473 -0.0445  1.1730
   29SAPC   H4S 3858   0.877   1.145   6.908 -0.0303  1.4767  1.0881
   29SAPC   C25 3859   1.040   1.284   6.937  0.1480 -0.7316 -0.4288
   29SAPC   H5R 3860   1.109   1.342   6.874 -3.5728  1.8012 -2.4002
   29SAPC   C26 3861   1.033   1.315   7.071  0.3051 -0.5290 -0.9500
   29SAPC   H6R 3862   1.078   1.405   7.114 -2.4754  0.3311  0.2952
   29SAPC   C27 3863   0.937   1.238   7.163  0.5116  0.5872  0.3892
   29SAPC   H7R 3864   0.982   1.148   7.210 -3.1796 -1.0443  0.9819
   29SAPC   H7S 3865   0.856   1.190   7.104 -1.6722  3.5548  0.8527
   29SAPC   C28 3866   0.868   1.315   7.270  0.7705  0.5375  0.6627
   29SAPC   H8R 3867   0.779   1.363   7.227 -0.6306 -2.6681 -0.1633
   29SAPC   C29 3868   0.898   1.320   7.400  0.5054 -0.4131 -0.5449
   29SAPC   H9R 3869   0.840   1.381   7.469 -1.4971 -2.4867 -0.3350
   29SAPC  C210 3870   1.020   1.253   7.463  0.0781  0.8149 -0.8329
   29SAPC  H10R 3871   1.066   1.321   7.538 -0.3779  0.0679  0.1220
   29SAPC  H10S 3872   1.090   1.217   7.385  2.5179  1.7392  0.8616
   29SAPC  C211 3873   0.968   1.122   7.522 -0.4626  0.2494  0.1652
   29SAPC  H11R 3874   0.933   1.046   7.451  2.4262 -0.6391 -0.3736
   29SAPC  C212 3875   0.953   1.099   7.647  0.7657 -0.0960 -0.7599
   29SAPC  H12R 3876   0.926   0.998   7.681 -0.7116  0.0688 -1.3961
   29SAPC  C213 3877   0.990   1.192   7.761 -0.1468 -0.4635  0.4856
   29SAPC  H13R 3878   0.924   1.281   7.759  1.5080  0.9742  4.5072
   29SAPC  H13S 3879   1.094   1.231   7.759 -0.8841  1.5674  0.7849
   29SAPC  C214 3880   0.972   1.117   7.896 -0.3986  0.5481 -0.0364
   29SAPC  H14R 3881   0.867   1.122   7.929 -0.3725  0.0370  0.1290
   29SAPC  C215 3882   1.061   1.086   7.990 -0.0697  0.1655 -0.5629
   29SAPC  H15R 3883   1.026   1.044   8.086  0.2944  0.8910 -0.1052
   29SAPC  C216 3884   1.218   1.108   7.984  0.1397 -0.4864 -0.4322
   29SAPC  H16R 3885   1.245   1.130   7.879  0.4935 -1.6942 -0.5950
   29SAPC  H16S 3886   1.266   1.012   8.012  2.9190  1.1644  0.6905
   29SAPC  C217 3887   1.269   1.223   8.082 -0.0049  0.1125  0.1368
   29SAPC  H17R 3888   1.201   1.310   8.065  1.2584  0.8945 -1.0940
   29SAPC  H17S 3889   1.371   1.246   8.044  0.1303  3.3063  2.2707
   29SAPC  C218 3890   1.268   1.180   8.226 -0.1854 -0.3594 -0.1722
   29SAPC  H18R 3891   1.305   1.077   8.244  1.5162  0.2370 -0.1592
   29SAPC  H18S 3892   1.160   1.165   8.247 -0.2062  1.2354  0.9543
   29SAPC  C219 3893   1.318   1.294   8.322  0.0737 -0.9171 -0.5524
   29SAPC  H19R 3894   1.333   1.252   8.424  0.0246 -1.4746 -0.7706
   29SAPC  H19S 3895   1.233   1.364   8.331  0.3775 -0.6677  0.4301
   29SAPC  C220 3896   1.441   1.365   8.277 -0.3892 -0.1290 -0.0325
   29SAPC  H20R 3897   1.527   1.296   8.287  0.6701  0.7701 -2.4991
   29SAPC  H20S 3898   1.468   1.456   8.335 -0.8659  0.3144 -0.4933
   29SAPC  H20T 3899   1.427   1.406   8.174 -1.3763 -1.7715 -0.5667
   29SAPC   C33 3900   0.407   1.002   7.315  0.0481  0.0926  0.3327
   29SAPC   H3X 3901   0.318   0.934   7.315 -1.4261  1.9842  0.9394
   29SAPC   H3Y 3902   0.378   1.104   7.284  0.0243  0.8042  2.6542
   29SAPC   C34 3903   0.454   1.020   7.463  0.9089  0.7991  0.3937
   29SAPC   H4X 3904   0.363   1.044   7.522  0.1704  1.5864 -1.0296
   29SAPC   H4Y 3905   0.531   1.100   7.473 -0.2129  2.0443 -0.7526
   29SAPC   C35 3906   0.527   0.901   7.531  0.2346  0.6088  0.2633
   29SAPC   H5X 3907   0.619   0.881   7.472  0.3777 -1.5891  1.1811
   29SAPC   H5Y 3908   0.462   0.810   7.531  1.2265 -0.1025  1.4177
   29SAPC   C36 3909   0.581   0.940   7.671  0.1998 -0.3205  0.0586
   29SAPC   H6X 3910   0.614   1.046   7.669  0.8466 -0.5325 -2.0758
   29SAPC   H6Y 3911   0.675   0.884   7.691  1.6272  1.9533 -0.0981
   29SAPC   C37 3912   0.470   0.936   7.782  0.1586 -0.2601 -0.1071
   29SAPC   H7X 3913   0.434   0.831   7.781 -0.9702  0.1105  0.3487
   29SAPC   H7Y 3914   0.385   0.998   7.744  0.5156  0.2715 -0.0487
   29SAPC   C38 3915   0.529   0.970   7.915  0.5969  0.1992 -0.1876
   29SAPC   H8X 3916   0.448   0.946   7.987  0.5450  0.4438 -0.1651
   29SAPC   H8Y 3917   0.562   1.075   7.930  1.2345 -0.1646  1.0452
   29SAPC   C39 3918   0.648   0.875   7.940 -0.0946 -0.4545  0.1149
   29SAPC   H9X 3919   0.742   0.896   7.886 -0.3170  2.1537  0.6610
   29SAPC   H9Y 3920   0.615   0.770   7.924  0.5251 -0.3834 -1.6967
   29SAPC  C310 3921   0.691   0.880   8.087  0.4641 -0.5553  0.3270
   29SAPC  H10X 3922   0.618   0.836   8.158  1.4590 -1.0178  1.0813
   29SAPC  H10Y 3923   0.685   0.987   8.115 -1.5898 -0.0480 -1.9483
   29SAPC  C311 3924   0.821   0.802   8.123 -0.3562  0.0616  0.2436
   29SAPC  H11X 3925   0.905   0.836   8.058  0.6930  0.5708  1.8549
   29SAPC  H11Y 3926   0.813   0.698   8.085 -1.7069  0.1347  0.3039
   29SAPC  C312 3927   0.859   0.804   8.272  0.3900 -0.0262  0.7948
   29SAPC  H12X 3928   0.838   0.701   8.308  1.5208 -0.6831 -0.3883
   29SAPC  H12Y 3929   0.792   0.874   8.326 -1.8633 -1.7395  0.2861
   29SAPC  C313 3930   1.011   0.841   8.290 -0.2168 -0.5118 -0.0745
   29SAPC  H13X 3931   1.017   0.950   8.268  1.2833 -0.9225 -1.8937
   29SAPC  H13Y 3932   1.066   0.798   8.203  1.1307  1.4139 -0.2004
   29SAPC  C314 3933   1.054   0.807   8.431 -0.6583  0.2487  0.0458
   29SAPC  H14X 3934   1.046   0.696   8.442 -1.9764  0.3852  0.4997
   29SAPC  H14Y 3935   0.977   0.847   8.500 -0.2999  0.0211  0.5755
   29SAPC  C315 3936   1.197   0.852   8.458  0.3360 -0.4600  0.1212
   29SAPC  H15X 3937   1.220   0.853   8.567  2.1852  1.0048 -0.2572
   29SAPC  H15Y 3938   1.208   0.951   8.409 -0.4417 -0.4640 -0.0628
   29SAPC  C316 3939   1.297   0.778   8.369  0.3538  0.3268 -0.1819
   29SAPC  H16X 3940   1.366   0.852   8.323  0.8615  1.2510  2.0051
   29SAPC  H16Y 3941   1.243   0.732   8.284  0.1392 -0.5161  0.3988
   29SAPC  C317 3942   1.375   0.665   8.440 -0.0367 -0.7582 -0.0418
   29SAPC  H17X 3943   1.302   0.582   8.448 -1.3582  0.1667 -1.9381
   29SAPC  H17Y 3944   1.407   0.706   8.538  1.0586  0.1716 -0.7652
   29SAPC  C318 3945   1.497   0.632   8.362 -0.1784  0.0741  0.2731
   29SAPC  H18X 3946   1.559   0.720   8.332  0.7371  0.0521  2.0563
   29SAPC  H18Y 3947   1.476   0.569   8.273  0.5296 -1.1988  0.9935
   29SAPC  H18Z 3948   1.560   0.566   8.425 -0.0522 -0.5631 -0.5118
   30SAPC     N 3949   2.495   0.624   5.886  0.5606  0.4523 -0.9105
   30SAPC   C12 3950   2.415   0.607   6.012  0.2186  0.0299 -0.2509
   30SAPC  H12A 3951   2.394   0.506   6.043 -0.1836  0.4121  0.7551
   30SAPC  H12B 3952   2.315   0.641   5.987 -0.5639 -2.0321 -0.0424
   30SAPC   C13 3953   2.633   0.579   5.919 -0.0847  0.3632  0.5556
   30SAPC  H13A 3954   2.677   0.638   5.998  0.4049 -0.3877  0.8469
   30SAPC  H13B 3955   2.644   0.473   5.936 -1.4544 -0.2500 -2.1211
   30SAPC  H13C 3956   2.690   0.599   5.829 -0.2438 -0.5361  0.2503
   30SAPC   C14 3957   2.432   0.532   5.789  0.8657 -0.1924 -0.4038
   30SAPC  H14A 3958   2.502   0.507   5.711  0.0703  2.0583 -1.8882
   30SAPC  H14B 3959   2.410   0.437   5.835 -0.5584  0.1203 -0.4270
   30SAPC  H14C 3960   2.343   0.573   5.743  1.0904  0.2446 -0.4562
   30SAPC   C15 3961   2.499   0.759   5.843 -0.9262  0.7207 -1.0101
   30SAPC  H15A 3962   2.571   0.782   5.766 -0.2368 -0.6157 -0.7766
   30SAPC  H15B 3963   2.402   0.793   5.809 -1.3331  0.7390  0.1388
   30SAPC  H15C 3964   2.510   0.825   5.928  3.3942 -2.5323  1.1545
   30SAPC   C11 3965   2.455   0.690   6.135 -0.0062  0.1257 -0.7559
   30SAPC  H11A 3966   2.549   0.668   6.191 -0.0866  0.8691 -0.3126
   30SAPC  H11B 3967   2.386   0.655   6.215  0.0692  0.1251 -0.6914
   30SAPC     P 3968   2.307   0.913   6.125 -0.2547  0.6698 -0.1262
   30SAPC   O13 3969   2.327   1.045   6.069  0.6185 -0.2569  0.6676
   30SAPC   O14 3970   2.208   0.827   6.063 -0.1208 -0.4721 -0.6371
   30SAPC   O12 3971   2.442   0.837   6.123  0.1378  0.9331 -0.4360
   30SAPC   O11 3972   2.267   0.928   6.273 -0.7868  0.0312  0.4100
   30SAPC    C1 3973   2.350   0.982   6.374  0.9982  0.2918  0.3982
   30SAPC    HA 3974   2.387   0.895   6.433  1.7160  1.7424  2.1489
   30SAPC    HB 3975   2.434   1.045   6.335  0.1416  1.8824  1.0641
   30SAPC    C2 3976   2.273   1.073   6.474 -0.1270  0.8870 -0.2731
   30SAPC    HS 3977   2.343   1.099   6.555 -0.3227  1.0361 -0.1515
   30SAPC   O21 3978   2.148   1.018   6.514  0.4054 -0.2408 -0.1072
   30SAPC   C21 3979   2.151   0.945   6.621  0.6446 -0.1656 -0.6810
   30SAPC   O22 3980   2.248   0.893   6.672  0.1327 -0.1353  0.0167
   30SAPC   C22 3981   2.009   0.919   6.668 -0.4914  0.2082 -0.3368
   30SAPC   H2R 3982   1.964   1.020   6.682  0.4773  0.3528  2.0412
   30SAPC   H2S 3983   1.977   0.862   6.578  0.4049 -0.5240 -0.1963
   30SAPC    C3 3984   2.240   1.214   6.417 -0.1916 -0.2029 -0.5176
   30SAPC    HX 3985   2.191   1.213   6.318  1.8659  1.1995 -1.5739
   30SAPC    HY 3986   2.340   1.262   6.422 -0.4433  0.1692  1.2993
   30SAPC   O31 3987   2.145   1.283   6.508 -0.2063 -0.1303 -0.0046
   30SAPC   C31 3988   2.191   1.366   6.606  0.1526 -0.5405 -0.9729
   30SAPC   O32 3989   2.313   1.391   6.622 -0.1162  0.2601  0.4500
   30SAPC   C32 3990   2.078   1.403   6.706  1.3351 -0.3760 -0.2517
   30SAPC   H2X 3991   2.091   1.335   6.793 -1.8393 -1.8952 -0.8937
   30SAPC   H2Y 3992   1.975   1.384   6.668  1.1766  0.3978 -0.2204
   30SAPC   C23 3993   1.990   0.834   6.796 -0.5757 -0.1098 -0.0253
   30SAPC   H3R 3994   2.061   0.749   6.805 -1.2746 -0.8382 -1.4248
   30SAPC   H3S 3995   1.887   0.793   6.792 -1.1492  1.3570 -0.5484
   30SAPC   C24 3996   2.014   0.908   6.932  0.4394 -0.3206  0.8887
   30SAPC   H4R 3997   1.982   0.837   7.010 -0.2452 -0.0191  0.8842
   30SAPC   H4S 3998   1.935   0.986   6.935  0.2044 -0.4145 -1.5141
   30SAPC   C25 3999   2.149   0.964   6.960  0.1352 -0.2178 -1.1039
   30SAPC   H5R 4000   2.238   0.924   6.910  0.9157 -0.1558  0.1960
   30SAPC   C26 4001   2.169   1.072   7.038 -0.3014  0.4882 -0.3957
   30SAPC   H6R 4002   2.273   1.104   7.054 -0.0604 -0.0997 -0.7426
   30SAPC   C27 4003   2.063   1.146   7.113  1.1317 -0.3395  0.2060
   30SAPC   H7R 4004   1.988   1.078   7.159  0.7913  0.1135  0.3225
   30SAPC   H7S 4005   2.005   1.219   7.052  1.9441  0.0938 -0.0556
   30SAPC   C28 4006   2.132   1.227   7.223  0.2359  0.2665  0.1154
   30SAPC   H8R 4007   2.171   1.327   7.199  0.0959  0.4570  0.6697
   30SAPC   C29 4008   2.127   1.194   7.354 -0.3277  0.0911 -0.0947
   30SAPC   H9R 4009   2.208   1.235   7.416  0.6051 -3.8237  1.4090
   30SAPC  C210 4010   2.064   1.073   7.412  0.2766  0.1721  0.2071
   30SAPC  H10R 4011   2.138   1.002   7.456 -0.9188 -0.4702  1.1880
   30SAPC  H10S 4012   2.007   1.011   7.340  1.7746  0.5631 -1.3623
   30SAPC  C211 4013   1.971   1.110   7.519 -0.7364  0.2521 -0.2159
   30SAPC  H11R 4014   1.866   1.085   7.500 -0.7167  0.9296 -1.2369
   30SAPC  C212 4015   2.005   1.153   7.643 -0.7341  0.9147 -0.6532
   30SAPC  H12R 4016   1.922   1.178   7.710 -1.0093 -2.2797  0.3073
   30SAPC  C213 4017   2.142   1.179   7.694  0.3081 -0.5666  0.1738
   30SAPC  H13R 4018   2.213   1.169   7.609 -0.0881 -3.1945  0.1113
   30SAPC  H13S 4019   2.170   1.093   7.759  3.1628  0.7792  0.7896
   30SAPC  C214 4020   2.168   1.316   7.752  0.2415 -0.3200  0.3827
   30SAPC  H14R 4021   2.179   1.401   7.684 -0.2714 -1.7256 -1.4863
   30SAPC  C215 4022   2.191   1.343   7.881  0.3410 -0.0370 -0.9237
   30SAPC  H15R 4023   2.205   1.448   7.910  0.1322 -0.7313  1.8410
   30SAPC  C216 4024   2.192   1.247   7.994 -0.0486 -0.3922 -0.1350
   30SAPC  H16R 4025   2.286   1.189   8.003 -1.3858 -2.5687 -0.0778
   30SAPC  H16S 4026   2.119   1.165   7.983  0.4457 -0.8518 -0.0448
   30SAPC  C217 4027   2.165   1.315   8.130  0.0662 -0.4922 -0.4738
   30SAPC  H17R 4028   2.063   1.358   8.129  1.4446  3.0211  1.3493
   30SAPC  H17S 4029   2.233   1.402   8.144 -1.7597  1.0387 -0.9183
   30SAPC  C218 4030   2.183   1.224   8.249 -0.1309 -0.0128  0.1759
   30SAPC  H18R 4031   2.290   1.202   8.266  0.6199  3.0805 -0.1056
   30SAPC  H18S 4032   2.134   1.125   8.242  1.4953 -0.9630  1.7901
   30SAPC  C219 4033   2.134   1.285   8.386 -0.2647  0.2173 -0.1547
   30SAPC  H19R 4034   2.024   1.298   8.393 -0.4824 -1.4137 -0.3929
   30SAPC  H19S 4035   2.175   1.388   8.394  0.6923 -0.2353  1.0329
   30SAPC  C220 4036   2.184   1.203   8.507 -0.6137  0.0618 -0.3182
   30SAPC  H20R 4037   2.189   1.283   8.583 -1.2977  0.7104 -0.9543
   30SAPC  H20S 4038   2.280   1.148   8.495 -2.6434 -3.4023 -1.3943
   30SAPC  H20T 4039   2.103   1.135   8.543 -0.6901  0.0933 -0.4343
   30SAPC   C33 4040   2.084   1.554   6.751 -0.0467  0.2513 -0.7269
   30SAPC   H3X 4041   2.084   1.633   6.673 -0.3530  1.6509  0.6606
   30SAPC   H3Y 4042   2.185   1.557   6.797 -0.2271 -0.8231 -0.2479
   30SAPC   C34 4043   1.967   1.601   6.848 -0.0404 -0.2471 -0.1333
   30SAPC   H4X 4044   1.869   1.612   6.797 -0.8983 -0.3006  1.4867
   30SAPC   H4Y 4045   1.993   1.701   6.889 -2.7952  0.8866 -1.0428
   30SAPC   C35 4046   1.951   1.509   6.970 -0.1885 -0.5416 -0.4015
   30SAPC   H5X 4047   2.047   1.480   7.017  0.5495 -1.0749 -2.1856
   30SAPC   H5Y 4048   1.904   1.417   6.929 -0.6832 -0.5721  0.2293
   30SAPC   C36 4049   1.869   1.567   7.083  0.2231 -0.0794  0.0579
   30SAPC   H6X 4050   1.784   1.621   7.037  0.0338 -0.7336 -0.3697
   30SAPC   H6Y 4051   1.935   1.650   7.118  1.5111 -1.2377  0.4358
   30SAPC   C37 4052   1.832   1.478   7.192 -0.1885 -0.4412  1.0056
   30SAPC   H7X 4053   1.921   1.420   7.224  0.0925  0.0273  1.0786
   30SAPC   H7Y 4054   1.749   1.413   7.157  0.5858 -2.2408  2.4483
   30SAPC   C38 4055   1.786   1.551   7.324  0.4181 -0.3219 -0.5488
   30SAPC   H8X 4056   1.682   1.589   7.309 -0.2964 -1.4572  1.3904
   30SAPC   H8Y 4057   1.844   1.640   7.355 -1.0172  0.3820  0.1729
   30SAPC   C39 4058   1.777   1.456   7.448 -0.4387  0.1823 -0.2237
   30SAPC   H9X 4059   1.881   1.422   7.464 -0.1626  0.5085 -1.2556
   30SAPC   H9Y 4060   1.720   1.365   7.418 -2.3414  0.8279  1.3023
   30SAPC  C310 4061   1.731   1.526   7.571  0.1053  0.6628 -0.3913
   30SAPC  H10X 4062   1.631   1.569   7.548  0.5662  1.3843 -1.0844
   30SAPC  H10Y 4063   1.792   1.615   7.596 -0.4240  1.3772 -1.5622
   30SAPC  C311 4064   1.705   1.441   7.700  0.5627 -0.5224  0.1555
   30SAPC  H11X 4065   1.659   1.345   7.671  1.0541 -0.9530  0.7774
   30SAPC  H11Y 4066   1.626   1.490   7.762  0.3490  0.2960 -0.7536
   30SAPC  C312 4067   1.829   1.431   7.787 -0.9808  0.0061 -0.1547
   30SAPC  H12X 4068   1.922   1.441   7.727 -0.8363 -0.8972 -0.0771
   30SAPC  H12Y 4069   1.833   1.342   7.853  0.3856 -0.4315 -0.8212
   30SAPC  C313 4070   1.837   1.555   7.883  0.1088  0.0581  0.4235
   30SAPC  H13X 4071   1.829   1.639   7.810 -0.0515 -1.8689 -1.8242
   30SAPC  H13Y 4072   1.940   1.583   7.914  0.7571 -0.2409 -1.3978
   30SAPC  C314 4073   1.733   1.554   7.991  0.0298  0.4728 -1.0422
   30SAPC  H14X 4074   1.771   1.497   8.078  2.2097  2.0479 -0.9224
   30SAPC  H14Y 4075   1.632   1.518   7.962 -0.3931  2.2363 -1.8526
   30SAPC  C315 4076   1.713   1.690   8.065  0.2309  0.1390 -0.1491
   30SAPC  H15X 4077   1.674   1.771   8.001  0.0079  0.2033  0.0679
   30SAPC  H15Y 4078   1.815   1.716   8.103  0.8798  2.4177 -3.3116
   30SAPC  C316 4079   1.628   1.670   8.185 -0.4176  0.1257  0.1025
   30SAPC  H16X 4080   1.691   1.611   8.254  0.2143 -0.0518 -0.6212
   30SAPC  H16Y 4081   1.538   1.612   8.154 -0.4465 -0.8771  1.9719
   30SAPC  C317 4082   1.592   1.801   8.261 -0.1866 -1.1352  0.1110
   30SAPC  H17X 4083   1.523   1.869   8.205 -1.4314 -2.8491 -0.5030
   30SAPC  H17Y 4084   1.678   1.860   8.298  1.2578 -1.3752 -2.7081
   30SAPC  C318 4085   1.523   1.755   8.387  0.4278 -0.1422 -0.0506
   30SAPC  H18X 4086   1.515   1.845   8.453 -2.1981  0.7990 -1.5627
   30SAPC  H18Y 4087   1.575   1.672   8.439  2.3187  1.5550  0.8577
   30SAPC  H18Z 4088   1.417   1.725   8.372 -0.5572  4.7737 -4.4844
   31SAPC     N 4089   2.747   1.953   5.918 -0.0859  0.2219 -0.2349
   31SAPC   C12 4090   2.882   1.900   5.937  0.3739  1.2681  0.3502
   31SAPC  H12A 4091   2.916   1.865   5.841 -2.2895 -0.6601  0.0504
   31SAPC  H12B 4092   2.867   1.803   5.982  1.8957  0.6237 -0.5067
   31SAPC   C13 4093   2.694   1.980   6.055  0.0957  0.0516  0.3135
   31SAPC  H13A 4094   2.591   2.010   6.047  0.1019 -0.0937 -0.3386
   31SAPC  H13B 4095   2.709   1.888   6.110 -0.6180 -1.3325 -1.7462
   31SAPC  H13C 4096   2.740   2.063   6.107  0.2188  0.5697 -0.6026
   31SAPC   C14 4097   2.728   2.064   5.827 -0.0018  0.0989 -0.3519
   31SAPC  H14A 4098   2.759   2.155   5.876 -1.1884  0.1147  0.3948
   31SAPC  H14B 4099   2.785   2.042   5.738  1.7260 -2.7725  1.3935
   31SAPC  H14C 4100   2.625   2.071   5.793  0.0275 -1.7981 -0.8698
   31SAPC   C15 4101   2.669   1.831   5.874 -0.4762  0.2588 -0.1419
   31SAPC  H15A 4102   2.714   1.780   5.790  2.2578  2.7253 -0.2377
   31SAPC  H15B 4103   2.654   1.758   5.953  2.5432 -0.2362  0.0420
   31SAPC  H15C 4104   2.569   1.858   5.843 -1.0215 -2.1623 -0.6069
   31SAPC   C11 4105   2.991   1.973   6.019 -0.0621  0.3897 -0.4708
   31SAPC  H11A 4106   2.993   2.076   5.976 -1.5304 -0.0548 -1.6265
   31SAPC  H11B 4107   3.092   1.936   5.992 -0.1457  0.1634 -0.4751
   31SAPC     P 4108   3.000   1.857   6.255  0.0545  0.2157  0.1580
   31SAPC   O13 4109   2.947   1.897   6.387  0.7520 -0.4016  0.8625
   31SAPC   O14 4110   2.951   1.732   6.200  0.2177 -0.0391  0.2296
   31SAPC   O12 4111   2.968   1.976   6.156  0.0105 -0.4082  0.2498
   31SAPC   O11 4112   3.165   1.850   6.265 -0.0312 -0.0810 -0.4682
   31SAPC    C1 4113   3.255   1.969   6.258 -0.2828  0.2418  0.1831
   31SAPC    HA 4114   3.323   1.967   6.170 -0.2567  1.9263  0.1510
   31SAPC    HB 4115   3.199   2.064   6.247 -2.1545 -0.6122  2.0905
   31SAPC    C2 4116   3.341   2.007   6.384 -0.1181 -0.6754  0.3718
   31SAPC    HS 4117   3.445   1.969   6.384  0.2408  0.2218  2.2725
   31SAPC   O21 4118   3.270   1.972   6.505 -0.4519 -0.1953  0.2160
   31SAPC   C21 4119   3.312   1.866   6.573 -0.5117  0.4704 -0.1620
   31SAPC   O22 4120   3.398   1.790   6.532  0.0304 -0.4409 -0.0249
   31SAPC   C22 4121   3.235   1.856   6.709  0.1930  0.5993 -0.1634
   31SAPC   H2R 4122   3.231   1.960   6.748  0.6574  0.9185 -0.9449
   31SAPC   H2S 4123   3.132   1.825   6.683 -0.4893  0.6722  2.3359
   31SAPC    C3 4124   3.358   2.163   6.391 -0.7154 -0.2618 -0.0033
   31SAPC    HX 4125   3.254   2.201   6.385 -0.8549 -0.5182  0.7329
   31SAPC    HY 4126   3.422   2.194   6.306  0.8601 -1.6378  0.6326
   31SAPC   O31 4127   3.411   2.204   6.521 -0.1131  0.0657 -0.3507
   31SAPC   C31 4128   3.533   2.166   6.542 -0.5865 -0.4074  0.5461
   31SAPC   O32 4129   3.614   2.118   6.463 -0.1878  0.3198  0.3374
   31SAPC   C32 4130   3.563   2.162   6.688  0.4053 -0.2843 -0.2924
   31SAPC   H2X 4131   3.464   2.162   6.740  0.0128 -0.8712 -1.0356
   31SAPC   H2Y 4132   3.601   2.260   6.723  0.2363  0.1369 -1.2742
   31SAPC   C23 4133   3.286   1.744   6.806  0.2189 -0.7104  0.1790
   31SAPC   H3R 4134   3.276   1.646   6.755 -1.2449  0.4353 -1.8164
   31SAPC   H3S 4135   3.209   1.742   6.886  0.6897  0.3390  0.6590
   31SAPC   C24 4136   3.416   1.777   6.873 -0.1526  0.1909  0.1289
   31SAPC   H4R 4137   3.406   1.881   6.909  2.1421 -0.1709  1.8773
   31SAPC   H4S 4138   3.486   1.786   6.787  0.8341 -1.2372  0.7645
   31SAPC   C25 4139   3.465   1.673   6.969  0.3098  0.7464  0.6882
   31SAPC   H5R 4140   3.476   1.570   6.930 -1.5478  0.5004  0.7763
   31SAPC   C26 4141   3.470   1.686   7.102  0.2948 -0.2255 -0.0676
   31SAPC   H6R 4142   3.500   1.601   7.164 -2.8883 -0.4594  1.2180
   31SAPC   C27 4143   3.438   1.814   7.176  0.3511  0.1360 -0.3409
   31SAPC   H7R 4144   3.372   1.779   7.258  2.0900  0.6522  1.3151
   31SAPC   H7S 4145   3.366   1.877   7.119 -0.8322 -1.4408 -0.6333
   31SAPC   C28 4146   3.539   1.899   7.233 -0.2845 -0.3651  0.0388
   31SAPC   H8R 4147   3.564   1.984   7.168 -1.8812  0.4490  0.4763
   31SAPC   C29 4148   3.606   1.897   7.351 -0.6728 -0.2064  0.0936
   31SAPC   H9R 4149   3.662   1.986   7.383 -0.4285  0.4266 -1.9963
   31SAPC  C210 4150   3.589   1.801   7.465 -0.1698 -0.4858 -0.1942
   31SAPC  H10R 4151   3.676   1.810   7.534  0.5047 -1.2321 -0.9356
   31SAPC  H10S 4152   3.576   1.698   7.427  0.0919 -0.2779 -0.8519
   31SAPC  C211 4153   3.454   1.831   7.532  0.2398  0.1515  0.2001
   31SAPC  H11R 4154   3.383   1.893   7.476  2.6838  0.1135 -3.0889
   31SAPC  C212 4155   3.429   1.788   7.656 -0.4257  0.1496  0.1335
   31SAPC  H12R 4156   3.334   1.819   7.702 -0.4007 -1.1677  1.0975
   31SAPC  C213 4157   3.525   1.703   7.734 -0.0181 -0.8999  0.6795
   31SAPC  H13R 4158   3.615   1.762   7.761 -2.2609  2.2383  1.6852
   31SAPC  H13S 4159   3.569   1.624   7.671 -0.5906  1.1408 -2.4031
   31SAPC  C214 4160   3.467   1.633   7.858 -0.4989  0.0611  0.4700
   31SAPC  H14R 4161   3.458   1.695   7.948 -0.9168 -0.0410  0.4992
   31SAPC  C215 4162   3.412   1.510   7.866  0.1025  0.8055  0.1181
   31SAPC  H15R 4163   3.379   1.465   7.961 -1.1442  0.8959 -0.2605
   31SAPC  C216 4164   3.414   1.398   7.754 -0.3750 -0.2019 -0.3204
   31SAPC  H16R 4165   3.462   1.304   7.788 -0.6729 -0.3038 -0.1702
   31SAPC  H16S 4166   3.471   1.427   7.664  0.8524 -0.5676  0.3281
   31SAPC  C217 4167   3.269   1.347   7.713 -0.9568 -0.3329 -0.8208
   31SAPC  H17R 4168   3.211   1.325   7.805 -1.8708  0.3291 -1.2309
   31SAPC  H17S 4169   3.289   1.252   7.660  0.3379 -1.3153  1.3656
   31SAPC  C218 4170   3.192   1.442   7.624  0.7709 -0.2616 -0.2222
   31SAPC  H18R 4171   3.126   1.376   7.564  0.2998  0.0726 -0.0735
   31SAPC  H18S 4172   3.265   1.489   7.554 -0.1857  0.9067 -0.4685
   31SAPC  C219 4173   3.101   1.548   7.693 -0.3540 -0.5029  0.3793
   31SAPC  H19R 4174   3.043   1.616   7.627 -0.5300 -0.4002  0.6413
   31SAPC  H19S 4175   3.170   1.622   7.738 -0.5049 -0.2371  0.1740
   31SAPC  C220 4176   3.006   1.485   7.797  0.1441  0.1673  0.4347
   31SAPC  H20R 4177   2.937   1.565   7.833  0.8855  0.6395  0.8207
   31SAPC  H20S 4178   3.045   1.450   7.895  2.9964 -1.4624 -1.2147
   31SAPC  H20T 4179   2.948   1.398   7.760  1.6733 -1.3374  1.5544
   31SAPC   C33 4180   3.663   2.053   6.740 -0.7365 -0.0214  0.4311
   31SAPC   H3X 4181   3.748   2.037   6.670 -1.1612  1.0904 -0.3611
   31SAPC   H3Y 4182   3.607   1.958   6.752  1.0457 -1.3024 -1.0596
   31SAPC   C34 4183   3.737   2.080   6.872  0.0170  0.0555 -0.0345
   31SAPC   H4X 4184   3.800   1.989   6.879 -2.5050 -1.6738  1.2240
   31SAPC   H4Y 4185   3.665   2.058   6.955  0.1782 -1.0684 -0.1765
   31SAPC   C35 4186   3.823   2.212   6.897  0.1516  0.0185  0.6153
   31SAPC   H5X 4187   3.775   2.302   6.853  1.6989  0.7741  0.4471
   31SAPC   H5Y 4188   3.917   2.205   6.838 -0.1411 -1.5604  0.2970
   31SAPC   C36 4189   3.848   2.250   7.041  0.1671  0.5637  0.2080
   31SAPC   H6X 4190   3.755   2.286   7.090  1.2413  0.6205  2.2539
   31SAPC   H6Y 4191   3.924   2.330   7.035 -1.0510  1.7694  0.5370
   31SAPC   C37 4192   3.913   2.141   7.128  0.2005  0.4048 -0.0692
   31SAPC   H7X 4193   4.002   2.089   7.087  0.7317  0.6375  0.7885
   31SAPC   H7Y 4194   3.838   2.060   7.142 -0.4035  0.9546 -0.1201
   31SAPC   C38 4195   3.951   2.201   7.260 -0.0401 -0.0624  0.1579
   31SAPC   H8X 4196   3.855   2.235   7.305 -1.2436 -0.0075 -2.3810
   31SAPC   H8Y 4197   4.017   2.289   7.244 -4.0114  3.0162 -0.0624
   31SAPC   C39 4198   4.013   2.099   7.354  0.4158  0.6747  0.1776
   31SAPC   H9X 4199   4.118   2.082   7.322  0.5496 -2.2218  1.9707
   31SAPC   H9Y 4200   3.960   2.001   7.352  0.9615  0.3019  2.3933
   31SAPC  C310 4201   4.007   2.136   7.503  0.7626 -0.2861 -0.3140
   31SAPC  H10X 4202   3.916   2.197   7.525 -0.7596 -2.2870 -0.9204
   31SAPC  H10Y 4203   4.095   2.201   7.520  0.9655 -0.6888  0.1677
   31SAPC  C311 4204   4.012   2.020   7.606  0.2308 -0.0381 -0.2849
   31SAPC  H11X 4205   4.099   1.953   7.590  1.4375  1.4445 -0.1074
   31SAPC  H11Y 4206   3.915   1.966   7.599  0.2956 -0.2020  0.1134
   31SAPC  C312 4207   4.030   2.075   7.747  0.3149  0.1017  0.9680
   31SAPC  H12X 4208   3.951   2.144   7.783  1.8209  1.4719  1.7130
   31SAPC  H12Y 4209   4.121   2.138   7.759  1.1174 -0.9046  0.2180
   31SAPC  C313 4210   4.046   1.959   7.851  0.2456  0.6478  0.0762
   31SAPC  H13X 4211   4.122   1.884   7.819  2.2049  1.7500  1.9671
   31SAPC  H13Y 4212   3.948   1.907   7.850  0.7391 -0.4258  3.2130
   31SAPC  C314 4213   4.071   2.001   7.997 -0.0479 -0.3529 -1.0964
   31SAPC  H14X 4214   3.991   2.077   8.014  0.0909 -0.4252 -0.0969
   31SAPC  H14Y 4215   4.174   2.042   7.999  0.3815 -1.4247 -1.0095
   31SAPC  C315 4216   4.046   1.893   8.103  0.8617  0.9672 -0.0530
   31SAPC  H15X 4217   4.109   1.805   8.081  0.2061  0.7975 -1.2809
   31SAPC  H15Y 4218   3.942   1.854   8.102  1.8062 -1.5981 -1.5272
   31SAPC  C316 4219   4.090   1.936   8.237 -1.0432 -0.0855  0.3661
   31SAPC  H16X 4220   4.024   2.020   8.268 -0.8403  0.5059 -0.7779
   31SAPC  H16Y 4221   4.194   1.976   8.242 -1.8662  2.1673  0.0724
   31SAPC  C317 4222   4.093   1.824   8.344  0.7365  0.4641 -0.1067
   31SAPC  H17X 4223   3.998   1.766   8.350  0.3343  1.2368  1.4341
   31SAPC  H17Y 4224   4.099   1.873   8.444 -2.4159  0.1224  0.3225
   31SAPC  C318 4225   4.204   1.717   8.331 -0.4993  0.2407  0.1290
   31SAPC  H18X 4226   4.306   1.760   8.322 -0.9407  1.6778  1.8436
   31SAPC  H18Y 4227   4.182   1.649   8.245 -0.2376 -2.0035  1.7951
   31SAPC  H18Z 4228   4.200   1.649   8.419  0.0908 -1.5171 -1.1481
   32SAPC     N 4229   5.069   3.039   6.090  0.6811 -0.0639 -0.2423
   32SAPC   C12 4230   4.963   3.151   6.130  0.3365 -0.3728 -0.8818
   32SAPC  H12A 4231   4.866   3.110   6.105  0.1329 -0.2791 -0.2374
   32SAPC  H12B 4232   4.983   3.238   6.069  0.3444 -0.7600 -1.4434
   32SAPC   C13 4233   5.200   3.101   6.098 -0.1211  0.2230 -0.4984
   32SAPC  H13A 4234   5.275   3.031   6.064  0.0222 -0.1034  0.4751
   32SAPC  H13B 4235   5.214   3.183   6.029 -0.1453  0.8517  0.2433
   32SAPC  H13C 4236   5.227   3.135   6.197 -1.1185  0.5494 -0.3338
   32SAPC   C14 4237   5.066   2.910   6.173 -0.1710 -0.0255  0.2448
   32SAPC  H14A 4238   4.969   2.864   6.173 -0.2127 -0.0151 -2.4362
   32SAPC  H14B 4239   5.136   2.840   6.129  0.4123  0.8028 -0.1558
   32SAPC  H14C 4240   5.086   2.939   6.275  0.6623  1.1063 -0.2256
   32SAPC   C15 4241   5.046   2.995   5.951 -0.6004 -0.3827 -0.0842
   32SAPC  H15A 4242   4.944   2.963   5.934 -1.1311  1.7005 -1.0064
   32SAPC  H15B 4243   5.073   3.083   5.895  2.5976 -0.3644  1.4034
   32SAPC  H15C 4244   5.114   2.917   5.922 -2.0484 -2.2725  1.4564
   32SAPC   C11 4245   4.956   3.194   6.277  0.1675  0.0506  1.0893
   32SAPC  H11A 4246   4.951   3.305   6.265  2.7975  0.1599  0.5923
   32SAPC  H11B 4247   5.046   3.158   6.331  1.0010  0.2841 -0.1024
   32SAPC     P 4248   4.696   3.205   6.312  0.1056  0.1256  0.0781
   32SAPC   O13 4249   4.697   3.310   6.210  0.6426  0.1615  0.1117
   32SAPC   O14 4250   4.606   3.094   6.289 -0.1521  0.0620  0.3463
   32SAPC   O12 4251   4.835   3.138   6.326 -0.1409  0.2272  0.1855
   32SAPC   O11 4252   4.667   3.271   6.449 -0.5043 -0.2374  0.3861
   32SAPC    C1 4253   4.772   3.306   6.546  0.4744 -0.9406 -0.6262
   32SAPC    HA 4254   4.872   3.331   6.506  0.9147 -0.6480  0.6540
   32SAPC    HB 4255   4.742   3.395   6.605  0.4411 -2.2139  1.3136
   32SAPC    C2 4256   4.788   3.185   6.652 -0.1345  0.0953  0.3388
   32SAPC    HS 4257   4.797   3.092   6.593  2.7631  0.0116  0.8175
   32SAPC   O21 4258   4.676   3.189   6.738  0.4965  0.7256  0.0838
   32SAPC   C21 4259   4.664   3.076   6.810 -0.5550  0.2523 -0.1400
   32SAPC   O22 4260   4.745   2.985   6.818  0.1156 -0.4778 -0.4898
   32SAPC   C22 4261   4.535   3.093   6.894  0.1226 -0.0834  0.8528
   32SAPC   H2R 4262   4.556   3.178   6.962  0.4103 -0.3657  1.1247
   32SAPC   H2S 4263   4.456   3.139   6.832  0.7385 -1.2241 -0.8308
   32SAPC    C3 4264   4.917   3.201   6.742  0.1748  0.6251 -0.3815
   32SAPC    HX 4265   5.007   3.193   6.678 -0.3184  2.1992 -1.2922
   32SAPC    HY 4266   4.925   3.118   6.815 -0.1628  0.9579  0.0430
   32SAPC   O31 4267   4.902   3.318   6.817 -0.1131  0.2435  0.1405
   32SAPC   C31 4268   5.018   3.379   6.857 -0.0927  0.0479 -1.0121
   32SAPC   O32 4269   5.129   3.338   6.831 -0.0629  0.1806  0.1883
   32SAPC   C32 4270   4.985   3.511   6.923  1.5360  0.1193  0.4358
   32SAPC   H2X 4271   4.876   3.531   6.922  1.6527  0.9252  2.2208
   32SAPC   H2Y 4272   5.034   3.583   6.853  0.6294  0.4079  0.0932
   32SAPC   C23 4273   4.480   2.975   6.969 -0.1180  0.2625 -0.0996
   32SAPC   H3R 4274   4.510   2.878   6.924  0.0143 -0.5947  1.7907
   32SAPC   H3S 4275   4.370   2.988   6.961 -0.1371 -0.7931 -1.8406
   32SAPC   C24 4276   4.521   2.978   7.125  0.2185 -0.8693  0.7729
   32SAPC   H4R 4277   4.466   2.893   7.172 -1.7756 -0.9376 -1.5881
   32SAPC   H4S 4278   4.484   3.074   7.168 -1.1694 -0.5274 -1.1259
   32SAPC   C25 4279   4.670   2.976   7.136 -0.6059  0.7770  0.4009
   32SAPC   H5R 4280   4.726   2.949   7.046  1.7892  0.4594  1.9469
   32SAPC   C26 4281   4.748   3.018   7.240 -0.3484  0.2668 -0.7349
   32SAPC   H6R 4282   4.855   3.030   7.217 -0.0542  2.4882  1.5813
   32SAPC   C27 4283   4.704   3.073   7.372 -0.9620 -0.3172  0.0995
   32SAPC   H7R 4284   4.707   2.997   7.453  1.3958 -0.9784 -0.5472
   32SAPC   H7S 4285   4.595   3.091   7.364 -0.6808  0.6376 -2.0256
   32SAPC   C28 4286   4.784   3.189   7.408  0.3748  0.1731 -0.5513
   32SAPC   H8R 4287   4.778   3.271   7.335 -1.0169  0.1242 -0.5115
   32SAPC   C29 4288   4.859   3.210   7.518 -0.3866 -0.5025 -0.2097
   32SAPC   H9R 4289   4.921   3.300   7.530  0.3458 -1.2531  1.8484
   32SAPC  C210 4290   4.879   3.114   7.637  0.0440  0.3233  0.0030
   32SAPC  H10R 4291   4.860   3.011   7.598 -0.7706  0.8379 -0.9871
   32SAPC  H10S 4292   4.806   3.140   7.716  1.5103  2.4747  0.6986
   32SAPC  C211 4293   5.027   3.104   7.678  0.2328 -0.7336 -0.1416
   32SAPC  H11R 4294   5.097   3.071   7.601  1.0155  0.1171  0.1936
   32SAPC  C212 4295   5.074   3.125   7.803 -0.1579  0.2327  0.6129
   32SAPC  H12R 4296   5.180   3.150   7.814  0.0888  1.4043 -3.6307
   32SAPC  C213 4297   4.981   3.167   7.918  0.8400 -0.0503  0.2796
   32SAPC  H13R 4298   4.875   3.159   7.885 -0.3562  0.5669  3.7231
   32SAPC  H13S 4299   4.989   3.273   7.951 -2.9530  1.3000 -2.7737
   32SAPC  C214 4300   5.008   3.071   8.034  0.0371  0.1503 -0.1123
   32SAPC  H14R 4301   4.949   2.979   8.021  1.1942 -0.8700  1.6869
   32SAPC  C215 4302   5.075   3.089   8.149 -0.4099 -0.4817 -0.5557
   32SAPC  H15R 4303   5.088   3.007   8.221  3.5440  1.0087  0.5284
   32SAPC  C216 4304   5.163   3.207   8.187 -0.3267  0.3089 -0.6080
   32SAPC  H16R 4305   5.120   3.260   8.275  1.7238  3.4698 -1.4194
   32SAPC  H16S 4306   5.174   3.276   8.101  1.2122  1.6357  0.6045
   32SAPC  C217 4307   5.311   3.181   8.227 -0.1099 -0.2474  0.3035
   32SAPC  H17R 4308   5.370   3.275   8.236  0.3852 -0.3321 -1.7751
   32SAPC  H17S 4309   5.368   3.122   8.152  0.6096  1.1939 -0.3097
   32SAPC  C218 4310   5.320   3.109   8.359  0.1806 -0.1357  0.7516
   32SAPC  H18R 4311   5.269   3.011   8.359 -0.4295  0.1759 -0.1750
   32SAPC  H18S 4312   5.247   3.166   8.421  0.1394 -0.4091  0.9539
   32SAPC  C219 4313   5.456   3.099   8.410  0.5596  0.1333 -0.2694
   32SAPC  H19R 4314   5.456   3.039   8.503 -0.5222 -1.4443 -1.2566
   32SAPC  H19S 4315   5.490   3.202   8.433 -0.1242  0.8786 -2.4077
   32SAPC  C220 4316   5.558   3.033   8.323 -0.1471  0.1387  0.0916
   32SAPC  H20R 4317   5.647   3.026   8.390  1.4482  1.2942 -1.8625
   32SAPC  H20S 4318   5.588   3.085   8.230 -1.3260  1.4716  0.4491
   32SAPC  H20T 4319   5.516   2.933   8.300 -1.6792  0.6132  0.7422
   32SAPC   C33 4320   5.041   3.524   7.067 -0.7657  1.6271 -0.2753
   32SAPC   H3X 4321   5.122   3.598   7.051  0.3859  0.4724  0.0841
   32SAPC   H3Y 4322   5.089   3.426   7.090 -0.1325  1.4305 -2.3455
   32SAPC   C34 4323   4.931   3.553   7.172  0.3778 -0.2221 -0.0571
   32SAPC   H4X 4324   4.856   3.472   7.170  1.1518 -0.9473  0.0481
   32SAPC   H4Y 4325   4.869   3.643   7.151  0.5881  0.1162  0.7370
   32SAPC   C35 4326   4.989   3.555   7.313  0.0525 -0.4544 -0.4894
   32SAPC   H5X 4327   5.059   3.641   7.322 -0.5706 -0.0717  0.7729
   32SAPC   H5Y 4328   5.041   3.456   7.320  0.1701 -0.2552  2.1091
   32SAPC   C36 4329   4.884   3.565   7.417  0.4695  0.4516 -0.0065
   32SAPC   H6X 4330   4.820   3.474   7.415  0.1659  0.6412  0.9455
   32SAPC   H6Y 4331   4.823   3.656   7.396  0.2335 -0.0006 -1.3789
   32SAPC   C37 4332   4.940   3.590   7.557  0.8290 -0.2937  0.2505
   32SAPC   H7X 4333   4.995   3.686   7.555  1.7525 -0.8352 -1.4723
   32SAPC   H7Y 4334   5.019   3.515   7.579 -0.5753 -1.4728  1.3847
   32SAPC   C38 4335   4.834   3.588   7.666  0.0945  0.1458 -0.7471
   32SAPC   H8X 4336   4.789   3.487   7.658 -0.8175  0.5428 -0.7722
   32SAPC   H8Y 4337   4.757   3.667   7.651  1.0184  2.0685  3.6711
   32SAPC   C39 4338   4.898   3.605   7.804  0.5148  0.1332  0.6880
   32SAPC   H9X 4339   4.957   3.699   7.797 -0.4472  0.6834 -0.2759
   32SAPC   H9Y 4340   4.970   3.525   7.829  1.8533  0.6807 -1.2867
   32SAPC  C310 4341   4.796   3.627   7.911 -0.5034  0.0537  0.9538
   32SAPC  H10X 4342   4.740   3.533   7.929 -0.9804  0.6358  2.5807
   32SAPC  H10Y 4343   4.721   3.700   7.872 -0.5389 -0.2145  0.5107
   32SAPC  C311 4344   4.857   3.668   8.052 -0.1532  0.1022 -0.0950
   32SAPC  H11X 4345   4.922   3.758   8.038 -2.4133  1.6013 -1.2895
   32SAPC  H11Y 4346   4.911   3.575   8.076 -0.5993  0.4477  2.2888
   32SAPC  C312 4347   4.747   3.703   8.154 -0.0043  0.1409  0.0340
   32SAPC  H12X 4348   4.647   3.681   8.113  0.2955  2.3336 -1.9476
   32SAPC  H12Y 4349   4.752   3.814   8.157  0.8327  0.1740 -2.1427
   32SAPC  C313 4350   4.770   3.646   8.297  0.1533  0.2392  0.2804
   32SAPC  H13X 4351   4.730   3.709   8.379  2.1293  1.9664 -0.0225
   32SAPC  H13Y 4352   4.878   3.641   8.324  0.7733 -0.4143 -2.1361
   32SAPC  C314 4353   4.714   3.505   8.313  0.3313 -0.3843  0.1863
   32SAPC  H14X 4354   4.769   3.433   8.248  1.1574  0.0743  0.3660
   32SAPC  H14Y 4355   4.612   3.516   8.270 -0.4234 -2.5508  1.3672
   32SAPC  C315 4356   4.707   3.465   8.459  0.7446 -1.0109  0.5121
   32SAPC  H15X 4357   4.680   3.358   8.467 -0.2616 -0.8790 -0.9446
   32SAPC  H15Y 4358   4.625   3.525   8.502  0.4023  0.7578 -2.4650
   32SAPC  C316 4359   4.832   3.511   8.546  0.3921  0.5192  0.9132
   32SAPC  H16X 4360   4.809   3.502   8.654 -1.2696  0.5523  0.5695
   32SAPC  H16Y 4361   4.842   3.622   8.545 -2.5687  0.8327  0.6674
   32SAPC  C317 4362   4.965   3.440   8.511  0.3311 -0.4782 -0.5416
   32SAPC  H17X 4363   5.046   3.480   8.576 -0.4686  1.4879 -0.7173
   32SAPC  H17Y 4364   4.985   3.463   8.404 -2.7959  0.7037 -0.9159
   32SAPC  C318 4365   4.945   3.284   8.518  0.1434 -0.1427 -0.1559
   32SAPC  H18X 4366   4.857   3.254   8.456  0.0670 -0.9310  0.3277
   32SAPC  H18Y 4367   4.932   3.244   8.621 -1.9642  1.8567  0.4046
   32SAPC  H18Z 4368   5.036   3.233   8.480  0.4215  0.7108 -0.6414
   33POPC     N 4369   2.689   4.185  10.874  0.4505  0.4828 -0.1989
   33POPC   C12 4370   2.650   4.184  10.729  0.1678  0.3223 -0.3271
   33POPC  H12A 4371   2.552   4.140  10.719  0.1450  0.1905  0.4130
   33POPC  H12B 4372   2.723   4.117  10.685 -0.6839  0.2489 -1.6315
   33POPC   C13 4373   2.832   4.216  10.893  0.8612 -0.8449 -0.3011
   33POPC  H13A 4374   2.891   4.139  10.846  2.6839 -1.4846  2.8990
   33POPC  H13B 4375   2.854   4.310  10.846 -0.0025 -0.4009  0.1673
   33POPC  H13C 4376   2.867   4.224  10.995  2.1452 -0.6189 -0.7526
   33POPC   C14 4377   2.610   4.282  10.948 -0.4495 -0.1873  0.5689
   33POPC  H14A 4378   2.612   4.369  10.884 -2.8581 -0.6041 -0.1464
   33POPC  H14B 4379   2.506   4.257  10.934 -0.6652  0.4720  0.9901
   33POPC  H14C 4380   2.645   4.298  11.049  0.4035 -1.5762  0.5016
   33POPC   C15 4381   2.675   4.039  10.927 -0.3436 -0.2566  0.2049
   33POPC  H15A 4382   2.579   4.003  10.895 -0.3884 -1.0006  1.1670
   33POPC  H15B 4383   2.687   4.041  11.034 -0.4308  4.2685  0.2508
   33POPC  H15C 4384   2.748   3.975  10.880 -0.2258  0.2906 -0.3600
   33POPC   C11 4385   2.666   4.303  10.641  0.5523 -0.2438 -0.4443
   33POPC  H11A 4386   2.639   4.286  10.534 -1.9049  2.4552 -0.3291
   33POPC  H11B 4387   2.769   4.342  10.647 -0.7162  2.9457  2.6039
   33POPC     P 4388   2.421   4.393  10.662 -0.5001  0.1853 -0.4328
   33POPC   O13 4389   2.372   4.515  10.595 -0.6144  0.4855 -0.1197
   33POPC   O14 4390   2.353   4.363  10.792 -0.4037  0.7638  0.1823
   33POPC   O12 4391   2.580   4.408  10.686  0.4515 -0.3361 -0.8042
   33POPC   O11 4392   2.411   4.273  10.556  0.0211  0.1898  0.2455
   33POPC    C1 4393   2.277   4.251  10.500 -0.4326 -0.6352  0.0978
   33POPC    HA 4394   2.200   4.262  10.579 -1.0300 -1.8569 -0.2968
   33POPC    HB 4395   2.277   4.327  10.419 -2.0121  1.0449  1.6364
   33POPC    C2 4396   2.256   4.112  10.433  0.8098 -0.7015  0.9269
   33POPC    HS 4397   2.243   4.041  10.518 -0.8875 -0.1577  1.1474
   33POPC   O21 4398   2.373   4.082  10.358  0.2790 -0.5658 -0.0232
   33POPC   C21 4399   2.393   3.959  10.333  0.0522 -0.8766  0.6569
   33POPC   O22 4400   2.316   3.870  10.351 -0.4586 -0.0503  0.3163
   33POPC   C22 4401   2.540   3.932  10.278 -0.1777 -0.4557 -0.9394
   33POPC   H2R 4402   2.612   3.973  10.353 -0.1795  0.9929 -1.7103
   33POPC   H2S 4403   2.532   3.989  10.183 -2.3686  1.0172  0.0562
   33POPC    C3 4404   2.125   4.120  10.356 -0.1968  0.0468  0.5330
   33POPC    HX 4405   2.047   4.169  10.418 -3.7308 -2.9772 -1.3062
   33POPC    HY 4406   2.088   4.018  10.333  1.4165  0.0281 -2.2123
   33POPC   O31 4407   2.139   4.186  10.227  0.3663 -0.0616  0.3376
   33POPC   C31 4408   2.037   4.252  10.184 -0.4318  0.3644  1.0968
   33POPC   O32 4409   1.931   4.269  10.242  0.0047  0.2990  0.0801
   33POPC   C32 4410   2.092   4.326  10.054  0.3112 -0.4848  0.7199
   33POPC   H2X 4411   2.190   4.367  10.085  1.3327 -0.0088 -2.8680
   33POPC   H2Y 4412   2.023   4.411  10.037  3.3608  1.2972 -3.8506
   33POPC   C23 4413   2.567   3.787  10.240  0.2141  0.3145 -0.2188
   33POPC   H3R 4414   2.506   3.769  10.149 -0.8383  1.6988  0.1982
   33POPC   H3S 4415   2.528   3.720  10.320  0.4341  1.9522  1.2850
   33POPC   C24 4416   2.717   3.759  10.212 -0.1754 -0.0184 -0.0269
   33POPC   H4R 4417   2.730   3.653  10.243  0.7357  0.0637 -0.1076
   33POPC   H4S 4418   2.781   3.827  10.270  0.0143  0.0640 -0.3297
   33POPC   C25 4419   2.748   3.761  10.058  0.2475 -0.6162  0.6893
   33POPC   H5R 4420   2.704   3.857  10.025  0.3825 -1.0573 -0.7843
   33POPC   H5S 4421   2.697   3.680  10.001 -0.6076 -0.7109  1.5700
   33POPC   C26 4422   2.901   3.764  10.015 -0.3887 -0.0159  0.3448
   33POPC   H6R 4423   2.955   3.669  10.036  0.4431  0.6379  1.2146
   33POPC   H6S 4424   2.957   3.842  10.072  2.1765  0.6199 -2.8943
   33POPC   C27 4425   2.910   3.806   9.869  0.0506 -0.0176 -0.5369
   33POPC   H7R 4426   2.877   3.909   9.846  0.1387  0.2480  0.4893
   33POPC   H7S 4427   2.838   3.738   9.819  0.8461 -0.9361 -0.4522
   33POPC   C28 4428   3.046   3.772   9.811 -0.2895  0.3468  0.0333
   33POPC   H8R 4429   3.050   3.661   9.811 -1.3580  0.2971  0.5703
   33POPC   H8S 4430   3.118   3.799   9.891  1.6890  0.4890 -1.7780
   33POPC   C29 4431   3.091   3.817   9.675 -0.0965  0.4736 -0.2475
   33POPC   H91 4432   3.197   3.845   9.669 -0.3633  1.1772 -1.7257
   33POPC  C210 4433   3.021   3.845   9.563  0.0390  0.5664  0.4126
   33POPC  H101 4434   3.078   3.874   9.474 -2.0264  0.3682 -1.0060
   33POPC  C211 4435   2.873   3.822   9.539  0.2522 -0.5331 -1.0082
   33POPC  H11R 4436   2.820   3.919   9.528  2.9738  1.2700  1.0132
   33POPC  H11S 4437   2.832   3.766   9.626 -0.3390  1.8065  0.2712
   33POPC  C212 4438   2.847   3.733   9.414  0.3672  0.0737 -0.2473
   33POPC  H12R 4439   2.736   3.722   9.416  0.5845 -2.1907  0.0679
   33POPC  H12S 4440   2.901   3.638   9.432  0.1176  0.2969  1.7352
   33POPC  C213 4441   2.868   3.801   9.277 -0.4192 -0.0603 -0.2472
   33POPC  H13R 4442   2.971   3.839   9.263 -0.6622  0.3448 -1.0098
   33POPC  H13S 4443   2.801   3.889   9.271 -0.5306 -0.0456  1.1667
   33POPC  C214 4444   2.827   3.713   9.158  0.4372 -0.1815 -0.0271
   33POPC  H14R 4445   2.726   3.673   9.181 -0.2354  1.9813  0.8967
   33POPC  H14S 4446   2.902   3.631   9.169  1.7296  1.0654  0.6499
   33POPC  C215 4447   2.834   3.788   9.018 -0.5011 -0.3692  0.4475
   33POPC  H15R 4448   2.939   3.773   8.985 -0.6509 -1.0404  0.2555
   33POPC  H15S 4449   2.812   3.896   9.026 -1.4138 -0.4225 -1.1594
   33POPC  C216 4450   2.745   3.717   8.927  0.6720 -0.5585  1.3337
   33POPC  H16R 4451   2.775   3.611   8.916 -1.4301 -0.9301 -1.2599
   33POPC  H16S 4452   2.757   3.763   8.827  0.0722 -1.6727  0.7451
   33POPC  C217 4453   2.591   3.720   8.956 -0.1168 -0.0121 -0.2070
   33POPC  H17R 4454   2.551   3.816   8.919  0.2555  0.5999  0.9572
   33POPC  H17S 4455   2.564   3.732   9.063 -0.7253 -1.4889 -0.1807
   33POPC  C218 4456   2.523   3.600   8.889  0.3614 -0.2508  0.0584
   33POPC  H18R 4457   2.420   3.594   8.931  0.3459 -0.7647 -0.0475
   33POPC  H18S 4458   2.565   3.497   8.894  0.6697 -0.1060  0.4291
   33POPC  H18T 4459   2.507   3.622   8.782  2.0071 -1.0010 -0.3471
   33POPC   C33 4460   2.117   4.235   9.935  0.6446 -0.0585  0.1458
   33POPC   H3X 4461   2.174   4.143   9.960  3.2274  1.7776  1.1050
   33POPC   H3Y 4462   2.176   4.287   9.857 -0.5657  0.7249 -0.2681
   33POPC   C34 4463   1.988   4.184   9.864 -1.0065 -0.3276  0.1707
   33POPC   H4X 4464   1.909   4.263   9.863 -0.5962  0.0915  0.5349
   33POPC   H4Y 4465   1.957   4.118   9.948  0.5637 -1.6771 -0.2973
   33POPC   C35 4466   1.996   4.104   9.731 -0.3991 -0.4956  0.2009
   33POPC   H5X 4467   1.902   4.052   9.702 -1.2805  0.3481  1.4764
   33POPC   H5Y 4468   2.069   4.023   9.754 -0.4637 -1.1576 -1.8838
   33POPC   C36 4469   2.029   4.191   9.608 -0.2595  0.0037  0.2574
   33POPC   H6X 4470   2.131   4.236   9.619 -0.2544  0.2695 -0.7522
   33POPC   H6Y 4471   1.953   4.269   9.585  0.3728 -0.0324 -2.0978
   33POPC   C37 4472   2.044   4.091   9.492 -0.0609  0.6913  0.3784
   33POPC   H7X 4473   1.939   4.057   9.482  0.8191 -2.2250  0.6622
   33POPC   H7Y 4474   2.107   4.006   9.526 -0.7380  1.0691  2.6325
   33POPC   C38 4475   2.088   4.160   9.360  0.3231  0.8030 -0.1272
   33POPC   H8X 4476   2.193   4.197   9.360 -0.4015  2.9880 -2.0383
   33POPC   H8Y 4477   2.034   4.256   9.342  1.7236  1.5270 -0.5993
   33POPC   C39 4478   2.076   4.062   9.242  0.4213  0.4857  0.0719
   33POPC   H9X 4479   1.978   4.013   9.261  0.9718 -0.4438  0.5810
   33POPC   H9Y 4480   2.153   3.981   9.247  0.0635  0.2237  1.6296
   33POPC  C310 4481   2.096   4.132   9.108 -0.5213 -0.1435  0.1072
   33POPC  H10X 4482   2.191   4.190   9.107 -0.8929  0.4762  0.2754
   33POPC  H10Y 4483   2.007   4.198   9.113  1.1996  2.0955  2.0869
   33POPC  C311 4484   2.094   4.039   8.979 -0.2470  0.6570 -0.2509
   33POPC  H11X 4485   1.990   4.000   8.979  0.3796 -1.0636 -0.7329
   33POPC  H11Y 4486   2.167   3.956   8.974  2.0505  2.3709  2.6992
   33POPC  C312 4487   2.123   4.121   8.850  0.0708 -0.2181 -1.0740
   33POPC  H12X 4488   2.224   4.166   8.863 -0.0837 -0.6178  1.7375
   33POPC  H12Y 4489   2.053   4.207   8.855 -0.7829 -0.9022 -1.1260
   33POPC  C313 4490   2.088   4.049   8.724  0.0957 -0.1947  0.1055
   33POPC  H13X 4491   2.111   4.106   8.632 -0.7506 -0.7544 -0.4568
   33POPC  H13Y 4492   1.989   3.999   8.719  0.2275 -0.3651 -0.8016
   33POPC  C314 4493   2.195   3.939   8.696  0.2191 -0.3961 -0.1458
   33POPC  H14X 4494   2.164   3.875   8.611  1.5231 -1.0885 -0.1229
   33POPC  H14Y 4495   2.196   3.874   8.785 -0.1277  0.1304  0.2443
   33POPC  C315 4496   2.340   3.980   8.666  0.1749 -0.3162  0.1582
   33POPC  H15X 4497   2.401   3.888   8.677  1.5465  0.7535  1.7053
   33POPC  H15Y 4498   2.374   4.057   8.738 -2.6372 -0.2024  1.4221
   33POPC  C316 4499   2.364   4.032   8.526  0.5703  0.4828  0.2127
   33POPC  H16X 4500   2.324   3.953   8.459  1.4849 -0.1898  0.4466
   33POPC  H16Y 4501   2.471   4.046   8.499 -0.1919  1.0600 -2.7157
   33POPC  H16Z 4502   2.312   4.128   8.508  0.1207 -0.1321 -1.9385
   34POPC     N 4503   0.688   4.225  10.600 -0.8223  0.4993  0.3729
   34POPC   C12 4504   0.751   4.238  10.738  0.3618  0.2543 -0.1057
   34POPC  H12A 4505   0.825   4.160  10.751 -2.3967 -2.3922  0.2725
   34POPC  H12B 4506   0.691   4.223  10.827 -0.0242 -1.1250 -0.5750
   34POPC   C13 4507   0.801   4.209  10.505 -0.4913 -0.6891 -0.5192
   34POPC  H13A 4508   0.780   4.233  10.402 -2.0237 -0.3868 -0.1489
   34POPC  H13B 4509   0.874   4.287  10.520 -2.2896  1.1623 -1.2658
   34POPC  H13C 4510   0.847   4.112  10.523 -1.4677 -0.9709  0.5260
   34POPC   C14 4511   0.598   4.104  10.602  0.1568 -0.1221  0.2350
   34POPC  H14A 4512   0.508   4.118  10.660 -1.0447 -3.2309 -0.7970
   34POPC  H14B 4513   0.567   4.092  10.499 -0.1157  0.6299  0.2278
   34POPC  H14C 4514   0.646   4.018  10.647  0.4679  0.3357  0.7834
   34POPC   C15 4515   0.599   4.338  10.575  0.4791 -0.1898 -0.8525
   34POPC  H15A 4516   0.653   4.430  10.563  1.1474 -0.6508 -1.4624
   34POPC  H15B 4517   0.529   4.358  10.655  0.3801 -0.6099 -0.8323
   34POPC  H15C 4518   0.551   4.327  10.479 -0.9467 -0.1561 -0.1543
   34POPC   C11 4519   0.813   4.378  10.771  0.3886 -0.1103  0.0132
   34POPC  H11A 4520   0.828   4.366  10.880  2.5248  2.3831  0.0689
   34POPC  H11B 4521   0.743   4.464  10.767 -0.8973 -1.0168  2.2441
   34POPC     P 4522   1.082   4.368  10.740 -0.6482  0.1566  0.2530
   34POPC   O13 4523   1.083   4.233  10.806  0.3591 -0.4687 -0.5293
   34POPC   O14 4524   1.139   4.478  10.820  0.1543 -0.6808 -0.0423
   34POPC   O12 4525   0.934   4.391  10.694 -0.3554 -0.3112 -0.0123
   34POPC   O11 4526   1.158   4.349  10.601 -0.6749  0.3382  0.3475
   34POPC    C1 4527   1.123   4.426  10.483 -0.5766 -0.1023  0.5812
   34POPC    HA 4528   1.125   4.533  10.513 -0.8902  0.4829 -1.4400
   34POPC    HB 4529   1.019   4.403  10.450 -0.2038  0.1065 -0.7444
   34POPC    C2 4530   1.211   4.401  10.358  0.0925  0.2607  0.3902
   34POPC    HS 4531   1.149   4.451  10.280 -0.4355  1.1911  1.4020
   34POPC   O21 4532   1.235   4.256  10.342  0.2497  0.6857  0.2315
   34POPC   C21 4533   1.118   4.198  10.304  0.5268  0.0989 -0.8064
   34POPC   O22 4534   1.018   4.250  10.260 -0.1909 -0.0147  0.1243
   34POPC   C22 4535   1.141   4.055  10.311  0.1848  0.2831 -0.0394
   34POPC   H2R 4536   1.041   4.008  10.303  0.7540 -1.4502  2.3575
   34POPC   H2S 4537   1.193   4.032  10.406  0.0589 -0.0248 -0.0437
   34POPC    C3 4538   1.344   4.478  10.380  0.6365  0.3694 -0.2330
   34POPC    HX 4539   1.372   4.447  10.483 -0.3365 -1.3065 -0.4504
   34POPC    HY 4540   1.346   4.589  10.381 -1.0986  0.4520 -1.6629
   34POPC   O31 4541   1.446   4.440  10.284  0.2989  0.2415  0.5454
   34POPC   C31 4542   1.522   4.339  10.314  0.3818 -0.3341  0.0996
   34POPC   O32 4543   1.544   4.301  10.430  0.2978  0.3645  0.2027
   34POPC   C32 4544   1.589   4.281  10.193  0.0559  0.4072 -0.5996
   34POPC   H2X 4545   1.591   4.171  10.213 -4.7703  0.3712  0.2463
   34POPC   H2Y 4546   1.697   4.307  10.201  0.3024 -1.3373  2.4773
   34POPC   C23 4547   1.220   4.007  10.186  0.6916 -0.4249  0.2366
   34POPC   H3R 4548   1.228   3.896  10.178 -1.5377 -0.7839  2.5644
   34POPC   H3S 4549   1.327   4.036  10.196  0.8603  0.2871 -3.0829
   34POPC   C24 4550   1.156   4.046  10.051  0.2958  0.3866  0.8426
   34POPC   H4R 4551   1.157   4.156  10.034 -1.1140  0.1959 -0.6759
   34POPC   H4S 4552   1.056   3.997  10.044  1.5834 -2.0968 -1.0673
   34POPC   C25 4553   1.244   3.966   9.942  0.3010 -0.3318 -0.0616
   34POPC   H5R 4554   1.352   3.962   9.968  0.1199  2.4519  1.2608
   34POPC   H5S 4555   1.238   4.024   9.847 -1.4845  1.1616  0.9470
   34POPC   C26 4556   1.178   3.832   9.900 -0.2463  0.3492  0.2938
   34POPC   H6R 4557   1.073   3.840   9.864 -0.8054 -0.5329  1.6776
   34POPC   H6S 4558   1.166   3.762   9.985  0.2105 -0.0511  0.0303
   34POPC   C27 4559   1.265   3.753   9.794  0.1705 -0.1630 -0.1578
   34POPC   H7R 4560   1.320   3.818   9.722  2.9053 -1.6161  0.5312
   34POPC   H7S 4561   1.201   3.686   9.733  0.1792  0.9630 -1.4166
   34POPC   C28 4562   1.367   3.643   9.842  1.4556 -0.2858  0.7482
   34POPC   H8R 4563   1.409   3.589   9.754  2.3371  1.8474 -0.1582
   34POPC   H8S 4564   1.308   3.579   9.910  0.6517 -0.4462 -0.0934
   34POPC   C29 4565   1.476   3.703   9.910  0.4984  0.2608 -0.0659
   34POPC   H91 4566   1.451   3.731  10.014 -0.7702 -2.2142  0.3268
   34POPC  C210 4567   1.597   3.742   9.866  0.2290  0.1410 -0.3766
   34POPC  H101 4568   1.664   3.785   9.942 -0.7151  1.6041 -0.3475
   34POPC  C211 4569   1.640   3.706   9.722 -0.2435  0.2161 -0.7660
   34POPC  H11R 4570   1.558   3.739   9.655  0.3821 -0.7535 -2.0445
   34POPC  H11S 4571   1.641   3.595   9.715 -1.8933 -0.0631  2.4877
   34POPC  C212 4572   1.772   3.771   9.693 -0.4805 -0.0554  0.4001
   34POPC  H12R 4573   1.859   3.743   9.755  0.6232  0.4894 -0.8923
   34POPC  H12S 4574   1.755   3.880   9.706  0.4259  0.0945  0.3098
   34POPC  C213 4575   1.821   3.757   9.547  0.1047 -0.1061 -0.1941
   34POPC  H13R 4576   1.853   3.651   9.536  0.4347 -0.2028  1.4644
   34POPC  H13S 4577   1.907   3.827   9.538 -1.1769  1.4874 -0.1597
   34POPC  C214 4578   1.717   3.777   9.440 -0.2052 -0.1599 -0.4799
   34POPC  H14R 4579   1.668   3.877   9.446 -0.6656 -0.4649  0.8567
   34POPC  H14S 4580   1.636   3.701   9.443 -1.3409  1.0484 -0.0674
   34POPC  C215 4581   1.784   3.757   9.299  1.1008 -0.1052 -0.3366
   34POPC  H15R 4582   1.827   3.655   9.290  0.1833 -0.6371  0.9813
   34POPC  H15S 4583   1.864   3.833   9.291  1.5896 -0.4612  1.0256
   34POPC  C216 4584   1.700   3.787   9.168 -0.5073 -0.0087 -0.9408
   34POPC  H16R 4585   1.664   3.892   9.160 -2.2460 -0.5839 -0.8636
   34POPC  H16S 4586   1.613   3.718   9.169 -1.8060  1.5964 -0.0157
   34POPC  C217 4587   1.787   3.765   9.043  0.6381 -1.1073  0.2021
   34POPC  H17R 4588   1.781   3.656   9.024  2.5153 -0.8691 -1.9879
   34POPC  H17S 4589   1.891   3.797   9.064 -0.2761  1.9549  0.3349
   34POPC  C218 4590   1.734   3.826   8.910 -0.0281 -0.2082  0.0699
   34POPC  H18R 4591   1.756   3.935   8.909  0.7787 -0.3670 -0.4892
   34POPC  H18S 4592   1.630   3.795   8.887  0.3533 -0.4722 -1.3422
   34POPC  H18T 4593   1.794   3.783   8.827  0.0982 -2.4801  1.3015
   34POPC   C33 4594   1.535   4.308  10.053  0.2749 -0.2538 -0.1510
   34POPC   H3X 4595   1.538   4.416  10.029  0.7112  0.2307  1.9348
   34POPC   H3Y 4596   1.429   4.276  10.049 -0.3516  1.5348  1.2682
   34POPC   C34 4597   1.620   4.245   9.939 -0.2176  0.0584 -0.2051
   34POPC   H4X 4598   1.628   4.135   9.956 -2.5064  0.0066  0.6917
   34POPC   H4Y 4599   1.717   4.300   9.936 -0.6390  0.9058  1.4475
   34POPC   C35 4600   1.539   4.245   9.807  0.5104 -0.7525 -0.5152
   34POPC   H5X 4601   1.509   4.350   9.786 -0.5857 -0.7759  0.8367
   34POPC   H5Y 4602   1.444   4.189   9.821  1.3988 -2.1641 -0.0149
   34POPC   C36 4603   1.612   4.172   9.695  1.0099 -0.0305 -0.3222
   34POPC   H6X 4604   1.563   4.075   9.671  1.3150 -0.2295 -0.1442
   34POPC   H6Y 4605   1.715   4.165   9.734  0.3041  2.5366  2.2141
   34POPC   C37 4606   1.624   4.262   9.570 -0.8613  0.0360 -0.0490
   34POPC   H7X 4607   1.706   4.335   9.587 -0.9007  0.4220 -1.4136
   34POPC   H7Y 4608   1.528   4.317   9.571  0.4572  2.3887  1.0291
   34POPC   C38 4609   1.645   4.184   9.440 -0.0985  0.2091  0.0405
   34POPC   H8X 4610   1.562   4.112   9.421 -0.5553  0.5709  0.6454
   34POPC   H8Y 4611   1.732   4.117   9.447 -0.8727 -0.6195  2.0471
   34POPC   C39 4612   1.655   4.277   9.320  0.8388  0.0466 -0.0511
   34POPC   H9X 4613   1.725   4.358   9.350  0.9946  0.2314 -0.9278
   34POPC   H9Y 4614   1.555   4.325   9.318  0.1106 -1.3956  1.1449
   34POPC  C310 4615   1.685   4.211   9.185  0.2337 -0.0398  0.6065
   34POPC  H10X 4616   1.610   4.133   9.160  0.4735 -0.0278 -0.1824
   34POPC  H10Y 4617   1.785   4.165   9.199 -0.4637 -0.9776  2.6641
   34POPC  C311 4618   1.696   4.307   9.067 -0.1499 -0.7192 -0.3122
   34POPC  H11X 4619   1.756   4.399   9.088 -2.2976  1.2407 -2.3655
   34POPC  H11Y 4620   1.590   4.327   9.042  0.2763  1.8910 -0.1831
   34POPC  C312 4621   1.758   4.252   8.938  0.8889  0.0978 -0.1538
   34POPC  H12X 4622   1.716   4.152   8.914 -0.9895  0.6791  0.6647
   34POPC  H12Y 4623   1.868   4.238   8.943  0.8615 -0.4293 -0.9644
   34POPC  C313 4624   1.730   4.352   8.823 -0.5685 -1.4044  0.1686
   34POPC  H13X 4625   1.780   4.447   8.849 -0.7193 -2.2245  3.6208
   34POPC  H13Y 4626   1.620   4.368   8.822 -0.1642  1.4934  0.0220
   34POPC  C314 4627   1.790   4.315   8.690  0.4140 -0.7565 -0.4213
   34POPC  H14X 4628   1.897   4.287   8.703  0.1387 -1.5585  0.1929
   34POPC  H14Y 4629   1.782   4.403   8.623 -0.0356  0.8301  1.6684
   34POPC  C315 4630   1.738   4.182   8.632 -0.2794  0.4797 -0.1899
   34POPC  H15X 4631   1.729   4.100   8.707  1.1435  0.3012 -0.1921
   34POPC  H15Y 4632   1.814   4.147   8.558 -0.8570 -0.8379 -0.1849
   34POPC  C316 4633   1.604   4.187   8.562 -0.5816 -0.5648 -0.0244
   34POPC  H16X 4634   1.558   4.091   8.532 -2.8358  0.3037  0.5836
   34POPC  H16Y 4635   1.616   4.242   8.466  1.6328 -1.6749 -0.4284
   34POPC  H16Z 4636   1.533   4.244   8.625  1.6653  2.2024  0.1216
   35POPC     N 4637   0.637   2.224  11.510  0.4728 -0.1936 -0.2156
   35POPC   C12 4638   0.688   2.161  11.382  0.0915 -0.2052 -0.0522
   35POPC  H12A 4639   0.796   2.155  11.380  0.0197 -3.2581  1.8643
   35POPC  H12B 4640   0.663   2.216  11.292 -1.0951  2.0001  1.5906
   35POPC   C13 4641   0.653   2.132  11.628 -0.0983 -0.2778  1.2075
   35POPC  H13A 4642   0.756   2.103  11.643 -0.9201 -2.1000  3.7644
   35POPC  H13B 4643   0.625   2.180  11.720  0.7379  0.9215  0.8495
   35POPC  H13C 4644   0.598   2.040  11.614  0.7865 -0.6158 -0.1712
   35POPC   C14 4645   0.699   2.353  11.546  0.0921 -0.2905  0.2456
   35POPC  H14A 4646   0.692   2.424  11.464  1.0281 -2.8378 -2.1272
   35POPC  H14B 4647   0.650   2.397  11.631 -4.0603  1.7596 -3.0433
   35POPC  H14C 4648   0.804   2.339  11.568  0.5041  0.4150 -1.1793
   35POPC   C15 4649   0.490   2.262  11.507  0.2148 -0.2117  0.2789
   35POPC  H15A 4650   0.428   2.176  11.488  0.9762 -0.8133  0.4969
   35POPC  H15B 4651   0.469   2.331  11.426 -1.6749 -2.2119 -0.9998
   35POPC  H15C 4652   0.450   2.305  11.597  0.4808 -1.3171  0.9248
   35POPC   C11 4653   0.626   2.018  11.357  0.5383 -0.7953  0.4604
   35POPC  H11A 4654   0.633   1.951  11.446 -0.1438 -0.8582  0.4669
   35POPC  H11B 4655   0.701   1.972  11.290  2.6410  0.9999  1.5060
   35POPC     P 4656   0.440   2.075  11.177  0.4470  0.0367 -0.0545
   35POPC   O13 4657   0.338   2.179  11.213  0.1402 -0.6753  0.5946
   35POPC   O14 4658   0.402   1.970  11.083 -0.3497  0.1362  0.8646
   35POPC   O12 4659   0.488   2.009  11.312  0.1370 -0.2210  0.1138
   35POPC   O11 4660   0.568   2.151  11.122 -0.6801 -0.3590  0.1395
   35POPC    C1 4661   0.569   2.242  11.008  0.5167 -0.0380  0.6389
   35POPC    HA 4662   0.642   2.324  11.024 -1.6426  1.9728  0.4557
   35POPC    HB 4663   0.467   2.285  10.996  0.0481 -1.2339  0.2827
   35POPC    C2 4664   0.580   2.174  10.868  0.0218  0.5858  0.3239
   35POPC    HS 4665   0.484   2.118  10.865 -0.4206  1.1009  3.2265
   35POPC   O21 4666   0.688   2.078  10.863  1.0648 -0.1141  0.0776
   35POPC   C21 4667   0.663   1.957  10.813  0.0489 -0.2259 -0.2499
   35POPC   O22 4668   0.554   1.911  10.781 -0.0903 -0.1171  0.7307
   35POPC   C22 4669   0.798   1.884  10.832 -0.0213 -0.8805 -0.4300
   35POPC   H2R 4670   0.790   1.823  10.924  0.6566 -0.9324 -0.3997
   35POPC   H2S 4671   0.869   1.968  10.849 -1.2979 -0.0360  0.8618
   35POPC    C3 4672   0.582   2.278  10.750  0.7275  0.4737  0.5509
   35POPC    HX 4673   0.684   2.320  10.758 -0.4316  3.4297  0.3228
   35POPC    HY 4674   0.506   2.357  10.770 -0.4788 -0.2349 -1.1007
   35POPC   O31 4675   0.556   2.205  10.628 -0.0385 -0.5101 -0.5542
   35POPC   C31 4676   0.618   2.257  10.524 -0.1445  0.1008  0.5783
   35POPC   O32 4677   0.688   2.358  10.529  0.2357  0.9554 -0.0305
   35POPC   C32 4678   0.560   2.200  10.397 -0.7104  0.8374  0.0876
   35POPC   H2X 4679   0.450   2.198  10.383 -0.4234 -0.2727 -2.2810
   35POPC   H2Y 4680   0.591   2.094  10.389 -0.7993  0.9128 -1.2830
   35POPC   C23 4681   0.830   1.797  10.706 -0.0242  0.2712  0.0043
   35POPC   H3R 4682   0.753   1.719  10.686 -2.0846  2.2347  0.0988
   35POPC   H3S 4683   0.925   1.744  10.728  0.2762  0.4873 -0.7647
   35POPC   C24 4684   0.846   1.888  10.581 -0.3465 -0.2568 -0.0788
   35POPC   H4R 4685   0.928   1.963  10.588  0.9697 -1.7116  0.4396
   35POPC   H4S 4686   0.754   1.949  10.568  0.8469  1.6761  0.2896
   35POPC   C25 4687   0.872   1.811  10.450  0.1790  0.6156 -0.1686
   35POPC   H5R 4688   0.794   1.734  10.431  2.8300 -2.0798 -0.4577
   35POPC   H5S 4689   0.961   1.751  10.480 -0.4040  0.8238  2.0855
   35POPC   C26 4690   0.908   1.898  10.330  0.5318 -0.2844 -0.6440
   35POPC   H6R 4691   1.006   1.943  10.357 -0.4420  0.7419  1.3054
   35POPC   H6S 4692   0.832   1.974  10.302  0.5708 -0.1580 -0.4113
   35POPC   C27 4693   0.912   1.805  10.205 -0.2968  0.4690 -0.5341
   35POPC   H7R 4694   0.808   1.772  10.186 -0.8401  0.8593  1.6475
   35POPC   H7S 4695   0.972   1.714  10.228 -2.0393 -0.0756  2.1370
   35POPC   C28 4696   0.952   1.859  10.071 -0.0387  0.6261  0.0450
   35POPC   H8R 4697   0.895   1.954  10.065  0.3985  0.9653  1.2309
   35POPC   H8S 4698   0.918   1.780  10.001 -1.3933  0.0256  1.3503
   35POPC   C29 4699   1.091   1.902  10.042  0.4583 -0.0393  0.6893
   35POPC   H91 4700   1.155   1.891  10.130 -0.2746  1.2492  1.4025
   35POPC  C210 4701   1.143   1.949   9.927 -0.1950 -0.2145 -0.0475
   35POPC  H101 4702   1.247   1.985   9.926 -0.3925  0.4460 -2.9655
   35POPC  C211 4703   1.066   1.973   9.797 -0.2036  0.5008 -0.7773
   35POPC  H11R 4704   1.104   2.060   9.739  0.6974 -0.1388 -1.1719
   35POPC  H11S 4705   0.955   1.977   9.803 -0.2799 -1.3153 -0.8078
   35POPC  C212 4706   1.081   1.867   9.689 -0.1924 -0.0891  0.3824
   35POPC  H12R 4707   1.042   1.771   9.730  0.8839 -0.5454  0.3612
   35POPC  H12S 4708   1.191   1.854   9.679 -0.2424 -0.3490  0.1577
   35POPC  C213 4709   1.021   1.917   9.554 -0.9415  0.7946 -0.3231
   35POPC  H13R 4710   1.041   2.026   9.547  2.6363  0.4098  2.0065
   35POPC  H13S 4711   0.918   1.884   9.533 -0.4542  0.4215 -2.1627
   35POPC  C214 4712   1.101   1.857   9.439  0.0661  0.6093 -0.1744
   35POPC  H14R 4713   1.109   1.747   9.448 -0.9258  0.5971  0.6654
   35POPC  H14S 4714   1.202   1.902   9.440  0.0587  0.6148  2.0234
   35POPC  C215 4715   1.022   1.892   9.307  0.4924  0.3158  1.1765
   35POPC  H15R 4716   1.013   2.002   9.298  2.1608  0.4636  1.2019
   35POPC  H15S 4717   0.921   1.847   9.319  0.9227 -0.4851  1.7983
   35POPC  C216 4718   1.095   1.840   9.177 -0.8959  0.1280  0.7992
   35POPC  H16R 4719   1.131   1.738   9.202  2.2603  0.4701 -2.0114
   35POPC  H16S 4720   1.182   1.903   9.149 -1.6475  0.9185  0.2016
   35POPC  C217 4721   1.001   1.824   9.053  0.0371  0.0464 -0.1147
   35POPC  H17R 4722   0.967   1.928   9.038 -0.1211  0.1607  0.9952
   35POPC  H17S 4723   0.914   1.759   9.080 -0.5003  0.2190 -1.4128
   35POPC  C218 4724   1.059   1.765   8.926  1.1093  0.4287 -0.0304
   35POPC  H18R 4725   1.137   1.829   8.879  0.3883  0.8562 -0.6631
   35POPC  H18S 4726   0.983   1.768   8.845  1.0616  2.4025  0.0525
   35POPC  H18T 4727   1.099   1.664   8.950  0.1159 -0.0112 -0.2082
   35POPC   C33 4728   0.622   2.264  10.268 -0.0969  0.8228  0.0135
   35POPC   H3X 4729   0.730   2.265  10.292  0.1132 -1.4589 -0.6649
   35POPC   H3Y 4730   0.582   2.366  10.283 -0.4088  0.9532 -1.6303
   35POPC   C34 4731   0.576   2.201  10.139 -0.6348 -0.1481  0.4320
   35POPC   H4X 4732   0.629   2.256  10.059 -1.6031 -0.8888 -0.7379
   35POPC   H4Y 4733   0.470   2.217  10.110 -0.1013  3.1615  0.1396
   35POPC   C35 4734   0.632   2.059  10.115 -0.0668  0.2500 -0.3774
   35POPC   H5X 4735   0.594   1.986  10.189  0.2376  2.4868  2.0818
   35POPC   H5Y 4736   0.741   2.059  10.136  0.2317 -0.6358 -1.8341
   35POPC   C36 4737   0.606   2.006   9.973  0.4717  0.2737  0.3500
   35POPC   H6X 4738   0.641   1.901   9.985  4.1130  1.3854  0.2689
   35POPC   H6Y 4739   0.679   2.042   9.896 -0.4346  0.8274 -0.2578
   35POPC   C37 4740   0.467   2.009   9.912  0.0835 -0.1799  0.3544
   35POPC   H7X 4741   0.448   2.116   9.893  1.7277  0.1025  0.2216
   35POPC   H7Y 4742   0.400   1.971   9.992  0.7802 -2.0497  0.0957
   35POPC   C38 4743   0.461   1.912   9.787 -0.2783  0.6083  0.5007
   35POPC   H8X 4744   0.356   1.911   9.753  0.7858  3.3025 -3.2005
   35POPC   H8Y 4745   0.482   1.808   9.821  0.7566  0.7271  0.2598
   35POPC   C39 4746   0.549   1.947   9.672 -1.1675 -0.1818  0.1943
   35POPC   H9X 4747   0.652   1.905   9.683 -0.6265  1.1655  0.3819
   35POPC   H9Y 4748   0.563   2.057   9.676 -1.1729 -0.2137  1.1760
   35POPC  C310 4749   0.495   1.897   9.535  0.4772  0.5787  0.5487
   35POPC  H10X 4750   0.396   1.939   9.508  0.3312  0.0949  0.3325
   35POPC  H10Y 4751   0.469   1.789   9.529 -1.8057  1.0811  0.7850
   35POPC  C311 4752   0.604   1.910   9.423 -0.1925  0.2894  0.0659
   35POPC  H11X 4753   0.677   1.831   9.452  0.5421  1.4919  1.5410
   35POPC  H11Y 4754   0.674   1.996   9.414  2.3097 -1.7580 -0.8689
   35POPC  C312 4755   0.545   1.882   9.282 -0.4561 -0.0397  0.1252
   35POPC  H12X 4756   0.461   1.954   9.275 -0.1006  0.2603 -1.1396
   35POPC  H12Y 4757   0.495   1.783   9.289  0.6324 -0.7032 -1.2054
   35POPC  C313 4758   0.648   1.906   9.171  0.1176  0.3568 -0.4828
   35POPC  H13X 4759   0.741   1.845   9.177  1.2364  1.8060 -2.6088
   35POPC  H13Y 4760   0.679   2.012   9.180 -1.0239  0.6505  0.0731
   35POPC  C314 4761   0.603   1.879   9.023 -0.1038  0.1415 -0.3984
   35POPC  H14X 4762   0.617   1.771   9.002  1.1252  0.4288 -1.1224
   35POPC  H14Y 4763   0.673   1.936   8.958 -0.7041  0.0028 -1.1634
   35POPC  C315 4764   0.455   1.922   9.001 -0.0790  0.2164 -0.1264
   35POPC  H15X 4765   0.430   2.019   9.048 -0.6678  1.0683 -2.1740
   35POPC  H15Y 4766   0.390   1.843   9.043  2.2108 -0.6204  2.0139
   35POPC  C316 4767   0.414   1.923   8.854 -0.7007 -0.5044  0.0606
   35POPC  H16X 4768   0.470   1.987   8.782  2.5324 -0.8087  2.2092
   35POPC  H16Y 4769   0.308   1.954   8.848 -0.2068  1.0014 -1.4677
   35POPC  H16Z 4770   0.438   1.824   8.809  0.6645 -1.3161  2.4794
   36POPC     N 4771   0.707   6.540  10.889  0.2420 -0.7138 -0.1536
   36POPC   C12 4772   0.620   6.660  10.860 -0.1052  0.0239 -0.2015
   36POPC  H12A 4773   0.520   6.618  10.863  0.2351 -0.7542  0.4936
   36POPC  H12B 4774   0.631   6.689  10.757  0.5502  0.0907 -0.1118
   36POPC   C13 4775   0.854   6.576  10.859 -0.3805 -0.1775 -0.0778
   36POPC  H13A 4776   0.912   6.487  10.877  0.9438  0.9058  1.1264
   36POPC  H13B 4777   0.864   6.595  10.753  0.2633  0.4906  0.1052
   36POPC  H13C 4778   0.892   6.658  10.918 -0.7562 -0.3398  0.4031
   36POPC   C14 4779   0.690   6.502  11.037 -0.0542 -0.5779 -0.4358
   36POPC  H14A 4780   0.716   6.590  11.094 -1.9059  0.2341 -0.7883
   36POPC  H14B 4781   0.596   6.456  11.064  1.0810 -2.0078  1.1327
   36POPC  H14C 4782   0.753   6.421  11.070  0.4928  0.3294  0.7768
   36POPC   C15 4783   0.653   6.425  10.799  0.4493  0.1058 -0.0267
   36POPC  H15A 4784   0.562   6.385  10.842  0.1977  0.5011 -0.1834
   36POPC  H15B 4785   0.722   6.342  10.794  0.9051  0.5251 -0.8999
   36POPC  H15C 4786   0.633   6.459  10.698 -3.0330 -1.4603  0.0549
   36POPC   C11 4787   0.639   6.798  10.933 -0.0805 -0.1718  0.6368
   36POPC  H11A 4788   0.618   6.788  11.041 -0.4281 -0.0558  0.5842
   36POPC  H11B 4789   0.557   6.861  10.892  0.7105  0.3423 -0.1684
   36POPC     P 4790   0.819   6.940  10.801  0.0730 -0.2953  0.4082
   36POPC   O13 4791   0.901   6.854  10.716 -0.2381 -0.5294  0.1408
   36POPC   O14 4792   0.880   7.072  10.844 -0.9886  0.3025 -0.1114
   36POPC   O12 4793   0.767   6.861  10.933 -0.6774  0.2981 -0.0131
   36POPC   O11 4794   0.686   6.980  10.728  0.1690 -0.5951  0.4734
   36POPC    C1 4795   0.641   6.903  10.614 -0.4729  0.3519 -0.3868
   36POPC    HA 4796   0.555   6.839  10.644 -1.2510  1.7307  0.3478
   36POPC    HB 4797   0.716   6.833  10.570 -2.2952 -1.4382 -0.7019
   36POPC    C2 4798   0.602   7.000  10.501  0.4300 -0.4252  0.1394
   36POPC    HS 4799   0.548   6.946  10.420  1.3288 -0.8166 -0.2115
   36POPC   O21 4800   0.711   7.084  10.458 -0.1005 -0.4681 -0.1769
   36POPC   C21 4801   0.790   7.018  10.372  0.0332 -0.4973  0.5257
   36POPC   O22 4802   0.769   6.904  10.333  0.2806  0.1059  0.2966
   36POPC   C22 4803   0.914   7.095  10.327 -0.7243 -0.4052  0.5167
   36POPC   H2R 4804   0.993   7.028  10.288 -1.4107  0.7419 -3.0322
   36POPC   H2S 4805   0.946   7.156  10.414 -0.9234  1.2110 -0.5406
   36POPC    C3 4806   0.490   7.094  10.565 -0.0316 -0.1069 -0.1066
   36POPC    HX 4807   0.541   7.181  10.612 -1.9117  1.0883 -0.2420
   36POPC    HY 4808   0.435   7.036  10.642  0.6095 -0.4470  0.0974
   36POPC   O31 4809   0.398   7.137  10.467  0.0924  0.4782 -0.4559
   36POPC   C31 4810   0.419   7.255  10.403  0.3494 -0.1215 -0.1993
   36POPC   O32 4811   0.505   7.337  10.435 -0.3980  0.0348  0.3238
   36POPC   C32 4812   0.322   7.266  10.287  0.1577 -0.7661  0.7668
   36POPC   H2X 4813   0.227   7.305  10.331  0.2314  1.5001 -0.9765
   36POPC   H2Y 4814   0.300   7.167  10.242 -0.3777 -0.1610 -0.3378
   36POPC   C23 4815   0.872   7.175  10.205 -0.0972 -0.2676 -0.0983
   36POPC   H3R 4816   0.951   7.253  10.197 -1.4983  1.3004  1.0349
   36POPC   H3S 4817   0.783   7.240  10.218 -0.5717 -0.8622 -0.3542
   36POPC   C24 4818   0.866   7.095  10.074  0.9388  0.1025 -0.0987
   36POPC   H4R 4819   0.792   7.014  10.092 -0.5822  1.9423  2.2609
   36POPC   H4S 4820   0.961   7.043  10.049 -0.8704 -2.0073 -2.8841
   36POPC   C25 4821   0.819   7.174   9.954 -0.2284  0.3701 -0.3240
   36POPC   H5R 4822   0.882   7.265   9.940  0.9061 -0.6461 -1.9744
   36POPC   H5S 4823   0.716   7.216   9.964 -0.1189  0.9202 -1.4440
   36POPC   C26 4824   0.820   7.089   9.824  0.0738 -0.1113  0.2302
   36POPC   H6R 4825   0.748   7.005   9.820 -1.2561  0.7974  3.6300
   36POPC   H6S 4826   0.921   7.044   9.811  1.0522  2.0727  0.0131
   36POPC   C27 4827   0.801   7.166   9.696 -0.8917 -0.6068  0.0527
   36POPC   H7R 4828   0.863   7.259   9.693 -1.5835 -0.1225  0.5986
   36POPC   H7S 4829   0.695   7.199   9.698 -0.4894  0.6273  1.5905
   36POPC   C28 4830   0.834   7.078   9.574  0.0747  0.1593 -0.5021
   36POPC   H8R 4831   0.769   6.989   9.590  1.8853 -1.0891  0.0572
   36POPC   H8S 4832   0.935   7.032   9.582  0.1792  0.6239  1.2113
   36POPC   C29 4833   0.801   7.149   9.446 -0.9353  0.1024  1.0664
   36POPC   H91 4834   0.741   7.241   9.449 -2.4440 -0.8406  0.2789
   36POPC  C210 4835   0.866   7.127   9.335  0.2926  0.1684  0.2601
   36POPC  H101 4836   0.842   7.195   9.252  0.1109  0.3491  0.4640
   36POPC  C211 4837   0.981   7.031   9.303  0.1857  0.1513 -0.1793
   36POPC  H11R 4838   1.010   6.977   9.396 -0.0998 -1.4371 -0.9788
   36POPC  H11S 4839   1.066   7.086   9.258 -0.6930  0.4834 -1.4827
   36POPC  C212 4840   0.934   6.932   9.191  0.3956 -0.3401 -0.6436
   36POPC  H12R 4841   1.032   6.887   9.163  0.5369 -2.2248  2.5946
   36POPC  H12S 4842   0.899   6.989   9.102 -4.6290  0.3674  1.5973
   36POPC  C213 4843   0.851   6.814   9.232  0.0416 -0.1913 -0.4636
   36POPC  H13R 4844   0.756   6.848   9.279  0.4429  0.0221  0.1942
   36POPC  H13S 4845   0.902   6.768   9.319  3.6344 -0.8582 -2.8081
   36POPC  C214 4846   0.818   6.703   9.134 -0.4922  0.6801  0.6648
   36POPC  H14R 4847   0.770   6.747   9.043 -1.6871  0.1294  1.0155
   36POPC  H14S 4848   0.759   6.624   9.185 -1.1209  0.8480  0.2098
   36POPC  C215 4849   0.947   6.628   9.095 -0.4977  0.0655  0.4140
   36POPC  H15R 4850   0.997   6.621   9.194  0.2900  0.1024  0.0246
   36POPC  H15S 4851   1.017   6.693   9.036 -0.4890  0.0505  0.4083
   36POPC  C216 4852   0.927   6.493   9.023 -0.4820 -0.5551 -0.0510
   36POPC  H16R 4853   0.843   6.435   9.067  1.5864 -1.9276  2.2744
   36POPC  H16S 4854   1.022   6.440   9.045  1.1242  2.5040  0.5829
   36POPC  C217 4855   0.916   6.512   8.876  0.6833 -0.0715  0.9784
   36POPC  H17R 4856   1.008   6.557   8.832 -0.4349  2.0052  0.7137
   36POPC  H17S 4857   0.834   6.584   8.855  1.8991  1.1422  0.3190
   36POPC  C218 4858   0.878   6.386   8.789  0.6020 -0.1168  0.0517
   36POPC  H18R 4859   0.801   6.333   8.849 -1.1107  2.1079 -0.1250
   36POPC  H18S 4860   0.971   6.327   8.773  0.8400  0.4291 -0.6252
   36POPC  H18T 4861   0.828   6.413   8.693  0.7528  0.4514  0.1339
   36POPC   C33 4862   0.354   7.359  10.163  0.3038  0.8176 -0.1223
   36POPC   H3X 4863   0.370   7.464  10.198  0.7255  0.0949  1.8704
   36POPC   H3Y 4864   0.268   7.357  10.093  1.9467  0.7002 -2.2057
   36POPC   C34 4865   0.475   7.315  10.067  0.4845  0.2348 -0.3618
   36POPC   H4X 4866   0.484   7.204  10.070  3.0419  0.4305  0.8078
   36POPC   H4Y 4867   0.571   7.352  10.110  0.9783 -0.7834 -0.5812
   36POPC   C35 4868   0.452   7.366   9.924 -0.0771 -0.8612 -0.2252
   36POPC   H5X 4869   0.555   7.367   9.883 -0.2274  0.0375 -0.5912
   36POPC   H5Y 4870   0.418   7.472   9.930 -0.1784 -0.9679  1.5092
   36POPC   C36 4871   0.353   7.279   9.839 -0.9342  0.1267  0.1168
   36POPC   H6X 4872   0.250   7.286   9.880 -1.4063  1.6361 -1.2821
   36POPC   H6Y 4873   0.387   7.173   9.846 -1.2784  0.1370  2.1594
   36POPC   C37 4874   0.336   7.316   9.694  0.1506 -0.1920 -0.0756
   36POPC   H7X 4875   0.265   7.236   9.661 -3.1481  3.0110 -1.0540
   36POPC   H7Y 4876   0.430   7.282   9.646  1.1111 -0.8287  2.1514
   36POPC   C38 4877   0.289   7.458   9.648  0.5688  0.5653  0.3371
   36POPC   H8X 4878   0.361   7.540   9.670  1.8505 -0.4133 -0.1401
   36POPC   H8Y 4879   0.193   7.479   9.699 -0.3124 -0.8372 -0.7359
   36POPC   C39 4880   0.260   7.458   9.504 -0.2230 -0.1996 -0.0303
   36POPC   H9X 4881   0.219   7.559   9.481  0.5436  0.2949  0.7564
   36POPC   H9Y 4882   0.185   7.378   9.490  1.8997 -2.5403  1.6393
   36POPC  C310 4883   0.380   7.447   9.408 -0.6153 -0.1930  0.0847
   36POPC  H10X 4884   0.432   7.352   9.431  0.6585  0.9278  1.9473
   36POPC  H10Y 4885   0.448   7.531   9.435  0.0432 -0.5756 -0.3839
   36POPC  C311 4886   0.345   7.459   9.262 -0.3047  0.0168  0.4577
   36POPC  H11X 4887   0.286   7.550   9.235 -4.1472 -2.3017  0.7093
   36POPC  H11Y 4888   0.276   7.385   9.216 -2.1334  1.4790  0.7939
   36POPC  C312 4889   0.468   7.473   9.164 -0.3596 -0.0622 -0.2764
   36POPC  H12X 4890   0.531   7.556   9.202  0.3195 -1.0503  0.7821
   36POPC  H12Y 4891   0.431   7.503   9.063 -1.3008  1.9299  0.6401
   36POPC  C313 4892   0.549   7.347   9.146 -0.2649  1.0613 -0.2334
   36POPC  H13X 4893   0.471   7.269   9.138 -1.1832  1.9044  0.3953
   36POPC  H13Y 4894   0.615   7.314   9.230 -1.0495 -0.3274 -0.1503
   36POPC  C314 4895   0.624   7.338   9.016 -0.0715  0.7185 -0.8141
   36POPC  H14X 4896   0.698   7.418   9.040  0.7468  0.3273 -1.9998
   36POPC  H14Y 4897   0.576   7.377   8.925 -0.6574  1.0632 -0.3612
   36POPC  C315 4898   0.682   7.194   8.974 -0.0868 -0.5751 -0.0478
   36POPC  H15X 4899   0.593   7.161   8.917 -0.6378 -1.6930  1.4266
   36POPC  H15Y 4900   0.699   7.138   9.068 -1.9362 -0.5071  0.3575
   36POPC  C316 4901   0.813   7.200   8.898 -0.0747 -0.1439  0.0273
   36POPC  H16X 4902   0.859   7.104   8.867  0.4153 -0.6709  2.3124
   36POPC  H16Y 4903   0.885   7.258   8.960 -1.0266 -0.3849  1.3863
   36POPC  H16Z 4904   0.790   7.265   8.811  1.3984 -0.7703 -0.8395
   37POPC     N 4905   6.784   3.271   6.555  0.3434  0.0263 -0.1446
   37POPC   C12 4906   6.694   3.293   6.671  0.5188  0.1122  0.7489
   37POPC  H12A 4907   6.723   3.235   6.757  1.7105 -1.0154 -0.3887
   37POPC  H12B 4908   6.595   3.255   6.652  0.0705  0.8821  1.4754
   37POPC   C13 4909   6.732   3.354   6.438  0.7093  0.7370  0.0287
   37POPC  H13A 4910   6.701   3.449   6.478 -0.9198  0.7808 -1.2701
   37POPC  H13B 4911   6.809   3.371   6.365 -1.1481  2.0433 -1.6937
   37POPC  H13C 4912   6.647   3.302   6.395  1.6505 -1.9333  1.2275
   37POPC   C14 4913   6.924   3.310   6.581  0.7855  1.0171 -0.0985
   37POPC  H14A 4914   6.963   3.266   6.672 -1.9988 -0.3505  0.5055
   37POPC  H14B 4915   6.991   3.281   6.502  2.5593  0.4645  1.5573
   37POPC  H14C 4916   6.931   3.417   6.588  1.4483  0.9269  0.7281
   37POPC   C15 4917   6.789   3.127   6.504  0.4686 -0.4515 -0.2469
   37POPC  H15A 4918   6.868   3.123   6.431 -0.2180  1.4632 -1.1452
   37POPC  H15B 4919   6.699   3.090   6.457 -0.2684 -0.6127  1.2675
   37POPC  H15C 4920   6.815   3.060   6.585 -1.0920  0.8845  1.4086
   37POPC   C11 4921   6.684   3.440   6.709  0.5448  0.0017  0.9382
   37POPC  H11A 4922   6.772   3.505   6.691  0.9805 -1.0460 -0.8695
   37POPC  H11B 4923   6.669   3.461   6.817  2.6275 -0.1704  1.2831
   37POPC     P 4924   6.432   3.493   6.662 -0.1256  0.2173  0.0339
   37POPC   O13 4925   6.365   3.389   6.582  0.2484 -0.1506  0.3776
   37POPC   O14 4926   6.375   3.626   6.653 -0.0838 -0.3317 -0.5510
   37POPC   O12 4927   6.583   3.505   6.631 -0.1205 -0.0788  0.3457
   37POPC   O11 4928   6.431   3.464   6.820  0.0681  0.4947  0.2041
   37POPC    C1 4929   6.354   3.357   6.873  0.0286  0.4443  0.2746
   37POPC    HA 4930   6.425   3.288   6.925  0.3882  0.6923  0.1136
   37POPC    HB 4931   6.305   3.297   6.794  0.7765 -2.9125  2.2582
   37POPC    C2 4932   6.240   3.400   6.974  0.3179 -0.2469  0.0708
   37POPC    HS 4933   6.183   3.484   6.930 -0.2509 -0.2911  0.7098
   37POPC   O21 4934   6.296   3.436   7.096 -0.6530  0.2287  0.3987
   37POPC   C21 4935   6.238   3.539   7.165 -0.0399  0.3769  0.0838
   37POPC   O22 4936   6.145   3.601   7.120  0.3086 -0.2690 -0.1599
   37POPC   C22 4937   6.312   3.568   7.296 -0.0645  0.5692  0.3212
   37POPC   H2R 4938   6.406   3.624   7.273 -1.2346  2.9247  1.1552
   37POPC   H2S 4939   6.336   3.468   7.340 -0.9910 -0.2155 -0.9443
   37POPC    C3 4940   6.127   3.288   7.000 -0.0994 -0.4281  0.7744
   37POPC    HX 4941   6.195   3.208   7.037 -0.0202  0.1711  1.9604
   37POPC    HY 4942   6.085   3.272   6.899 -0.2009  0.7214  0.6190
   37POPC   O31 4943   6.038   3.322   7.109  0.4878 -0.0124  0.3717
   37POPC   C31 4944   5.911   3.338   7.078 -0.0553  0.1172 -0.1782
   37POPC   O32 4945   5.862   3.308   6.973  0.4861 -0.1648  0.0511
   37POPC   C32 4946   5.826   3.418   7.184  0.3092  0.1075  0.1489
   37POPC   H2X 4947   5.727   3.367   7.187 -0.2851  1.1175 -1.4997
   37POPC   H2Y 4948   5.812   3.523   7.151 -0.7888  0.7240  2.4548
   37POPC   C23 4949   6.242   3.665   7.392 -0.0397 -0.1249 -0.7402
   37POPC   H3R 4950   6.143   3.615   7.402  0.6231 -1.3221  0.0719
   37POPC   H3S 4951   6.228   3.767   7.351 -1.2626  0.5057  1.1310
   37POPC   C24 4952   6.305   3.670   7.536 -0.1070 -0.3734 -0.2621
   37POPC   H4R 4953   6.400   3.724   7.521  0.2494 -0.5581  1.2694
   37POPC   H4S 4954   6.327   3.563   7.553 -2.4976 -0.7407  0.7017
   37POPC   C25 4955   6.226   3.737   7.649 -0.3599  0.2186 -0.1853
   37POPC   H5R 4956   6.119   3.705   7.651  0.1466 -1.4588  0.9235
   37POPC   H5S 4957   6.235   3.848   7.642  0.8306  0.2078  1.0667
   37POPC   C26 4958   6.286   3.701   7.781 -0.1179  0.2741  0.3158
   37POPC   H6R 4959   6.397   3.712   7.776 -0.0430 -0.7400 -0.4759
   37POPC   H6S 4960   6.276   3.591   7.799  1.4324  0.3623  1.8584
   37POPC   C27 4961   6.210   3.758   7.910 -0.2793 -0.3808 -0.5892
   37POPC   H7R 4962   6.103   3.750   7.881 -0.5327  1.5136 -0.2494
   37POPC   H7S 4963   6.243   3.864   7.917 -2.1539  0.2251 -0.5473
   37POPC   C28 4964   6.247   3.678   8.032 -0.4943  0.1560  0.1004
   37POPC   H8R 4965   6.358   3.671   8.024 -0.5925 -1.1467 -0.1497
   37POPC   H8S 4966   6.222   3.570   8.029  1.0258 -0.1891 -0.5088
   37POPC   C29 4967   6.204   3.744   8.162  0.8836  0.7869  0.3545
   37POPC   H91 4968   6.248   3.841   8.189  0.2615  0.5614  2.2751
   37POPC  C210 4969   6.118   3.681   8.249 -0.2785  0.4135  0.7844
   37POPC  H101 4970   6.082   3.731   8.339 -0.5880 -0.2841  1.0524
   37POPC  C211 4971   6.054   3.544   8.221 -0.3849  0.3142 -0.1441
   37POPC  H11R 4972   6.121   3.463   8.256  1.7715  1.0116 -2.5377
   37POPC  H11S 4973   6.043   3.540   8.111  0.3713 -1.1813 -0.1778
   37POPC  C212 4974   5.914   3.547   8.279  0.7564 -0.3745 -0.1318
   37POPC  H12R 4975   5.876   3.644   8.239  2.8448  0.3287 -0.4266
   37POPC  H12S 4976   5.893   3.541   8.388  0.4468  0.3270 -0.1457
   37POPC  C213 4977   5.818   3.439   8.211 -0.7944 -0.8421 -0.3586
   37POPC  H13R 4978   5.830   3.338   8.256  0.7651 -0.9364 -0.9652
   37POPC  H13S 4979   5.838   3.438   8.101 -0.1184  0.9980 -0.2662
   37POPC  C214 4980   5.664   3.474   8.221  0.1145 -0.0564 -0.0535
   37POPC  H14R 4981   5.603   3.393   8.177 -1.9564 -0.0432  2.6367
   37POPC  H14S 4982   5.638   3.567   8.166  1.2211  0.8533  0.9346
   37POPC  C215 4983   5.617   3.477   8.371  0.7918  0.9458  0.2824
   37POPC  H15R 4984   5.686   3.534   8.437  0.7586  3.0708 -1.4739
   37POPC  H15S 4985   5.605   3.370   8.398  1.6502  0.4265 -1.2827
   37POPC  C216 4986   5.481   3.541   8.391 -0.0992 -0.3747  0.1116
   37POPC  H16R 4987   5.408   3.495   8.321  0.5993 -1.9291  0.3949
   37POPC  H16S 4988   5.484   3.652   8.381 -0.8734 -0.1558  2.0851
   37POPC  C217 4989   5.432   3.519   8.534  0.0058  0.7027  1.1169
   37POPC  H17R 4990   5.461   3.420   8.576 -0.5955  0.7562  1.6836
   37POPC  H17S 4991   5.321   3.509   8.535  0.0797 -0.2751  0.3475
   37POPC  C218 4992   5.478   3.627   8.632  0.1266  0.8387 -0.0477
   37POPC  H18R 4993   5.582   3.664   8.614  0.3134  1.5194  2.2731
   37POPC  H18S 4994   5.463   3.597   8.738 -1.1034  0.8378 -0.2186
   37POPC  H18T 4995   5.416   3.719   8.620 -1.3595  0.1707  2.1423
   37POPC   C33 4996   5.883   3.413   7.329 -0.0971  0.1151 -0.0890
   37POPC   H3X 4997   5.994   3.409   7.321 -0.0330 -0.1725  0.8447
   37POPC   H3Y 4998   5.838   3.329   7.385  1.9973 -0.0136  1.4689
   37POPC   C34 4999   5.848   3.548   7.401 -0.2505 -0.3611  0.6681
   37POPC   H4X 5000   5.738   3.560   7.406  0.0454  2.2903  2.1393
   37POPC   H4Y 5001   5.899   3.634   7.351  0.9925 -1.0765  0.6780
   37POPC   C35 5002   5.893   3.542   7.546  0.2848  0.1923  0.2342
   37POPC   H5X 5003   6.001   3.535   7.569  0.4508  1.4455 -0.1318
   37POPC   H5Y 5004   5.839   3.450   7.578 -0.6108 -0.5050 -3.0859
   37POPC   C36 5005   5.836   3.656   7.616  0.3156 -0.2277  0.0508
   37POPC   H6X 5006   5.729   3.660   7.587 -0.0908 -1.7948  1.2567
   37POPC   H6Y 5007   5.879   3.756   7.597  0.1495  0.5335  3.5184
   37POPC   C37 5008   5.831   3.642   7.768  0.4317 -0.1185 -0.4039
   37POPC   H7X 5009   5.933   3.606   7.795  0.7641  0.7396 -0.5285
   37POPC   H7Y 5010   5.755   3.564   7.790  0.5940 -0.3095 -0.5193
   37POPC   C38 5011   5.809   3.779   7.835 -0.2585  0.4678  0.7519
   37POPC   H8X 5012   5.759   3.853   7.768 -1.5391 -1.6296 -0.6575
   37POPC   H8Y 5013   5.898   3.839   7.864  0.0849  0.3753 -0.0978
   37POPC   C39 5014   5.728   3.761   7.964 -0.6447 -0.7467  0.8925
   37POPC   H9X 5015   5.788   3.691   8.026 -0.9460 -1.1148  0.7659
   37POPC   H9Y 5016   5.628   3.718   7.943 -0.6115 -0.3799 -0.0549
   37POPC  C310 5017   5.708   3.884   8.049 -0.1968 -0.1376 -0.2315
   37POPC  H10X 5018   5.671   3.971   7.992 -1.1506  0.0121  0.5992
   37POPC  H10Y 5019   5.805   3.914   8.093 -0.8789  1.8421 -0.0303
   37POPC  C311 5020   5.597   3.851   8.155  0.0277 -0.4714  0.4543
   37POPC  H11X 5021   5.651   3.785   8.226  1.4216  1.3914  1.1703
   37POPC  H11Y 5022   5.524   3.789   8.099 -1.5945 -0.9217  2.9793
   37POPC  C312 5023   5.537   3.975   8.228  0.4025 -0.5391  0.0940
   37POPC  H12X 5024   5.626   4.035   8.256  1.4707 -1.5491 -1.0638
   37POPC  H12Y 5025   5.481   3.942   8.318  1.1442 -2.8105 -0.2230
   37POPC  C313 5026   5.440   4.058   8.134  0.0966  0.1066 -0.2569
   37POPC  H13X 5027   5.504   4.096   8.052 -0.4028 -3.0507 -2.2080
   37POPC  H13Y 5028   5.390   4.136   8.195 -1.6395 -0.7364 -0.5647
   37POPC  C314 5029   5.332   3.969   8.072 -0.0915 -0.0726  0.6437
   37POPC  H14X 5030   5.277   3.905   8.144 -0.9690 -0.5968 -0.4789
   37POPC  H14Y 5031   5.373   3.895   7.999 -0.9421  0.3778 -0.3040
   37POPC  C315 5032   5.221   4.047   7.992  0.3545  0.4634  0.2982
   37POPC  H15X 5033   5.143   4.082   8.063 -0.6433  0.4554 -0.7748
   37POPC  H15Y 5034   5.185   3.972   7.918 -1.3767  1.0743  0.5116
   37POPC  C316 5035   5.264   4.170   7.918 -0.2769  0.6548 -0.2054
   37POPC  H16X 5036   5.341   4.146   7.842  2.0738  0.5640  2.1234
   37POPC  H16Y 5037   5.310   4.247   7.982  1.0714 -0.2734 -0.0309
   37POPC  H16Z 5038   5.176   4.229   7.883 -1.1084  0.2747  1.1682
   38POPC     N 5039   0.471   0.197   6.392  0.1844  0.2172  0.6026
   38POPC   C12 5040   0.337   0.241   6.329  0.0777 -0.7707 -0.2950
   38POPC  H12A 5041   0.359   0.290   6.235 -1.8895  0.1815 -0.2887
   38POPC  H12B 5042   0.290   0.318   6.389  1.8673  0.1729 -0.0522
   38POPC   C13 5043   0.463   0.121   6.522 -0.2655 -0.3660  0.2697
   38POPC  H13A 5044   0.557   0.133   6.574 -0.5953  1.6791  0.4352
   38POPC  H13B 5045   0.389   0.171   6.584  0.8823 -0.3665  1.6733
   38POPC  H13C 5046   0.440   0.016   6.516  1.7899 -0.8009 -0.2493
   38POPC   C14 5047   0.549   0.113   6.288 -0.1001  0.0889  0.2349
   38POPC  H14A 5048   0.598   0.178   6.217 -0.0456 -2.0091 -1.7192
   38POPC  H14B 5049   0.626   0.056   6.339  0.0311 -2.1111 -2.3061
   38POPC  H14C 5050   0.488   0.038   6.240 -1.9006  1.2682  0.6340
   38POPC   C15 5051   0.562   0.316   6.411  0.2718  0.3426  0.8519
   38POPC  H15A 5052   0.580   0.377   6.324  1.7008  0.4120  1.1686
   38POPC  H15B 5053   0.661   0.290   6.448 -0.4158 -1.8020  1.2098
   38POPC  H15C 5054   0.521   0.374   6.493  0.4441  1.0854  0.4241
   38POPC   C11 5055   0.228   0.130   6.321  0.6972  0.2519  0.1573
   38POPC  H11A 5056   0.134   0.174   6.281  1.9488  1.4174 -1.6093
   38POPC  H11B 5057   0.208   0.114   6.429  0.8549  1.2243  0.3369
   38POPC     P 5058   0.256  -0.130   6.287  0.1664  0.3309 -0.0029
   38POPC   O13 5059   0.333  -0.214   6.184 -0.1606 -1.0745 -0.2886
   38POPC   O14 5060   0.117  -0.163   6.301 -0.5343  0.0210  0.0721
   38POPC   O12 5061   0.267   0.018   6.242 -0.2427 -0.1385  0.1277
   38POPC   O11 5062   0.327  -0.135   6.428  0.3076  0.3311 -0.5819
   38POPC    C1 5063   0.310  -0.249   6.519 -0.1644  0.5779 -0.0001
   38POPC    HA 5064   0.304  -0.347   6.466 -0.9910  0.8952 -0.4917
   38POPC    HB 5065   0.221  -0.238   6.585 -0.1361  2.2636 -0.2292
   38POPC    C2 5066   0.442  -0.259   6.595 -0.0743  0.0584  0.6813
   38POPC    HS 5067   0.449  -0.355   6.651  0.4122 -0.1675  0.2337
   38POPC   O21 5068   0.454  -0.145   6.687  0.3553 -0.6391  0.0711
   38POPC   C21 5069   0.388  -0.158   6.800  0.1076 -0.7055 -0.1101
   38POPC   O22 5070   0.322  -0.256   6.823  0.6155  0.1238 -0.0151
   38POPC   C22 5071   0.406  -0.040   6.894 -0.0890  0.1956 -0.0192
   38POPC   H2R 5072   0.358   0.047   6.843  1.0506 -0.1698 -1.7569
   38POPC   H2S 5073   0.516  -0.025   6.903  0.0205 -0.9988  0.6323
   38POPC    C3 5074   0.563  -0.271   6.504 -0.4686  0.2921  0.1306
   38POPC    HX 5075   0.567  -0.186   6.433  2.2347  0.0292 -0.0832
   38POPC    HY 5076   0.553  -0.368   6.449  1.5205  1.1863 -1.8764
   38POPC   O31 5077   0.685  -0.277   6.571  0.1427 -0.2258 -0.4826
   38POPC   C31 5078   0.760  -0.166   6.585 -0.1234  0.5711 -0.2089
   38POPC   O32 5079   0.717  -0.057   6.553  0.0241 -0.8054 -0.0124
   38POPC   C32 5080   0.891  -0.200   6.661  0.7198  0.4558  0.6108
   38POPC   H2X 5081   0.977  -0.168   6.598  0.4683 -0.4112 -0.1716
   38POPC   H2Y 5082   0.908  -0.309   6.675  0.2453  0.2876 -0.1212
   38POPC   C23 5083   0.349  -0.063   7.038  0.1831  0.0307 -0.8385
   38POPC   H3R 5084   0.399   0.011   7.104 -1.1838  1.1899 -1.0810
   38POPC   H3S 5085   0.373  -0.167   7.070  0.6189  0.9423  1.9080
   38POPC   C24 5086   0.199  -0.058   7.038  0.3653  0.5069  0.0464
   38POPC   H4R 5087   0.157  -0.110   6.948 -0.8352  0.4957  0.6102
   38POPC   H4S 5088   0.163   0.046   7.031 -1.1264 -0.0200 -0.3859
   38POPC   C25 5089   0.161  -0.121   7.172  0.0809  0.4033  0.8903
   38POPC   H5R 5090   0.219  -0.067   7.250  0.6147  0.2429  0.6071
   38POPC   H5S 5091   0.194  -0.226   7.189 -0.6314 -0.7871 -4.0833
   38POPC   C26 5092   0.011  -0.099   7.200 -0.3390  0.0892  1.1254
   38POPC   H6R 5093  -0.046  -0.142   7.116 -0.7197 -0.9216  1.8880
   38POPC   H6S 5094  -0.010   0.008   7.223  1.9552  0.8589 -0.2332
   38POPC   C27 5095  -0.042  -0.180   7.321 -0.6212 -0.5791  0.6427
   38POPC   H7R 5096   0.009  -0.279   7.327 -1.1237 -0.8696  0.1788
   38POPC   H7S 5097  -0.151  -0.198   7.306 -0.5103  0.9537 -2.2386
   38POPC   C28 5098  -0.031  -0.102   7.453  0.3098 -0.6852 -0.3519
   38POPC   H8R 5099  -0.103  -0.018   7.448  0.0049 -1.0209 -1.9970
   38POPC   H8S 5100   0.069  -0.053   7.453 -0.7052  1.4285 -0.8037
   38POPC   C29 5101  -0.050  -0.183   7.577 -0.4316  0.0418 -0.4602
   38POPC   H91 5102  -0.010  -0.283   7.555  0.3111  0.4996 -1.2101
   38POPC  C210 5103  -0.090  -0.163   7.698  0.4400  1.2403  0.2600
   38POPC  H101 5104  -0.084  -0.246   7.770 -3.4170  1.1811  0.6138
   38POPC  C211 5105  -0.143  -0.036   7.755 -0.9134  0.6544  0.3592
   38POPC  H11R 5106  -0.221  -0.062   7.829 -0.8143 -1.0831 -0.1328
   38POPC  H11S 5107  -0.180   0.032   7.675  0.0887  2.7120  1.5991
   38POPC  C212 5108  -0.037   0.052   7.821  0.0875 -0.3523 -0.0223
   38POPC  H12R 5109   0.059   0.063   7.765 -0.5853 -0.0916 -1.1327
   38POPC  H12S 5110  -0.010   0.005   7.918 -3.2311 -1.0813  0.6164
   38POPC  C213 5111  -0.103   0.189   7.858  0.3334  0.3355 -0.5679
   38POPC  H13R 5112  -0.207   0.183   7.899  1.2833 -0.6087  1.7908
   38POPC  H13S 5113  -0.104   0.234   7.757  1.3069  0.0916 -0.6907
   38POPC  C214 5114  -0.019   0.279   7.952 -0.0346  0.4651  0.1980
   38POPC  H14R 5115  -0.057   0.384   7.956 -0.3282  0.3985 -0.7066
   38POPC  H14S 5116   0.080   0.288   7.903 -0.9849 -0.8870 -2.0569
   38POPC  C215 5117  -0.016   0.225   8.099 -0.3272  0.3376 -0.4523
   38POPC  H15R 5118   0.018   0.120   8.111 -2.4975 -0.2765  0.7309
   38POPC  H15S 5119  -0.120   0.222   8.138 -0.5221 -2.2628 -1.1353
   38POPC  C216 5120   0.064   0.311   8.201  0.5499  0.5496  0.3033
   38POPC  H16R 5121   0.016   0.410   8.216 -0.9748  0.2381 -2.2352
   38POPC  H16S 5122   0.166   0.337   8.166  0.5326  0.0989 -0.0823
   38POPC  C217 5123   0.066   0.250   8.336  0.0320  0.0324  0.2314
   38POPC  H17R 5124   0.118   0.152   8.328  0.4201  0.1954  0.7696
   38POPC  H17S 5125  -0.042   0.236   8.359  0.4442 -0.3480  2.0412
   38POPC  C218 5126   0.128   0.329   8.454 -0.0564 -0.5364  0.5430
   38POPC  H18R 5127   0.114   0.265   8.544 -0.0215 -1.7902 -0.3242
   38POPC  H18S 5128   0.085   0.431   8.455  1.6916  0.2309 -0.6971
   38POPC  H18T 5129   0.238   0.333   8.446 -0.0896 -0.7808 -0.0700
   38POPC   C33 5130   0.889  -0.137   6.800  0.5522  0.0893 -0.1944
   38POPC   H3X 5131   0.895  -0.027   6.782  2.7612 -0.2796 -1.9198
   38POPC   H3Y 5132   0.987  -0.165   6.845  0.4136 -0.3306 -0.1542
   38POPC   C34 5133   0.786  -0.189   6.899  0.9438 -0.1548  0.0011
   38POPC   H4X 5134   0.795  -0.300   6.909  0.1016 -0.0581  2.1245
   38POPC   H4Y 5135   0.686  -0.181   6.853  0.5605 -0.4750  0.7666
   38POPC   C35 5136   0.789  -0.119   7.035 -0.0093  0.2185  0.5867
   38POPC   H5X 5137   0.766  -0.010   7.028 -0.0106  0.1522 -0.5526
   38POPC   H5Y 5138   0.893  -0.132   7.072  0.2471 -1.0067 -0.5167
   38POPC   C36 5139   0.697  -0.185   7.136  0.1468 -0.5648 -0.3985
   38POPC   H6X 5140   0.745  -0.280   7.168  0.0476  0.1405  1.9814
   38POPC   H6Y 5141   0.596  -0.197   7.093  0.7628  2.8673 -2.9675
   38POPC   C37 5142   0.688  -0.097   7.262  0.0154  0.5266  0.0286
   38POPC   H7X 5143   0.638  -0.001   7.240 -0.7255  0.0288 -0.4924
   38POPC   H7Y 5144   0.787  -0.066   7.301 -0.3064 -1.1691  2.3464
   38POPC   C38 5145   0.622  -0.163   7.388  0.9905  0.4716  0.9098
   38POPC   H8X 5146   0.637  -0.101   7.479  0.6486  0.7725  0.7637
   38POPC   H8Y 5147   0.665  -0.262   7.412 -0.1896 -0.1952  0.3109
   38POPC   C39 5148   0.466  -0.151   7.392 -0.0345  0.4518  0.1422
   38POPC   H9X 5149   0.426  -0.225   7.319  1.2540 -0.0791 -0.0429
   38POPC   H9Y 5150   0.424  -0.051   7.370 -1.4546  0.1577  1.4272
   38POPC  C310 5151   0.397  -0.212   7.519 -0.1554  0.2493 -0.5333
   38POPC  H10X 5152   0.446  -0.303   7.559  1.3420  0.7566 -1.1760
   38POPC  H10Y 5153   0.290  -0.232   7.495  0.5760 -0.5978 -3.2874
   38POPC  C311 5154   0.388  -0.121   7.628 -0.3402 -0.3532  0.4516
   38POPC  H11X 5155   0.346  -0.024   7.594 -0.6341  0.6135  3.4410
   38POPC  H11Y 5156   0.486  -0.095   7.672 -0.8083  1.3243  0.5666
   38POPC  C312 5157   0.312  -0.184   7.739 -0.4826  1.1351 -0.4401
   38POPC  H12X 5158   0.338  -0.292   7.746 -0.0184  1.3064  0.4529
   38POPC  H12Y 5159   0.205  -0.188   7.710 -0.7603  2.6192  0.3415
   38POPC  C313 5160   0.342  -0.116   7.872  0.2889  0.7283 -0.2308
   38POPC  H13X 5161   0.339  -0.005   7.860 -0.5260  0.8010  0.5690
   38POPC  H13Y 5162   0.443  -0.137   7.913  0.8846  2.8374 -0.5794
   38POPC  C314 5163   0.249  -0.161   7.983 -0.3949 -0.2827  0.1175
   38POPC  H14X 5164   0.258  -0.271   7.994 -1.5067 -0.2584  1.4704
   38POPC  H14Y 5165   0.144  -0.147   7.948 -0.3764 -0.2050  0.0928
   38POPC  C315 5166   0.280  -0.092   8.111 -0.1196 -0.1956  1.1751
   38POPC  H15X 5167   0.287   0.018   8.096 -0.8910 -0.5449 -2.0675
   38POPC  H15Y 5168   0.377  -0.133   8.144  0.1775  0.2652  0.8780
   38POPC  C316 5169   0.194  -0.119   8.233 -0.0544  0.0434  0.0746
   38POPC  H16X 5170   0.094  -0.072   8.217 -0.8269 -1.5885 -0.0115
   38POPC  H16Y 5171   0.247  -0.068   8.316  0.1513 -2.6052  1.6415
   38POPC  H16Z 5172   0.196  -0.224   8.269  0.5705  0.9743  2.8754
   39POPC     N 5173   4.314   4.342   6.138 -0.0051 -0.4182  0.2944
   39POPC   C12 5174   4.439   4.272   6.185  0.0137 -0.1494 -0.1357
   39POPC  H12A 5175   4.409   4.220   6.275  2.0069 -1.0873  0.0131
   39POPC  H12B 5176   4.514   4.349   6.199  0.6251 -1.1787  2.5042
   39POPC   C13 5177   4.206   4.240   6.111 -0.1736 -0.3735  0.3190
   39POPC  H13A 5178   4.112   4.286   6.084  0.2520  0.0334 -0.4745
   39POPC  H13B 5179   4.246   4.175   6.035  0.9811  0.0471  0.5444
   39POPC  H13C 5180   4.187   4.195   6.207 -1.9256  0.6916  0.4909
   39POPC   C14 5181   4.269   4.440   6.243 -0.1468 -0.3668  0.4044
   39POPC  H14A 5182   4.338   4.523   6.248  0.0811 -0.3787 -1.8444
   39POPC  H14B 5183   4.176   4.484   6.210  0.0608 -1.9369 -2.4989
   39POPC  H14C 5184   4.251   4.400   6.342 -0.5114  1.8562  1.2606
   39POPC   C15 5185   4.332   4.406   6.003 -0.1761 -0.1600  0.1824
   39POPC  H15A 5186   4.242   4.431   5.950 -0.1001 -0.6671 -0.1911
   39POPC  H15B 5187   4.370   4.333   5.934 -0.9724 -0.2144 -0.1933
   39POPC  H15C 5188   4.399   4.491   6.014  2.0611 -1.9589  1.0214
   39POPC   C11 5189   4.490   4.147   6.108 -0.2435 -0.0162 -0.0906
   39POPC  H11A 5190   4.595   4.120   6.135 -0.7279 -3.0907 -1.1373
   39POPC  H11B 5191   4.500   4.186   6.005  0.0323  0.2087  0.0197
   39POPC     P 5192   4.384   3.946   6.235  0.0562 -0.3118  0.4116
   39POPC   O13 5193   4.474   3.829   6.223 -1.0635  0.4081  0.0451
   39POPC   O14 5194   4.241   3.926   6.261  0.4588  0.5840 -0.3732
   39POPC   O12 5195   4.400   4.039   6.108  0.1460 -0.2933 -0.1052
   39POPC   O11 5196   4.430   4.038   6.353  0.0133 -0.8393  0.1220
   39POPC    C1 5197   4.568   4.052   6.401 -0.1313  0.4243  0.3548
   39POPC    HA 5198   4.582   4.160   6.424  0.2142  0.2576  0.9617
   39POPC    HB 5199   4.642   4.019   6.326 -0.7290 -1.5244  0.6096
   39POPC    C2 5200   4.598   3.986   6.540  0.4238 -0.0825  0.9897
   39POPC    HS 5201   4.586   3.879   6.516  0.4313  0.5226 -1.8808
   39POPC   O21 5202   4.510   4.039   6.637  0.3442 -0.1789  0.2936
   39POPC   C21 5203   4.475   3.947   6.732 -0.8783 -0.2914 -0.6876
   39POPC   O22 5204   4.498   3.827   6.727 -1.2834  0.3388  0.5094
   39POPC   C22 5205   4.398   4.009   6.848 -0.4661 -0.0323 -0.1210
   39POPC   H2R 5206   4.452   4.105   6.868 -0.4507 -0.2087  0.6884
   39POPC   H2S 5207   4.400   3.939   6.933 -1.7159  0.4238  0.2941
   39POPC    C3 5208   4.742   4.015   6.572  0.1363 -0.3834 -0.0757
   39POPC    HX 5209   4.750   4.123   6.596 -0.9170 -0.3380  0.1047
   39POPC    HY 5210   4.808   3.985   6.488  2.2435  0.6979  1.1543
   39POPC   O31 5211   4.773   3.942   6.692  0.0093 -0.5848  0.2814
   39POPC   C31 5212   4.895   3.957   6.739  0.0845 -0.2881 -0.2582
   39POPC   O32 5213   4.984   4.025   6.693 -0.0950 -0.0831  0.4539
   39POPC   C32 5214   4.902   3.898   6.878 -0.0824  0.0245  0.3093
   39POPC   H2X 5215   4.809   3.928   6.930 -0.4824  0.1285 -0.4561
   39POPC   H2Y 5216   4.901   3.788   6.864  0.3349 -0.1901  1.9268
   39POPC   C23 5217   4.245   4.020   6.819  0.0958 -0.3186 -0.6851
   39POPC   H3R 5218   4.191   3.925   6.838  0.6856 -0.1144  2.2627
   39POPC   H3S 5219   4.231   4.040   6.711  0.3218 -1.8601 -1.0038
   39POPC   C24 5220   4.172   4.128   6.905 -0.2581  0.0746  0.1962
   39POPC   H4R 5221   4.068   4.144   6.868 -0.1718 -0.8631 -0.4417
   39POPC   H4S 5222   4.229   4.213   6.861 -0.7689  0.0602 -0.4975
   39POPC   C25 5223   4.191   4.113   7.058 -0.3364  0.5352 -0.3730
   39POPC   H5R 5224   4.156   4.204   7.111  0.7435  0.4714  0.4674
   39POPC   H5S 5225   4.301   4.105   7.074 -0.6288 -1.7880  0.7628
   39POPC   C26 5226   4.118   3.991   7.113  0.0267 -0.8382 -0.4588
   39POPC   H6R 5227   4.174   3.945   7.198  0.6841  0.1214 -0.3676
   39POPC   H6S 5228   4.115   3.914   7.033  1.6633 -0.9509 -0.4172
   39POPC   C27 5229   3.964   4.025   7.138  0.0415 -0.6015  0.2228
   39POPC   H7R 5230   3.915   4.041   7.040 -1.4236  0.3626  1.0949
   39POPC   H7S 5231   3.957   4.114   7.205 -2.7829 -1.3184  0.9355
   39POPC   C28 5232   3.901   3.905   7.201  0.0086  0.0008 -0.4251
   39POPC   H8R 5233   3.948   3.870   7.295 -2.1516  0.1223  0.7194
   39POPC   H8S 5234   3.925   3.816   7.140  0.7724 -1.3715  1.8288
   39POPC   C29 5235   3.747   3.922   7.231  0.0312  0.4890  0.3544
   39POPC   H91 5236   3.711   4.013   7.181 -0.6080 -0.4698 -0.9337
   39POPC  C210 5237   3.675   3.859   7.325  0.5828  0.5444 -0.3542
   39POPC  H101 5238   3.567   3.877   7.336  0.5107  2.0365 -3.0530
   39POPC  C211 5239   3.712   3.756   7.430  0.4193  0.4167 -0.3352
   39POPC  H11R 5240   3.818   3.776   7.454  0.1909  0.5598  0.5510
   39POPC  H11S 5241   3.703   3.662   7.371 -0.2259  0.1147  0.2435
   39POPC  C212 5242   3.618   3.735   7.555  0.3570 -0.0595  0.1673
   39POPC  H12R 5243   3.512   3.735   7.524 -0.0797  0.4332  1.5944
   39POPC  H12S 5244   3.635   3.822   7.623  0.0900  0.0827  0.0524
   39POPC  C213 5245   3.664   3.613   7.635 -0.0394 -0.2137  0.8826
   39POPC  H13R 5246   3.771   3.613   7.665  1.0199 -2.9202 -2.5120
   39POPC  H13S 5247   3.645   3.523   7.572 -0.0720  1.3555 -1.4133
   39POPC  C214 5248   3.575   3.582   7.763  0.7303  0.4987 -0.1215
   39POPC  H14R 5249   3.585   3.668   7.832 -1.4789  1.8707 -1.4257
   39POPC  H14S 5250   3.611   3.486   7.806 -1.0370  0.5512  1.5154
   39POPC  C215 5251   3.424   3.570   7.732  0.3639  0.3600 -0.6941
   39POPC  H15R 5252   3.413   3.535   7.627 -0.7838 -1.1044 -0.1109
   39POPC  H15S 5253   3.370   3.666   7.751 -0.9956 -0.4915 -0.1812
   39POPC  C216 5254   3.361   3.451   7.807  0.0092 -0.1931  0.1533
   39POPC  H16R 5255   3.384   3.456   7.915  2.8958  3.4536 -0.5201
   39POPC  H16S 5256   3.425   3.363   7.788 -1.3244 -1.1452  0.0022
   39POPC  C217 5257   3.207   3.438   7.788  0.7369 -0.3386 -0.2360
   39POPC  H17R 5258   3.187   3.414   7.681  1.5723 -1.1195 -0.2273
   39POPC  H17S 5259   3.173   3.543   7.791  0.9519 -0.2962  1.0506
   39POPC  C218 5260   3.127   3.363   7.896  0.1193 -1.0366 -0.6954
   39POPC  H18R 5261   3.183   3.267   7.904  0.0844 -0.9862  0.2272
   39POPC  H18S 5262   3.025   3.339   7.861 -0.2689  0.4053 -0.5916
   39POPC  H18T 5263   3.138   3.414   7.994  1.3120 -2.1493 -0.2335
   39POPC   C33 5264   5.023   3.945   6.960  0.5860  0.6576  0.1986
   39POPC   H3X 5265   5.055   4.046   6.926  0.2414 -0.2701 -3.0476
   39POPC   H3Y 5266   5.104   3.874   6.931  1.0479  0.9407  0.7764
   39POPC   C34 5267   5.000   3.934   7.115  0.1606 -0.0053 -0.3002
   39POPC   H4X 5268   5.104   3.940   7.154  1.0667  1.9417 -2.8888
   39POPC   H4Y 5269   4.967   3.829   7.128  0.0876 -0.2860 -2.5649
   39POPC   C35 5270   4.908   4.034   7.174  0.1933 -0.1339  0.0637
   39POPC   H5X 5271   4.847   4.088   7.099  1.8839  0.1322 -1.1370
   39POPC   H5Y 5272   4.951   4.111   7.242 -0.6358  0.5967 -0.2139
   39POPC   C36 5273   4.813   3.957   7.270  0.6576  0.7135  0.4177
   39POPC   H6X 5274   4.866   3.882   7.332 -1.8807  0.4663  2.3714
   39POPC   H6Y 5275   4.740   3.901   7.207  0.7978 -0.3063  1.1531
   39POPC   C37 5276   4.729   4.043   7.361 -0.3469 -0.0173  0.0380
   39POPC   H7X 5277   4.646   3.981   7.401  0.1827 -0.3727  0.5979
   39POPC   H7Y 5278   4.681   4.134   7.319  0.1588  0.5774  0.7285
   39POPC   C38 5279   4.809   4.082   7.485  0.4477 -0.9999 -0.5070
   39POPC   H8X 5280   4.744   4.144   7.550  0.7487 -1.9727  0.7582
   39POPC   H8Y 5281   4.893   4.144   7.448 -0.1675  0.6966  0.9060
   39POPC   C39 5282   4.864   3.977   7.585  0.5761  0.9686  0.1102
   39POPC   H9X 5283   4.955   3.931   7.541 -0.3446  1.2554 -2.1236
   39POPC   H9Y 5284   4.793   3.895   7.608  1.7419 -0.3694 -0.9916
   39POPC  C310 5285   4.895   4.042   7.717 -0.2146  0.4013  0.4783
   39POPC  H10X 5286   4.919   4.149   7.700  1.1869 -0.2855 -2.1978
   39POPC  H10Y 5287   4.986   3.988   7.750 -1.2876 -2.2437 -0.7161
   39POPC  C311 5288   4.780   4.034   7.816  0.3379  0.0305 -0.7647
   39POPC  H11X 5289   4.779   3.930   7.854 -0.1792  0.2662 -0.1249
   39POPC  H11Y 5290   4.685   4.079   7.779 -1.1051 -0.6809  1.9326
   39POPC  C312 5291   4.807   4.127   7.939 -0.5980  0.2595  0.0780
   39POPC  H12X 5292   4.808   4.234   7.909  2.1365  0.1956 -0.1350
   39POPC  H12Y 5293   4.911   4.108   7.971 -0.1042  0.1408 -1.5139
   39POPC  C313 5294   4.715   4.105   8.057  0.2340 -0.0149  0.2524
   39POPC  H13X 5295   4.721   3.995   8.064 -1.5883 -0.1988 -0.7413
   39POPC  H13Y 5296   4.606   4.112   8.036  0.3593 -1.7682 -1.0664
   39POPC  C314 5297   4.764   4.180   8.175  0.2441 -0.0566  0.1413
   39POPC  H14X 5298   4.784   4.281   8.134 -1.5483 -0.5462 -2.0798
   39POPC  H14Y 5299   4.863   4.151   8.216 -0.3240  0.2123  1.7036
   39POPC  C315 5300   4.653   4.192   8.277 -0.4071  1.0027 -0.0224
   39POPC  H15X 5301   4.556   4.209   8.226 -2.1939  0.1460  2.9747
   39POPC  H15Y 5302   4.665   4.281   8.343 -0.4111  0.9341  0.0709
   39POPC  C316 5303   4.639   4.055   8.349  0.6876 -0.1407  0.0860
   39POPC  H16X 5304   4.631   3.972   8.275 -0.4566 -0.7293  0.8605
   39POPC  H16Y 5305   4.551   4.053   8.416  1.4950 -2.2163  1.1181
   39POPC  H16Z 5306   4.737   4.027   8.394  1.1253  2.1069  0.5870
   40POPC     N 5307   3.931   1.649   6.148  0.1846 -0.3878 -0.1934
   40POPC   C12 5308   3.871   1.622   6.290 -0.3749  0.9372 -0.1411
   40POPC  H12A 5309   3.769   1.657   6.290 -0.7472 -0.1290 -0.5364
   40POPC  H12B 5310   3.927   1.680   6.362 -1.5224  1.4140  0.3968
   40POPC   C13 5311   3.852   1.577   6.044  0.1498 -0.1320  0.5566
   40POPC  H13A 5312   3.841   1.472   6.066 -1.0857 -0.0864  0.2285
   40POPC  H13B 5313   3.745   1.592   6.053 -0.7189 -3.7709 -2.3806
   40POPC  H13C 5314   3.884   1.588   5.941  0.9684  1.2510  0.9523
   40POPC   C14 5315   3.927   1.797   6.110 -0.0826  0.5648  0.2182
   40POPC  H14A 5316   3.994   1.852   6.175 -1.5269  1.5254  0.9172
   40POPC  H14B 5317   3.962   1.823   6.012  1.7838  3.1306  1.4944
   40POPC  H14C 5318   3.832   1.848   6.123 -0.3768  0.3939 -1.1904
   40POPC   C15 5319   4.064   1.604   6.138 -0.0885  0.4863  0.2675
   40POPC  H15A 5320   4.126   1.672   6.195  0.7387 -2.5417  3.1419
   40POPC  H15B 5321   4.108   1.587   6.040 -2.1495 -0.8068 -0.4525
   40POPC  H15C 5322   4.073   1.505   6.181 -0.5166 -0.6751 -2.2446
   40POPC   C11 5323   3.858   1.476   6.348  0.5699 -0.1734  0.4989
   40POPC  H11A 5324   3.821   1.484   6.452  1.1414  0.1656  0.6798
   40POPC  H11B 5325   3.962   1.438   6.345  0.7593  0.2847  1.1701
   40POPC     P 5326   3.613   1.404   6.280  0.0520  0.5000 -0.0405
   40POPC   O13 5327   3.544   1.292   6.201  0.0406 -0.3959  0.3131
   40POPC   O14 5328   3.573   1.543   6.237 -0.2231  0.1800 -0.5892
   40POPC   O12 5329   3.773   1.396   6.267 -0.0558 -0.5409  0.3911
   40POPC   O11 5330   3.581   1.381   6.432  0.2606  0.5370  0.1855
   40POPC    C1 5331   3.632   1.256   6.482  0.2442 -0.0234  0.2359
   40POPC    HA 5332   3.739   1.273   6.506 -0.1737  0.5203  1.8064
   40POPC    HB 5333   3.616   1.168   6.416  1.4428  1.7914 -2.5638
   40POPC    C2 5334   3.569   1.227   6.623  0.8211 -0.1886  0.2589
   40POPC    HS 5335   3.632   1.146   6.666  0.7614 -0.0893  0.5348
   40POPC   O21 5336   3.426   1.202   6.605 -0.0235  0.3602 -0.6133
   40POPC   C21 5337   3.392   1.069   6.621  0.1085 -0.7964  0.0907
   40POPC   O22 5338   3.469   0.979   6.651 -0.0473 -0.6696  0.0524
   40POPC   C22 5339   3.242   1.043   6.603  0.5772  0.5581 -0.6915
   40POPC   H2R 5340   3.232   1.042   6.493 -0.2741 -2.9610 -0.6522
   40POPC   H2S 5341   3.183   1.131   6.637  1.4503  0.3142  1.5387
   40POPC    C3 5342   3.569   1.351   6.716 -0.3594  0.0919 -0.1813
   40POPC    HX 5343   3.510   1.425   6.657 -1.1209  0.3647  0.9133
   40POPC    HY 5344   3.669   1.398   6.725 -0.2809 -0.2590  0.8456
   40POPC   O31 5345   3.505   1.329   6.841  0.1746  0.5383 -0.0916
   40POPC   C31 5346   3.580   1.265   6.935 -0.6928  0.9596  0.4775
   40POPC   O32 5347   3.700   1.255   6.933 -0.0806 -0.4593  0.3118
   40POPC   C32 5348   3.492   1.204   7.046  0.7695  0.2370  0.4047
   40POPC   H2X 5349   3.491   1.096   7.019  1.4595  0.7749 -1.9540
   40POPC   H2Y 5350   3.390   1.237   7.016  0.3544 -1.7231 -0.3965
   40POPC   C23 5351   3.190   0.915   6.671  0.2961  0.5547  0.0495
   40POPC   H3R 5352   3.266   0.835   6.681 -0.5955 -0.3285 -0.2215
   40POPC   H3S 5353   3.109   0.880   6.603  0.4054  0.4493 -0.0266
   40POPC   C24 5354   3.132   0.948   6.812 -0.2925  0.3178 -0.8780
   40POPC   H4R 5355   3.039   0.898   6.846 -1.5965  2.3887 -1.3276
   40POPC   H4S 5356   3.106   1.055   6.818 -0.5974  0.1752  0.4385
   40POPC   C25 5357   3.232   0.899   6.922  0.3026 -0.0395 -0.2229
   40POPC   H5R 5358   3.332   0.898   6.874 -0.0476  0.6887 -0.9927
   40POPC   H5S 5359   3.205   0.800   6.963 -0.8906  1.3514  2.5261
   40POPC   C26 5360   3.226   0.994   7.048 -0.2978  0.6077 -0.3635
   40POPC   H6R 5361   3.232   1.102   7.024 -0.3419  0.8153  0.5305
   40POPC   H6S 5362   3.305   0.952   7.114 -0.9292 -0.1586 -0.0783
   40POPC   C27 5363   3.093   0.976   7.123 -0.4199  0.3065  0.5182
   40POPC   H7R 5364   3.081   0.868   7.147 -0.1458  0.2257  0.3046
   40POPC   H7S 5365   3.005   0.992   7.057 -0.0395  0.5349  0.0615
   40POPC   C28 5366   3.092   1.068   7.249 -0.3803  0.5477 -0.4325
   40POPC   H8R 5367   3.101   1.172   7.210 -1.0905  0.3782 -1.0727
   40POPC   H8S 5368   3.190   1.046   7.295 -0.4122 -1.5233 -1.2991
   40POPC   C29 5369   2.972   1.040   7.345  0.3640 -0.5940 -0.5053
   40POPC   H91 5370   2.872   1.059   7.305  0.4376 -2.5667 -1.6884
   40POPC  C210 5371   2.970   0.990   7.471  0.8204 -0.7313  1.0059
   40POPC  H101 5372   2.869   0.961   7.503  0.2065  0.2826  0.0302
   40POPC  C211 5373   3.088   0.945   7.559  0.2226 -0.0002  0.2991
   40POPC  H11R 5374   3.183   0.963   7.504 -0.5536  1.0247 -0.7444
   40POPC  H11S 5375   3.071   0.838   7.586 -0.8166  0.0818 -0.0160
   40POPC  C212 5376   3.100   1.049   7.670  0.5291 -0.1273  0.1253
   40POPC  H12R 5377   3.086   1.151   7.628 -0.6408 -1.4903 -2.9213
   40POPC  H12S 5378   3.195   1.036   7.726 -0.0503 -1.2434  0.8527
   40POPC  C213 5379   2.978   1.034   7.762  0.3008  0.3794 -0.9974
   40POPC  H13R 5380   2.890   1.050   7.697 -0.6634  0.9894  0.4397
   40POPC  H13S 5381   2.982   1.116   7.837 -0.1566  1.0357 -1.6787
   40POPC  C214 5382   2.971   0.893   7.826  0.2594 -0.5241 -0.3580
   40POPC  H14R 5383   3.057   0.868   7.892 -1.8070 -4.2445  1.0468
   40POPC  H14S 5384   2.964   0.808   7.756  2.2997  0.1760 -1.4605
   40POPC  C215 5385   2.845   0.887   7.914  0.8037  0.3489 -0.0312
   40POPC  H15R 5386   2.852   0.977   7.978 -0.9531  0.6322 -0.2179
   40POPC  H15S 5387   2.842   0.794   7.975  0.6523  0.2860 -0.1355
   40POPC  C216 5388   2.709   0.883   7.833 -0.9046 -0.3081  0.1578
   40POPC  H16R 5389   2.704   0.780   7.790  1.5166  0.6268 -2.4520
   40POPC  H16S 5390   2.726   0.939   7.739 -0.5686 -2.0971 -0.8822
   40POPC  C217 5391   2.588   0.931   7.913 -0.6226  0.1660 -0.1176
   40POPC  H17R 5392   2.615   1.027   7.963  1.2490 -0.4833  0.1489
   40POPC  H17S 5393   2.570   0.859   7.995  0.3979 -1.2397 -1.1120
   40POPC  C218 5394   2.466   0.960   7.826  0.2461  0.2146 -0.7508
   40POPC  H18R 5395   2.487   1.011   7.729  0.3020  2.6049  0.4797
   40POPC  H18S 5396   2.391   1.025   7.877 -1.3672 -0.9380 -1.6027
   40POPC  H18T 5397   2.405   0.868   7.811  0.9781 -0.6054  1.2039
   40POPC   C33 5398   3.529   1.246   7.188 -0.4349 -0.2773  0.7195
   40POPC   H3X 5399   3.446   1.233   7.261 -0.2267 -0.3238  0.9454
   40POPC   H3Y 5400   3.542   1.356   7.185 -0.7939 -0.2377  0.4924
   40POPC   C34 5401   3.654   1.178   7.255  0.2527  0.0326  0.0777
   40POPC   H4X 5402   3.738   1.213   7.192 -0.1295  1.0583  0.1378
   40POPC   H4Y 5403   3.650   1.069   7.232  0.9057  0.1181 -0.4743
   40POPC   C35 5404   3.682   1.207   7.400  0.4566  1.0263 -0.1605
   40POPC   H5X 5405   3.582   1.182   7.440  0.1876 -0.5277 -1.7796
   40POPC   H5Y 5406   3.692   1.318   7.410 -1.5340  1.2307 -0.2653
   40POPC   C36 5407   3.786   1.124   7.479  0.1886  0.5345 -0.1327
   40POPC   H6X 5408   3.889   1.160   7.460  1.0692 -2.3265 -1.0027
   40POPC   H6Y 5409   3.782   1.016   7.455  0.7308  0.8440 -1.6812
   40POPC   C37 5410   3.776   1.155   7.629  0.2012 -0.0129 -0.2732
   40POPC   H7X 5411   3.749   1.262   7.645 -1.0397  0.0896 -2.7705
   40POPC   H7Y 5412   3.867   1.123   7.684  1.2845 -0.2863 -2.1946
   40POPC   C38 5413   3.654   1.086   7.690 -0.7319  0.0208  0.0137
   40POPC   H8X 5414   3.660   0.980   7.657 -0.2969  0.9973 -3.2397
   40POPC   H8Y 5415   3.559   1.130   7.653  0.0889 -0.0640 -2.2474
   40POPC   C39 5416   3.662   1.103   7.840  0.3611  0.0233 -0.1590
   40POPC   H9X 5417   3.646   1.210   7.864 -0.7474 -0.4311  1.2546
   40POPC   H9Y 5418   3.759   1.080   7.889 -0.0450 -2.7463 -0.5223
   40POPC  C310 5419   3.560   1.026   7.924 -0.2263 -0.3176 -0.2067
   40POPC  H10X 5420   3.570   0.918   7.900 -1.0552 -0.4322 -0.0483
   40POPC  H10Y 5421   3.458   1.058   7.891  0.5406  2.1276 -0.3577
   40POPC  C311 5422   3.574   1.037   8.083 -0.2562 -0.5155 -0.1590
   40POPC  H11X 5423   3.682   1.035   8.108 -0.2865  0.4530  0.0777
   40POPC  H11Y 5424   3.531   0.941   8.118  0.1433 -0.9716 -0.9246
   40POPC  C312 5425   3.511   1.163   8.126  0.3380  0.0334  0.8068
   40POPC  H12X 5426   3.405   1.168   8.091 -0.1175 -0.8990  2.0034
   40POPC  H12Y 5427   3.561   1.257   8.093  0.7950 -0.2990  0.5584
   40POPC  C313 5428   3.506   1.180   8.279 -0.6438  0.4606 -0.7590
   40POPC  H13X 5429   3.596   1.156   8.339 -1.4149 -1.3521 -0.2913
   40POPC  H13Y 5430   3.439   1.097   8.313 -0.3817  1.9140  3.5775
   40POPC  C314 5431   3.436   1.302   8.338  0.1348  0.1569 -0.2146
   40POPC  H14X 5432   3.519   1.374   8.351 -0.7657  0.8746  1.7219
   40POPC  H14Y 5433   3.400   1.277   8.441  1.6329  1.3998  0.6321
   40POPC  C315 5434   3.331   1.371   8.250  0.4886 -0.1726 -0.6993
   40POPC  H15X 5435   3.359   1.384   8.144 -1.0628 -2.7129 -1.4792
   40POPC  H15Y 5436   3.303   1.466   8.300 -4.7194 -2.4000  1.0836
   40POPC  C316 5437   3.197   1.291   8.257 -0.7865  0.1602 -0.4553
   40POPC  H16X 5438   3.188   1.208   8.185  3.0401 -0.2068 -0.6346
   40POPC  H16Y 5439   3.103   1.349   8.243 -0.9085  0.6156  1.9202
   40POPC  H16Z 5440   3.192   1.252   8.361  1.8446  1.2549  0.1468
   41CHL1    C3 5441   2.573   4.710   9.974  0.2188  0.0897 -0.3793
   41CHL1    H3 5442   2.658   4.648   9.937 -0.1571 -0.0691 -0.9843
   41CHL1    O3 5443   2.598   4.733  10.106 -0.1638 -0.2244 -0.4835
   41CHL1   H3' 5444   2.514   4.758  10.145 -0.6145  0.7224 -1.9979
   41CHL1    C4 5445   2.563   4.840   9.890 -0.9695 -0.1991  0.2704
   41CHL1   H4A 5446   2.489   4.910   9.933  0.3429  2.2523 -1.2997
   41CHL1   H4B 5447   2.660   4.893   9.896 -1.6509  1.3460 -2.0241
   41CHL1    C5 5448   2.527   4.806   9.745  0.3265 -0.6261  0.1401
   41CHL1    C6 5449   2.613   4.844   9.649 -0.8446 -0.3793  0.2646
   41CHL1    H6 5450   2.702   4.899   9.682  0.1087 -1.2180 -0.8498
   41CHL1    C7 5451   2.596   4.813   9.501  0.2826  0.0396 -0.4263
   41CHL1   H7A 5452   2.628   4.905   9.447 -1.0792  1.0599  0.4729
   41CHL1   H7B 5453   2.661   4.729   9.468 -1.5699 -1.6432  0.1434
   41CHL1    C8 5454   2.449   4.777   9.465  0.1231 -0.6553  0.8234
   41CHL1    H8 5455   2.391   4.871   9.470  2.3375  0.6866  1.7428
   41CHL1   C14 5456   2.436   4.708   9.329  0.6929  0.2357  0.2994
   41CHL1   H14 5457   2.485   4.610   9.346 -1.5686 -0.7218  1.5474
   41CHL1   C15 5458   2.511   4.774   9.213 -0.3060 -0.8430  0.5443
   41CHL1  H15A 5459   2.513   4.885   9.213  2.6648 -0.7962 -2.5779
   41CHL1  H15B 5460   2.617   4.741   9.218  0.7999  2.5847  1.6993
   41CHL1   C16 5461   2.437   4.723   9.083  0.1962 -0.0958 -1.0406
   41CHL1  H16A 5462   2.394   4.818   9.045  0.5677  0.2855 -0.5083
   41CHL1  H16B 5463   2.503   4.672   9.010  2.8651  1.5189  0.1534
   41CHL1   C17 5464   2.325   4.623   9.132 -0.4333 -0.0214 -0.4566
   41CHL1   H17 5465   2.379   4.527   9.136  1.7227  1.1864  0.1826
   41CHL1   C13 5466   2.292   4.673   9.278 -0.4355 -0.2294  1.0153
   41CHL1   C18 5467   2.207   4.803   9.269 -0.3546 -0.4648 -0.5409
   41CHL1  H18A 5468   2.207   4.870   9.358 -1.1336 -0.3612 -0.6082
   41CHL1  H18B 5469   2.259   4.867   9.195  0.2271  1.2636  1.3153
   41CHL1  H18C 5470   2.104   4.776   9.236  0.0105 -1.2020 -1.0967
   41CHL1   C12 5471   2.238   4.582   9.382 -0.1334 -0.4690  0.3292
   41CHL1  H12A 5472   2.132   4.555   9.368 -0.0145 -1.6523  1.5387
   41CHL1  H12B 5473   2.297   4.488   9.393 -0.5875 -0.4639  3.2057
   41CHL1   C11 5474   2.246   4.632   9.526  0.6222 -0.1180  0.2146
   41CHL1  H11A 5475   2.182   4.723   9.532 -0.1701 -0.5033 -1.9954
   41CHL1  H11B 5476   2.202   4.570   9.607  0.3879  1.4083  1.2955
   41CHL1    C9 5477   2.386   4.677   9.571 -0.9133 -0.0052  0.1550
   41CHL1    H9 5478   2.450   4.587   9.555 -0.9465  0.2870 -1.6906
   41CHL1   C10 5479   2.398   4.730   9.720  0.0647  0.1794  0.0061
   41CHL1   C19 5480   2.292   4.845   9.746 -0.3419 -1.2540 -0.2340
   41CHL1  H19A 5481   2.279   4.876   9.851 -0.6386  1.2430 -0.9762
   41CHL1  H19B 5482   2.311   4.934   9.683 -0.7207 -2.3698 -1.9831
   41CHL1  H19C 5483   2.199   4.792   9.714  0.2700 -1.4286 -1.8044
   41CHL1    C1 5484   2.386   4.609   9.822 -0.8193 -0.0771  0.0107
   41CHL1   H1A 5485   2.284   4.567   9.830 -0.2000 -1.7186 -0.4300
   41CHL1   H1B 5486   2.446   4.532   9.769  0.5525  0.2813  1.0282
   41CHL1    C2 5487   2.437   4.629   9.964  0.0904 -0.0536  0.6609
   41CHL1   H2A 5488   2.452   4.531  10.014  0.7948 -1.8661 -2.9551
   41CHL1   H2B 5489   2.358   4.684  10.019  0.3134  1.1437 -0.1817
   41CHL1   C20 5490   2.206   4.600   9.038  0.0041  0.0904 -0.2091
   41CHL1   H20 5491   2.118   4.661   9.067 -1.3583 -1.0744 -1.8268
   41CHL1   C21 5492   2.165   4.448   9.062  0.0985  0.0107  0.1168
   41CHL1  H21A 5493   2.069   4.429   9.011  0.3422 -1.9049  0.3220
   41CHL1  H21B 5494   2.149   4.427   9.170 -0.4523 -0.1689 -0.0005
   41CHL1  H21C 5495   2.248   4.384   9.025  1.0734  1.6917 -0.7026
   41CHL1   C22 5496   2.243   4.642   8.886  0.0907  0.3449 -0.3309
   41CHL1  H22A 5497   2.256   4.752   8.889  2.2540  0.1672 -1.7785
   41CHL1  H22B 5498   2.337   4.588   8.861  0.6850  1.1547  0.1417
   41CHL1   C23 5499   2.133   4.605   8.785 -0.5657  0.0169  0.2838
   41CHL1  H23A 5500   2.098   4.502   8.810 -2.2614  0.3103 -0.8221
   41CHL1  H23B 5501   2.048   4.675   8.795 -0.2393  0.7249 -1.6232
   41CHL1   C24 5502   2.177   4.628   8.636  1.0047  0.4023 -0.4031
   41CHL1  H24A 5503   2.158   4.736   8.615  0.7033  0.6001  0.8029
   41CHL1  H24B 5504   2.285   4.604   8.628  1.1316  1.1282 -0.9430
   41CHL1   C25 5505   2.099   4.543   8.539  0.0638 -0.7233 -0.1932
   41CHL1   H25 5506   1.991   4.537   8.566 -0.5099 -2.4363 -2.7118
   41CHL1   C26 5507   2.102   4.620   8.406 -0.2700 -0.1877 -0.1074
   41CHL1  H26A 5508   2.031   4.567   8.339  0.7067 -1.3245 -0.2801
   41CHL1  H26B 5509   2.083   4.729   8.413  0.8035  0.0746 -1.1890
   41CHL1  H26C 5510   2.204   4.617   8.361  1.1287 -2.4161  3.0086
   41CHL1   C27 5511   2.147   4.398   8.528 -0.7635  0.2709  0.3681
   41CHL1  H27A 5512   2.247   4.393   8.479 -0.9211 -1.4234  0.1942
   41CHL1  H27B 5513   2.145   4.350   8.628  0.0813  0.0879  0.3057
   41CHL1  H27C 5514   2.073   4.357   8.456  2.4223 -2.3205 -1.6054
   42CHL1    C3 5515   2.649   4.283   9.975  0.6216  0.2761 -0.4291
   42CHL1    H3 5516   2.561   4.350   9.972 -0.1239 -0.6785 -0.3259
   42CHL1    O3 5517   2.672   4.248  10.108  0.2747  0.4564  0.1944
   42CHL1   H3' 5518   2.741   4.182  10.104 -0.7164 -0.7203  1.8239
   42CHL1    C4 5519   2.631   4.155   9.890 -0.1276  0.7579 -0.1579
   42CHL1   H4A 5520   2.720   4.088   9.900 -0.5783  0.1531 -0.1839
   42CHL1   H4B 5521   2.550   4.092   9.933  1.0026 -0.3060  0.4420
   42CHL1    C5 5522   2.601   4.199   9.747 -0.0157 -0.3914  0.6154
   42CHL1    C6 5523   2.478   4.165   9.692 -0.4349 -0.2306 -0.3541
   42CHL1    H6 5524   2.410   4.100   9.749  0.1252 -0.5224 -0.0129
   42CHL1    C7 5525   2.458   4.195   9.548 -0.0721  0.2153  0.4789
   42CHL1   H7A 5526   2.426   4.100   9.501 -0.3286  1.2921 -1.5472
   42CHL1   H7B 5527   2.379   4.269   9.524 -0.6088 -0.5811 -0.2081
   42CHL1    C8 5528   2.599   4.223   9.471 -0.4489  0.4993  0.3455
   42CHL1    H8 5529   2.653   4.126   9.472 -1.7118 -0.2144 -0.0395
   42CHL1   C14 5530   2.573   4.246   9.318  0.1772  0.3111 -0.7100
   42CHL1   H14 5531   2.500   4.330   9.319 -1.7118 -1.2776 -1.8478
   42CHL1   C15 5532   2.508   4.142   9.233  0.2011  0.3163  0.2084
   42CHL1  H15A 5533   2.569   4.051   9.251  1.1740  1.4635  3.0805
   42CHL1  H15B 5534   2.405   4.115   9.264  0.8658 -1.6769  0.7875
   42CHL1   C16 5535   2.516   4.207   9.086  0.4147 -0.1607 -0.2623
   42CHL1  H16A 5536   2.543   4.120   9.022 -0.7856  1.1865 -2.6747
   42CHL1  H16B 5537   2.416   4.247   9.058  0.1017  0.2123  1.3330
   42CHL1   C17 5538   2.618   4.324   9.095  0.2457 -0.1807  0.0299
   42CHL1   H17 5539   2.561   4.419   9.106 -0.9994 -0.8951 -0.1872
   42CHL1   C13 5540   2.690   4.299   9.234 -0.0049  0.1165 -1.0149
   42CHL1   C18 5541   2.799   4.188   9.206 -0.3730  0.2939  0.6075
   42CHL1  H18A 5542   2.760   4.100   9.151  1.5470  0.7896 -1.6319
   42CHL1  H18B 5543   2.886   4.214   9.142  0.3638  0.6954  1.7366
   42CHL1  H18C 5544   2.824   4.144   9.306 -0.7186 -1.1221  0.0891
   42CHL1   C12 5545   2.758   4.417   9.312 -0.0409  0.7789  0.0191
   42CHL1  H12A 5546   2.847   4.461   9.262  0.6446 -0.2714  0.3171
   42CHL1  H12B 5547   2.684   4.500   9.319  0.0361  0.9808 -1.4242
   42CHL1   C11 5548   2.801   4.379   9.455 -0.2276  0.9196  0.0835
   42CHL1  H11A 5549   2.878   4.300   9.438  0.3383  1.5061 -0.1120
   42CHL1  H11B 5550   2.849   4.467   9.504  1.8298  0.1384 -0.4632
   42CHL1    C9 5551   2.682   4.326   9.540  0.2344  0.8280  0.8451
   42CHL1    H9 5552   2.621   4.418   9.548 -1.7584 -0.4065  0.1202
   42CHL1   C10 5553   2.720   4.279   9.680 -0.4097 -0.9890 -0.1643
   42CHL1   C19 5554   2.847   4.193   9.674  0.1612  0.2402  0.0545
   42CHL1  H19A 5555   2.855   4.122   9.589  1.1286  1.1020 -0.5828
   42CHL1  H19B 5556   2.941   4.252   9.670  1.4120 -1.7657 -0.5663
   42CHL1  H19C 5557   2.862   4.133   9.766  0.2206  1.4802  0.8689
   42CHL1    C1 5558   2.746   4.402   9.764  0.3398 -0.3654 -0.2659
   42CHL1   H1A 5559   2.834   4.453   9.720 -0.1479  2.0235  1.4412
   42CHL1   H1B 5560   2.668   4.480   9.763 -0.8563 -1.5527 -1.4775
   42CHL1    C2 5561   2.772   4.368   9.911 -0.1389 -0.3985 -1.0679
   42CHL1   H2A 5562   2.774   4.466   9.964 -0.6732 -0.0108 -1.7551
   42CHL1   H2B 5563   2.867   4.312   9.924 -0.3766 -0.8138 -1.1391
   42CHL1   C20 5564   2.697   4.354   8.962  0.8339  0.1767 -0.6493
   42CHL1   H20 5565   2.743   4.254   8.950  0.4733 -0.1949  0.9811
   42CHL1   C21 5566   2.789   4.468   8.991  0.0610 -0.3918 -0.4573
   42CHL1  H21A 5567   2.816   4.526   8.900  0.4455  0.2586  0.0693
   42CHL1  H21B 5568   2.879   4.416   9.030  0.2585 -0.2412 -0.7080
   42CHL1  H21C 5569   2.763   4.544   9.067  2.0823  1.1544 -1.2827
   42CHL1   C22 5570   2.603   4.384   8.840 -0.9283 -0.3529 -0.0739
   42CHL1  H22A 5571   2.511   4.323   8.842 -0.8898 -0.3692  2.0226
   42CHL1  H22B 5572   2.574   4.491   8.846  1.4394  0.3842 -1.1131
   42CHL1   C23 5573   2.674   4.366   8.705 -0.4027  0.1334 -1.1290
   42CHL1  H23A 5574   2.768   4.425   8.710  0.7609 -1.7454 -0.2461
   42CHL1  H23B 5575   2.700   4.261   8.682 -0.3142 -0.5310  1.7454
   42CHL1   C24 5576   2.588   4.426   8.597 -0.0236 -0.3521  0.1447
   42CHL1  H24A 5577   2.495   4.365   8.596  1.3799 -2.5845 -3.3092
   42CHL1  H24B 5578   2.552   4.525   8.634  0.5779 -0.4983  1.1137
   42CHL1   C25 5579   2.656   4.446   8.457  0.6694  0.5807  0.6199
   42CHL1   H25 5580   2.756   4.495   8.462 -0.0500  2.0774  0.6034
   42CHL1   C26 5581   2.677   4.305   8.395  0.6641 -0.2251  0.2430
   42CHL1  H26A 5582   2.732   4.304   8.298 -0.7363  0.2590 -0.5704
   42CHL1  H26B 5583   2.744   4.241   8.457 -1.7140 -3.1789 -0.1101
   42CHL1  H26C 5584   2.576   4.263   8.377  0.0446  1.7895 -1.2096
   42CHL1   C27 5585   2.571   4.545   8.368  0.2332 -0.1316 -0.6616
   42CHL1  H27A 5586   2.462   4.531   8.386  0.9392 -2.5577  2.2131
   42CHL1  H27B 5587   2.592   4.652   8.384 -0.8831  0.2528 -1.6431
   42CHL1  H27C 5588   2.578   4.523   8.259 -0.5352 -1.0076 -0.5434
   43CHL1    C3 5589   3.384   4.259  10.034  0.1216 -0.0311 -0.2980
   43CHL1    H3 5590   3.456   4.344  10.036  1.5271 -1.1001 -2.6835
   43CHL1    O3 5591   3.409   4.192  10.152 -0.1760 -0.1452 -0.1467
   43CHL1   H3' 5592   3.370   4.107  10.132 -0.8700  0.1694 -0.1614
   43CHL1    C4 5593   3.239   4.299  10.005  0.0018  0.0575  0.2546
   43CHL1   H4A 5594   3.170   4.216  10.030 -0.6433  0.5702  0.1957
   43CHL1   H4B 5595   3.213   4.374  10.083  0.5489 -0.4262  0.9066
   43CHL1    C5 5596   3.221   4.347   9.855 -0.2391  0.4000  0.2674
   43CHL1    C6 5597   3.160   4.470   9.843 -0.1756 -0.4476  0.0094
   43CHL1    H6 5598   3.117   4.523   9.929 -1.6717  0.1044 -1.0554
   43CHL1    C7 5599   3.151   4.541   9.714 -0.5018  0.1713 -0.6499
   43CHL1   H7A 5600   3.045   4.570   9.705 -0.5151  0.6002  0.8397
   43CHL1   H7B 5601   3.207   4.636   9.730 -2.8386  1.5087 -0.3355
   43CHL1    C8 5602   3.190   4.453   9.589 -0.2628  0.2090  0.2435
   43CHL1    H8 5603   3.098   4.397   9.563  1.0113 -0.8561 -2.1925
   43CHL1   C14 5604   3.221   4.542   9.468 -0.4772 -0.1651  0.4826
   43CHL1   H14 5605   3.314   4.598   9.492 -0.0996 -1.0702  1.1243
   43CHL1   C15 5606   3.113   4.651   9.429 -0.8054 -0.3250  0.3172
   43CHL1  H15A 5607   3.018   4.594   9.436 -0.1912 -1.6277 -1.8702
   43CHL1  H15B 5608   3.110   4.731   9.507 -1.1924 -0.7039  0.6912
   43CHL1   C16 5609   3.161   4.693   9.289 -0.1751 -0.1606 -0.0630
   43CHL1  H16A 5610   3.078   4.661   9.223  0.7960  1.7350 -2.2587
   43CHL1  H16B 5611   3.176   4.803   9.290 -0.2148 -0.1406 -1.5439
   43CHL1   C17 5612   3.278   4.596   9.252  0.1203  0.5943 -0.1609
   43CHL1   H17 5613   3.372   4.642   9.288 -1.0834  0.6685  3.0206
   43CHL1   C13 5614   3.261   4.469   9.336  0.1784  0.4034 -0.5264
   43CHL1   C18 5615   3.140   4.375   9.292 -0.3295 -0.8758 -0.2427
   43CHL1  H18A 5616   3.051   4.437   9.270 -0.5207 -1.0979 -0.0897
   43CHL1  H18B 5617   3.170   4.308   9.208 -0.7075 -2.0764  0.5676
   43CHL1  H18C 5618   3.111   4.309   9.376  1.5382 -0.7126  0.5607
   43CHL1   C12 5619   3.386   4.378   9.359 -0.3982  0.3629 -0.2426
   43CHL1  H12A 5620   3.403   4.315   9.269 -1.2011  0.7900 -0.6950
   43CHL1  H12B 5621   3.478   4.442   9.363 -0.5336  0.8052 -3.0559
   43CHL1   C11 5622   3.363   4.300   9.486 -0.0577 -0.2648  0.5555
   43CHL1  H11A 5623   3.281   4.232   9.456 -0.1615 -0.8851  2.1941
   43CHL1  H11B 5624   3.450   4.235   9.510 -1.1362 -2.0769 -0.3546
   43CHL1    C9 5625   3.317   4.371   9.614 -0.4378 -0.0154 -0.9605
   43CHL1    H9 5626   3.395   4.446   9.638  1.9682 -2.3193 -1.3731
   43CHL1   C10 5627   3.303   4.279   9.741 -0.7781 -0.4368 -0.0810
   43CHL1   C19 5628   3.219   4.156   9.696 -0.3886  0.2398  0.7125
   43CHL1  H19A 5629   3.131   4.193   9.638  1.1371 -0.1697 -1.9719
   43CHL1  H19B 5630   3.278   4.085   9.634  1.4475  0.8415  1.7219
   43CHL1  H19C 5631   3.181   4.106   9.787 -1.9519 -0.7010 -0.4225
   43CHL1    C1 5632   3.441   4.237   9.785 -0.2336 -0.1108  0.0265
   43CHL1   H1A 5633   3.489   4.172   9.709 -1.1255 -1.9139  0.9881
   43CHL1   H1B 5634   3.506   4.328   9.792  0.8253 -0.9399  1.2567
   43CHL1    C2 5635   3.437   4.162   9.924  0.3379 -0.6098  0.4510
   43CHL1   H2A 5636   3.537   4.118   9.939 -0.1579 -1.1241  2.3967
   43CHL1   H2B 5637   3.363   4.080   9.918  0.4202 -0.6079 -0.6330
   43CHL1   C20 5638   3.275   4.576   9.101 -0.4323  0.6834 -0.7488
   43CHL1   H20 5639   3.178   4.527   9.079  0.8893 -2.2070 -0.3483
   43CHL1   C21 5640   3.403   4.493   9.059  0.2097  0.0765 -0.7155
   43CHL1  H21A 5641   3.499   4.534   9.097 -0.6267  0.7903  0.7040
   43CHL1  H21B 5642   3.411   4.492   8.949 -2.7002  1.4126 -0.9918
   43CHL1  H21C 5643   3.393   4.384   9.078  3.1908 -0.6479 -2.8997
   43CHL1   C22 5644   3.278   4.710   9.021 -0.1706  0.5192 -0.1456
   43CHL1  H22A 5645   3.199   4.781   9.052 -0.9598  0.5424 -2.1493
   43CHL1  H22B 5646   3.371   4.767   9.042 -0.7353  0.8339  1.5992
   43CHL1   C23 5647   3.265   4.705   8.870 -0.7570 -0.5532 -0.0103
   43CHL1  H23A 5648   3.278   4.803   8.819 -1.1013  0.9706  2.7288
   43CHL1  H23B 5649   3.350   4.645   8.832 -0.5130  0.0665 -0.4596
   43CHL1   C24 5650   3.129   4.655   8.828 -0.3467  0.4964  0.0430
   43CHL1  H24A 5651   3.140   4.546   8.848 -1.7864  0.4246  0.4604
   43CHL1  H24B 5652   3.045   4.693   8.890  0.5585 -0.9274  2.1927
   43CHL1   C25 5653   3.099   4.661   8.673  0.3469  0.1901 -0.1650
   43CHL1   H25 5654   3.092   4.768   8.645 -1.1241  0.1933  0.2029
   43CHL1   C26 5655   3.215   4.610   8.579 -0.2774  0.0542 -0.7305
   43CHL1  H26A 5656   3.308   4.666   8.602 -0.2074 -0.7091  0.8892
   43CHL1  H26B 5657   3.244   4.512   8.622 -0.6614 -0.7490 -2.2550
   43CHL1  H26C 5658   3.189   4.602   8.471  1.8917  1.0238 -1.3584
   43CHL1   C27 5659   2.965   4.586   8.632  0.2174 -0.5833 -0.2984
   43CHL1  H27A 5660   2.966   4.482   8.670  0.0970 -0.7089 -0.6362
   43CHL1  H27B 5661   2.878   4.642   8.671  1.4652  1.6250 -0.5716
   43CHL1  H27C 5662   2.966   4.598   8.522  1.2560 -0.8913 -0.3267
   44CHL1    C3 5663   3.053   4.858  10.055 -0.0238  0.0130  0.0175
   44CHL1    H3 5664   3.141   4.797  10.026 -0.5479 -0.5535 -0.3958
   44CHL1    O3 5665   3.038   4.818  10.188 -0.2670  0.2887  0.4242
   44CHL1   H3' 5666   3.118   4.838  10.237 -1.1006  1.6360  1.2333
   44CHL1    C4 5667   3.073   5.015  10.040  0.1935 -0.7594 -0.4378
   44CHL1   H4A 5668   2.980   5.061  10.080  1.1341 -1.3381  2.5803
   44CHL1   H4B 5669   3.153   5.036  10.114 -2.5130  0.3675  2.3202
   44CHL1    C5 5670   3.099   5.051   9.897  0.1166 -0.4135  0.7920
   44CHL1    C6 5671   3.213   5.110   9.864  0.5248  0.1439  0.5756
   44CHL1    H6 5672   3.278   5.141   9.947 -0.2308  3.1776  0.0845
   44CHL1    C7 5673   3.245   5.154   9.721  0.1099  0.2087 -0.4128
   44CHL1   H7A 5674   3.279   5.260   9.719  1.5695 -0.2621 -0.8298
   44CHL1   H7B 5675   3.332   5.089   9.696 -0.6550 -0.7812 -0.5351
   44CHL1    C8 5676   3.122   5.138   9.624 -0.2770  0.1118  0.3477
   44CHL1    H8 5677   3.044   5.212   9.650 -1.2892 -0.8342  0.0494
   44CHL1   C14 5678   3.164   5.141   9.472 -0.0008 -0.6898  0.2809
   44CHL1   H14 5679   3.216   5.044   9.459  0.2591 -0.5533  0.2838
   44CHL1   C15 5680   3.265   5.253   9.423  0.0053 -0.0493  0.1206
   44CHL1  H15A 5681   3.233   5.344   9.478 -0.1316  1.0548 -1.7270
   44CHL1  H15B 5682   3.372   5.225   9.437  0.2950  0.6433 -0.6290
   44CHL1   C16 5683   3.238   5.263   9.276 -0.3774 -0.4931  0.2661
   44CHL1  H16A 5684   3.202   5.367   9.258  0.8320 -0.2694 -0.9356
   44CHL1  H16B 5685   3.333   5.237   9.223 -1.5647 -2.1948 -1.0746
   44CHL1   C17 5686   3.127   5.163   9.240 -0.2436  1.0666 -0.3665
   44CHL1   H17 5687   3.177   5.066   9.216  0.8899  1.4732  0.3242
   44CHL1   C13 5688   3.048   5.144   9.374 -0.0370  0.0999 -0.5161
   44CHL1   C18 5689   2.964   5.266   9.406 -0.2230 -0.2659 -0.2137
   44CHL1  H18A 5690   3.013   5.366   9.399  0.5628 -0.7912 -2.8258
   44CHL1  H18B 5691   2.882   5.263   9.331  0.3476 -0.6622 -0.8158
   44CHL1  H18C 5692   2.909   5.253   9.502 -0.9373  0.7222 -0.4750
   44CHL1   C12 5693   2.966   5.014   9.392 -1.0391  0.0763  0.0704
   44CHL1  H12A 5694   2.874   5.007   9.329  0.2451 -3.4294 -1.5552
   44CHL1  H12B 5695   3.037   4.932   9.371  0.0352  0.9359  0.3133
   44CHL1   C11 5696   2.934   4.990   9.540  0.3374 -0.9055 -0.3667
   44CHL1  H11A 5697   2.849   5.059   9.561  2.3088  1.9551 -1.4650
   44CHL1  H11B 5698   2.902   4.885   9.561  0.2499 -0.2390  3.0977
   44CHL1    C9 5699   3.045   5.010   9.645 -0.6943 -0.3231  0.5860
   44CHL1    H9 5700   3.125   4.933   9.634  0.4690  1.1953 -2.1206
   44CHL1   C10 5701   2.993   5.003   9.795 -0.1308  0.3673  0.0300
   44CHL1   C19 5702   2.873   5.094   9.817 -0.1331  0.0878 -0.8640
   44CHL1  H19A 5703   2.839   5.079   9.921  0.1401  0.2771 -0.7463
   44CHL1  H19B 5704   2.901   5.201   9.817 -1.3308  0.4254  1.8777
   44CHL1  H19C 5705   2.790   5.063   9.750 -0.0482  1.3235 -1.5631
   44CHL1    C1 5706   2.957   4.860   9.825 -0.6261 -0.3460  0.2640
   44CHL1   H1A 5707   2.861   4.837   9.773 -0.1635 -0.5037 -0.5351
   44CHL1   H1B 5708   3.037   4.791   9.790 -0.9973 -0.3452 -0.6153
   44CHL1    C2 5709   2.928   4.818   9.971  0.0415  0.1616  0.4449
   44CHL1   H2A 5710   2.912   4.708   9.964 -1.4156  0.3593  0.5170
   44CHL1   H2B 5711   2.838   4.872  10.008  0.3840  1.2171 -0.2478
   44CHL1   C20 5712   3.043   5.211   9.114  0.3259  0.2778  0.2707
   44CHL1   H20 5713   2.986   5.303   9.141 -2.4782 -1.1370 -0.6405
   44CHL1   C21 5714   2.948   5.102   9.067  0.3011 -0.0299 -0.1872
   44CHL1  H21A 5715   2.864   5.107   9.139 -0.7155  2.1021 -1.4739
   44CHL1  H21B 5716   2.988   4.998   9.066  1.8591  0.5349  1.3528
   44CHL1  H21C 5717   2.889   5.123   8.976  1.1048 -0.8722 -0.9197
   44CHL1   C22 5718   3.127   5.261   8.994 -0.6159  0.1998 -0.5568
   44CHL1  H22A 5719   3.210   5.327   9.030  0.2010 -1.7471  1.1909
   44CHL1  H22B 5720   3.176   5.174   8.946 -0.5098  0.2488 -0.5378
   44CHL1   C23 5721   3.041   5.344   8.891 -0.0724  0.2220 -0.3967
   44CHL1  H23A 5722   3.069   5.309   8.790  1.6132 -1.1889  0.5267
   44CHL1  H23B 5723   2.939   5.308   8.919  0.0533  0.3202  0.2045
   44CHL1   C24 5724   3.054   5.501   8.898 -0.1847  0.2011  0.0614
   44CHL1  H24A 5725   3.049   5.530   9.005 -2.1834 -0.9748  0.3196
   44CHL1  H24B 5726   3.154   5.528   8.859 -1.1807  1.0842 -1.9278
   44CHL1   C25 5727   2.939   5.587   8.835  1.3637 -0.3953  0.9887
   44CHL1   H25 5728   2.844   5.530   8.846  1.6763 -1.0112  0.5022
   44CHL1   C26 5729   2.932   5.720   8.917  0.5337 -0.3119  0.6768
   44CHL1  H26A 5730   2.839   5.770   8.880 -1.2589 -0.4163  4.7156
   44CHL1  H26B 5731   2.901   5.695   9.021  1.6186 -0.3477  0.9902
   44CHL1  H26C 5732   3.022   5.784   8.907  0.1242  0.2203  0.2918
   44CHL1   C27 5733   2.961   5.607   8.682 -0.0469  0.2235  0.1497
   44CHL1  H27A 5734   2.875   5.654   8.630 -0.6115  1.0718  1.8118
   44CHL1  H27B 5735   3.050   5.665   8.652  0.6660 -0.9202  0.0092
   44CHL1  H27C 5736   2.971   5.507   8.634 -0.6422  0.5762 -0.7316
   45CHL1    C3 5737   6.576   3.448  10.408 -0.2832  0.2861 -0.2039
   45CHL1    H3 5738   6.630   3.535  10.452 -0.0182  0.1723 -0.3038
   45CHL1    O3 5739   6.512   3.380  10.514 -0.2880 -0.0273  0.1456
   45CHL1   H3' 5740   6.581   3.324  10.551  1.7861 -0.1563 -3.7326
   45CHL1    C4 5741   6.471   3.501  10.308  0.0026  0.2841 -0.2392
   45CHL1   H4A 5742   6.410   3.410  10.292 -0.0545 -0.3609  3.3524
   45CHL1   H4B 5743   6.406   3.572  10.363 -1.2578 -0.8958 -0.1777
   45CHL1    C5 5744   6.532   3.550  10.178  0.6643 -0.7268  0.2109
   45CHL1    C6 5745   6.521   3.680  10.148  0.1608  0.0057  0.4890
   45CHL1    H6 5746   6.468   3.749  10.215  0.3957 -0.0456  0.7268
   45CHL1    C7 5747   6.589   3.731  10.026  0.8624  0.2171  0.4821
   45CHL1   H7A 5748   6.530   3.821   9.998 -1.2537 -1.2846 -0.0134
   45CHL1   H7B 5749   6.680   3.777  10.071  1.4908 -1.6812  1.1966
   45CHL1    C8 5750   6.641   3.629   9.925  0.2383 -0.6289  0.4470
   45CHL1    H8 5751   6.722   3.694   9.884 -2.0538  1.9048 -0.2321
   45CHL1   C14 5752   6.548   3.597   9.807  0.9831 -0.6973 -0.9824
   45CHL1   H14 5753   6.465   3.537   9.852  0.5782 -0.0601 -0.8809
   45CHL1   C15 5754   6.486   3.726   9.741 -0.0490  0.0520 -0.0676
   45CHL1  H15A 5755   6.378   3.731   9.769  0.3860  0.0787  1.6457
   45CHL1  H15B 5756   6.529   3.824   9.771 -1.0082  0.7970 -1.0563
   45CHL1   C16 5757   6.515   3.710   9.592  0.0055  0.1084  0.5000
   45CHL1  H16A 5758   6.415   3.673   9.558 -0.2446  1.5078 -0.3248
   45CHL1  H16B 5759   6.535   3.801   9.533 -1.4821 -0.4183 -0.8714
   45CHL1   C17 5760   6.636   3.616   9.580 -0.1856 -0.3647 -0.0123
   45CHL1   H17 5761   6.718   3.682   9.614  0.2631 -2.2676  2.7664
   45CHL1   C13 5762   6.620   3.516   9.699 -0.0804 -0.1762 -0.5683
   45CHL1   C18 5763   6.540   3.392   9.656  0.7868  0.4898 -0.2350
   45CHL1  H18A 5764   6.440   3.411   9.612  0.9945  0.1696 -0.8519
   45CHL1  H18B 5765   6.589   3.334   9.575 -0.0709 -0.5892  0.0015
   45CHL1  H18C 5766   6.525   3.316   9.735  1.7582  0.8644  0.3189
   45CHL1   C12 5767   6.757   3.474   9.748 -0.3794  0.0130 -0.4385
   45CHL1  H12A 5768   6.795   3.407   9.668 -1.1430  0.1759 -0.9443
   45CHL1  H12B 5769   6.817   3.568   9.749 -0.5805  0.1465 -0.6278
   45CHL1   C11 5770   6.760   3.414   9.886 -0.8523  0.5640  0.4509
   45CHL1  H11A 5771   6.710   3.315   9.875 -2.0954  1.1698  0.5461
   45CHL1  H11B 5772   6.868   3.396   9.904 -0.2108  0.3686 -3.2905
   45CHL1    C9 5773   6.699   3.504   9.987  0.6767 -1.0535 -0.0494
   45CHL1    H9 5774   6.787   3.553  10.033  0.2207 -0.6304  0.3820
   45CHL1   C10 5775   6.622   3.449  10.108 -0.7166  0.2293  0.7098
   45CHL1   C19 5776   6.538   3.331  10.068  0.0439 -0.4548  0.0760
   45CHL1  H19A 5777   6.593   3.248  10.018 -1.3049  0.0856 -2.4218
   45CHL1  H19B 5778   6.487   3.287  10.156  1.3519  1.3641  1.7832
   45CHL1  H19C 5779   6.462   3.362   9.993  1.2008  1.3635 -0.3786
   45CHL1    C1 5780   6.726   3.390  10.214 -0.8444  0.3474  0.5329
   45CHL1   H1A 5781   6.789   3.306  10.177 -0.8838  0.3667  0.4216
   45CHL1   H1B 5782   6.786   3.482  10.234  1.1148 -0.1418 -2.6790
   45CHL1    C2 5783   6.675   3.346  10.346  0.6080  0.0733  1.0382
   45CHL1   H2A 5784   6.760   3.332  10.416  1.6263  0.4785 -0.1116
   45CHL1   H2B 5785   6.609   3.259  10.327  2.5358 -1.8417  2.8423
   45CHL1   C20 5786   6.663   3.561   9.438  0.4676 -0.4332 -0.0913
   45CHL1   H20 5787   6.708   3.460   9.426 -0.7632 -0.9292 -0.5595
   45CHL1   C21 5788   6.764   3.655   9.376  0.4138  0.0024 -0.0700
   45CHL1  H21A 5789   6.867   3.642   9.417  0.2259 -0.3638  0.2817
   45CHL1  H21B 5790   6.731   3.760   9.392  1.0704 -0.0654  1.8343
   45CHL1  H21C 5791   6.785   3.647   9.267 -0.5864  0.1391 -0.2695
   45CHL1   C22 5792   6.528   3.546   9.347 -0.6567  0.0569  0.3358
   45CHL1  H22A 5793   6.467   3.466   9.395 -1.8410  0.3923 -0.5670
   45CHL1  H22B 5794   6.456   3.631   9.342 -0.4806  0.1891  0.0600
   45CHL1   C23 5795   6.548   3.490   9.204  0.7280  0.3754  0.1492
   45CHL1  H23A 5796   6.454   3.484   9.145  0.4577  3.0024  0.2393
   45CHL1  H23B 5797   6.616   3.559   9.149 -0.6330  1.4391 -0.2285
   45CHL1   C24 5798   6.616   3.347   9.201 -0.6605  0.6622  0.1540
   45CHL1  H24A 5799   6.719   3.356   9.242 -1.4606  2.3567  1.8796
   45CHL1  H24B 5800   6.561   3.281   9.272 -1.0824  1.4134  0.5381
   45CHL1   C25 5801   6.643   3.281   9.060 -0.2030 -0.2330 -0.1829
   45CHL1   H25 5802   6.665   3.175   9.085 -2.5251 -0.9325 -0.9613
   45CHL1   C26 5803   6.517   3.272   8.980  0.3163 -0.1239  0.2019
   45CHL1  H26A 5804   6.522   3.189   8.907  1.8250  0.1674 -0.0567
   45CHL1  H26B 5805   6.429   3.260   9.046 -0.2448 -0.7233 -0.6545
   45CHL1  H26C 5806   6.496   3.369   8.930 -3.0916 -1.4018 -0.9806
   45CHL1   C27 5807   6.750   3.345   8.975 -0.4367  0.0841  0.1313
   45CHL1  H27A 5808   6.837   3.358   9.042  0.3704 -1.6850 -0.5512
   45CHL1  H27B 5809   6.775   3.288   8.883 -0.2961 -0.8829  0.7663
   45CHL1  H27C 5810   6.708   3.443   8.943  2.4009  0.9491 -1.0700
   46CHL1    C3 5811   2.953   1.198  10.005 -0.1093  0.1793 -0.4207
   46CHL1    H3 5812   2.969   1.094   9.970  0.2232 -1.2754  3.7292
   46CHL1    O3 5813   2.957   1.206  10.146  0.1761  0.2235 -0.4863
   46CHL1   H3' 5814   2.872   1.168  10.167 -0.2056  1.2260 -0.1814
   46CHL1    C4 5815   3.081   1.263   9.951  0.1935 -0.1611 -0.4844
   46CHL1   H4A 5816   3.088   1.360  10.005  4.1675 -0.7386  0.1744
   46CHL1   H4B 5817   3.170   1.215   9.995  0.8514  0.6577 -0.9099
   46CHL1    C5 5818   3.084   1.279   9.801  0.0734 -0.4950  0.0316
   46CHL1    C6 5819   3.188   1.228   9.731  0.4078 -0.6875  0.4349
   46CHL1    H6 5820   3.270   1.192   9.794 -0.1331 -0.0551  1.5114
   46CHL1    C7 5821   3.190   1.239   9.583 -0.0723 -0.2218 -0.4288
   46CHL1   H7A 5822   3.289   1.262   9.539  0.8558 -0.9454  1.2231
   46CHL1   H7B 5823   3.162   1.142   9.535 -0.5998 -0.0479 -0.4802
   46CHL1    C8 5824   3.099   1.347   9.524 -0.3655 -0.1259  0.2527
   46CHL1    H8 5825   3.137   1.446   9.556  1.8264 -0.5658 -0.9002
   46CHL1   C14 5826   3.087   1.327   9.369 -0.3168 -0.4173  0.2434
   46CHL1   H14 5827   3.040   1.227   9.364  0.8122 -0.8856 -1.6206
   46CHL1   C15 5828   3.216   1.318   9.281  0.5979  0.3710 -0.4008
   46CHL1  H15A 5829   3.299   1.388   9.305  0.2708  1.1120 -1.4219
   46CHL1  H15B 5830   3.263   1.217   9.278  1.0109  0.5949 -1.6216
   46CHL1   C16 5831   3.168   1.353   9.141 -0.4291 -0.1516  0.5757
   46CHL1  H16A 5832   3.202   1.449   9.096  0.7181 -0.5105  0.6694
   46CHL1  H16B 5833   3.175   1.270   9.069 -0.4012  1.0324 -0.7983
   46CHL1   C17 5834   3.017   1.372   9.155  1.1484 -0.3258 -0.0618
   46CHL1   H17 5835   2.971   1.270   9.160 -2.2033  1.1638  1.4899
   46CHL1   C13 5836   2.992   1.426   9.296 -1.0072 -0.1803  0.6535
   46CHL1   C18 5837   3.035   1.577   9.293 -0.3616  0.5736  0.6523
   46CHL1  H18A 5838   2.958   1.629   9.232 -1.8624 -3.4428 -1.0862
   46CHL1  H18B 5839   3.037   1.623   9.393  0.2371 -0.6863  1.2346
   46CHL1  H18C 5840   3.134   1.606   9.250  1.1319 -0.8111  3.0210
   46CHL1   C12 5841   2.849   1.403   9.362 -0.2685  0.2611 -0.1398
   46CHL1  H12A 5842   2.769   1.466   9.317 -0.1337 -0.2720 -1.1427
   46CHL1  H12B 5843   2.817   1.297   9.355  1.6400 -0.2579 -1.2813
   46CHL1   C11 5844   2.856   1.435   9.510  0.6741 -0.6950 -0.1988
   46CHL1  H11A 5845   2.894   1.539   9.516 -1.4800  0.2488 -2.1466
   46CHL1  H11B 5846   2.758   1.447   9.561  0.8458  1.5219 -0.3702
   46CHL1    C9 5847   2.960   1.333   9.580 -0.2302  0.1663  1.1265
   46CHL1    H9 5848   2.924   1.231   9.555 -0.5955  0.1730  1.6043
   46CHL1   C10 5849   2.964   1.338   9.736 -0.3736 -0.4254  0.3882
   46CHL1   C19 5850   2.964   1.493   9.770 -1.0238 -1.1595 -0.0283
   46CHL1  H19A 5851   3.045   1.550   9.720 -0.4658 -0.7433  1.3374
   46CHL1  H19B 5852   2.873   1.547   9.736 -0.7850 -1.5736 -1.3508
   46CHL1  H19C 5853   2.968   1.500   9.880 -1.9031  0.0049 -0.0657
   46CHL1    C1 5854   2.840   1.279   9.793 -0.0707  0.3278  0.3962
   46CHL1   H1A 5855   2.746   1.328   9.759 -0.0064 -0.9408 -1.6505
   46CHL1   H1B 5856   2.835   1.175   9.756  1.4049  1.2815 -2.6389
   46CHL1    C2 5857   2.829   1.268   9.947  0.3253 -0.0110  0.0165
   46CHL1   H2A 5858   2.739   1.216   9.985  0.6355  0.2313  1.1044
   46CHL1   H2B 5859   2.835   1.373   9.984 -0.6090  0.5703 -1.4033
   46CHL1   C20 5860   2.938   1.442   9.030  0.1625 -0.1854  0.5873
   46CHL1   H20 5861   2.934   1.552   9.047 -0.9018 -0.0620 -0.4402
   46CHL1   C21 5862   2.792   1.390   9.031 -0.4483 -0.0313 -0.2964
   46CHL1  H21A 5863   2.782   1.285   8.998 -0.3449  0.1259 -0.8294
   46CHL1  H21B 5864   2.731   1.450   8.961  1.4661  0.9694 -1.1631
   46CHL1  H21C 5865   2.751   1.395   9.134 -0.1905 -0.9111 -0.1441
   46CHL1   C22 5866   2.994   1.436   8.885  0.5781  0.3123 -0.6118
   46CHL1  H22A 5867   3.096   1.481   8.890 -0.2821  2.2576  0.1518
   46CHL1  H22B 5868   3.010   1.329   8.860  1.3147 -0.3165  2.3933
   46CHL1   C23 5869   2.925   1.511   8.773 -0.5108  0.0684  0.4210
   46CHL1  H23A 5870   2.834   1.454   8.745 -0.0369 -0.1792 -0.6485
   46CHL1  H23B 5871   2.905   1.616   8.802 -1.6074  1.3798 -4.6402
   46CHL1   C24 5872   3.015   1.532   8.652  0.0185 -1.0087  0.2940
   46CHL1  H24A 5873   3.092   1.609   8.673 -1.0851 -0.3304  1.9401
   46CHL1  H24B 5874   3.070   1.446   8.608 -1.4123  0.0261 -3.7575
   46CHL1   C25 5875   2.940   1.593   8.526  0.9560  0.2802 -0.3602
   46CHL1   H25 5876   2.869   1.513   8.497 -0.5008  0.7329  1.8286
   46CHL1   C26 5877   2.876   1.730   8.556  0.5143  0.1062  0.4451
   46CHL1  H26A 5878   2.942   1.819   8.560  0.5695  0.2247 -2.0316
   46CHL1  H26B 5879   2.787   1.752   8.493  0.7770  1.2477  0.4482
   46CHL1  H26C 5880   2.838   1.725   8.660 -1.1354  1.1626 -0.0850
   46CHL1   C27 5881   3.029   1.602   8.400 -0.9319 -1.1490 -0.5017
   46CHL1  H27A 5882   2.969   1.617   8.308  1.2512  0.4618 -1.7259
   46CHL1  H27B 5883   3.111   1.677   8.407 -1.4787 -0.7806  3.7730
   46CHL1  H27C 5884   3.076   1.502   8.396  0.3993 -0.6631  1.9092
   47CHL1    C3 5885   3.528   4.607  10.178  0.3992  0.1725 -0.3706
   47CHL1    H3 5886   3.507   4.504  10.141  0.5872  0.1484 -0.4139
   47CHL1    O3 5887   3.512   4.612  10.318 -0.2871  0.0808 -0.0028
   47CHL1   H3' 5888   3.530   4.702  10.346  0.3111 -0.1523  0.3649
   47CHL1    C4 5889   3.674   4.653  10.139 -0.2245 -0.0134 -0.1885
   47CHL1   H4A 5890   3.703   4.751  10.182 -0.4375  1.8879 -4.1322
   47CHL1   H4B 5891   3.747   4.582  10.183 -0.5906  0.0193  0.4700
   47CHL1    C5 5892   3.678   4.654   9.985 -0.1899  0.2999  0.8089
   47CHL1    C6 5893   3.759   4.571   9.910 -0.1853  0.4284  0.2151
   47CHL1    H6 5894   3.825   4.516   9.978  0.6691 -0.1276 -1.0503
   47CHL1    C7 5895   3.779   4.565   9.760 -0.0889 -0.2743 -0.2071
   47CHL1   H7A 5896   3.888   4.564   9.739 -0.0623 -3.0445 -0.0184
   47CHL1   H7B 5897   3.715   4.490   9.709  0.1522 -0.6775  0.0897
   47CHL1    C8 5898   3.721   4.703   9.705  0.3054  0.8770  0.2666
   47CHL1    H8 5899   3.789   4.784   9.737 -0.4535  1.8970 -0.6831
   47CHL1   C14 5900   3.723   4.690   9.552 -0.0780 -0.8929 -0.2467
   47CHL1   H14 5901   3.656   4.608   9.520 -2.0444  0.0461  1.3716
   47CHL1   C15 5902   3.860   4.656   9.485 -0.2212 -1.3352  0.2267
   47CHL1  H15A 5903   3.941   4.709   9.538  0.6257  0.7523 -2.9901
   47CHL1  H15B 5904   3.889   4.549   9.495  0.9208 -0.9430  1.1157
   47CHL1   C16 5905   3.849   4.712   9.341 -0.4692  0.0313  0.2225
   47CHL1  H16A 5906   3.927   4.790   9.325  0.9574 -1.7058 -1.4937
   47CHL1  H16B 5907   3.857   4.636   9.261  0.6970  0.1144  0.2468
   47CHL1   C17 5908   3.705   4.778   9.335  0.6760  0.0853 -0.1695
   47CHL1   H17 5909   3.628   4.700   9.321  2.1378 -1.2893 -0.7138
   47CHL1   C13 5910   3.680   4.816   9.483  0.2991 -0.3701  0.7355
   47CHL1   C18 5911   3.774   4.932   9.528 -0.4444  0.0083 -0.0852
   47CHL1  H18A 5912   3.732   5.031   9.499 -1.1219  0.6379  2.8990
   47CHL1  H18B 5913   3.792   4.945   9.637  0.9827  0.8614 -0.4057
   47CHL1  H18C 5914   3.879   4.924   9.491 -0.7223 -1.3858 -0.5671
   47CHL1   C12 5915   3.528   4.841   9.529  0.4118 -0.1053 -0.3221
   47CHL1  H12A 5916   3.484   4.930   9.481 -1.7284 -0.7190  0.4216
   47CHL1  H12B 5917   3.460   4.755   9.505  0.7764 -0.4245 -0.2141
   47CHL1   C11 5918   3.520   4.853   9.680  1.0932  0.1046  0.3608
   47CHL1  H11A 5919   3.575   4.945   9.711  1.7943 -0.4516  0.7593
   47CHL1  H11B 5920   3.417   4.872   9.718  1.1873  1.4792 -0.0345
   47CHL1    C9 5921   3.579   4.725   9.751 -0.5188 -0.3375 -0.7632
   47CHL1    H9 5922   3.520   4.634   9.727  0.1763 -0.8941 -0.3825
   47CHL1   C10 5923   3.577   4.737   9.911 -0.2436  0.5687  0.1191
   47CHL1   C19 5924   3.606   4.884   9.949  0.4031  0.0639 -0.5201
   47CHL1  H19A 5925   3.710   4.901   9.914  0.5076  0.4261 -0.0287
   47CHL1  H19B 5926   3.537   4.962   9.910  0.9508  2.5228  3.1836
   47CHL1  H19C 5927   3.602   4.902  10.058 -0.7576 -2.2433 -0.1621
   47CHL1    C1 5928   3.437   4.708   9.957 -0.3364  0.0877 -0.2352
   47CHL1   H1A 5929   3.374   4.794   9.927  1.2145  0.7106 -1.7673
   47CHL1   H1B 5930   3.393   4.614   9.917  0.1553  0.1911 -1.0327
   47CHL1    C2 5931   3.424   4.706  10.113  0.2179  0.2221  0.4424
   47CHL1   H2A 5932   3.322   4.675  10.143  0.4340 -1.7194 -0.7403
   47CHL1   H2B 5933   3.419   4.814  10.141  0.0629 -0.0173  1.3501
   47CHL1   C20 5934   3.694   4.879   9.230  0.2114 -0.3434  0.9272
   47CHL1   H20 5935   3.775   4.955   9.229  2.5478 -2.7036 -2.9285
   47CHL1   C21 5936   3.557   4.951   9.234  0.6176  0.1509  0.2744
   47CHL1  H21A 5937   3.546   5.012   9.142  1.7673  0.4345  0.3087
   47CHL1  H21B 5938   3.557   5.020   9.321 -1.0138 -0.6764  0.9617
   47CHL1  H21C 5939   3.476   4.875   9.240  0.3585  0.5149  1.4979
   47CHL1   C22 5940   3.728   4.813   9.097  0.4908 -0.1057  0.6834
   47CHL1  H22A 5941   3.818   4.749   9.104 -0.0222 -0.7248  1.8539
   47CHL1  H22B 5942   3.651   4.736   9.075 -0.0732  0.1175  1.8385
   47CHL1   C23 5943   3.733   4.908   8.979 -0.0476 -0.2012  0.2805
   47CHL1  H23A 5944   3.642   4.972   8.965  0.0466 -0.0803  0.2196
   47CHL1  H23B 5945   3.820   4.977   8.978  0.2741 -0.5654 -3.0522
   47CHL1   C24 5946   3.740   4.835   8.844  0.3563 -0.0732  0.1252
   47CHL1  H24A 5947   3.833   4.775   8.854  0.4421 -0.3374 -2.0852
   47CHL1  H24B 5948   3.659   4.758   8.841 -0.4629  0.8433 -1.8716
   47CHL1   C25 5949   3.730   4.922   8.716 -0.3124  0.0921 -0.2149
   47CHL1   H25 5950   3.809   5.000   8.716 -1.0002  0.7986 -0.4788
   47CHL1   C26 5951   3.759   4.842   8.587  0.8921 -0.3391 -0.5383
   47CHL1  H26A 5952   3.767   4.915   8.504 -0.6628  1.0133  0.4786
   47CHL1  H26B 5953   3.667   4.785   8.561  0.5285  0.0289 -0.0561
   47CHL1  H26C 5954   3.853   4.782   8.593  0.4682 -0.7818  2.1221
   47CHL1   C27 5955   3.593   4.998   8.698 -0.5617 -0.1248  0.0774
   47CHL1  H27A 5956   3.501   4.936   8.706 -1.3782  0.9329 -0.9500
   47CHL1  H27B 5957   3.572   5.072   8.778  2.7327 -0.6971  1.5570
   47CHL1  H27C 5958   3.579   5.057   8.605  3.2075 -1.8355 -1.7024
   48CHL1    C3 5959   4.308   5.630  10.122  0.2741 -0.8235 -0.0529
   48CHL1    H3 5960   4.393   5.698  10.102  0.8076 -2.0103 -1.9264
   48CHL1    O3 5961   4.315   5.593  10.254 -0.1184 -0.0226 -0.3744
   48CHL1   H3' 5962   4.262   5.513  10.261 -0.9946  0.7123  2.3434
   48CHL1    C4 5963   4.179   5.698  10.076 -0.2114 -0.0576  0.8805
   48CHL1   H4A 5964   4.090   5.641  10.111 -0.9353  0.4136 -0.1884
   48CHL1   H4B 5965   4.179   5.797  10.126  4.6346  0.2295  0.5329
   48CHL1    C5 5966   4.177   5.725   9.923 -0.9482 -0.7203  0.5046
   48CHL1    C6 5967   4.164   5.856   9.886 -0.4648  0.0335  0.8752
   48CHL1    H6 5968   4.145   5.934   9.962  3.0348  1.3424  0.4860
   48CHL1    C7 5969   4.149   5.900   9.744 -0.0653  0.4723 -0.7027
   48CHL1   H7A 5970   4.055   5.956   9.724 -0.0642  1.5358  2.0901
   48CHL1   H7B 5971   4.232   5.971   9.724  0.5547  0.8877  3.1050
   48CHL1    C8 5972   4.165   5.783   9.642  0.3899  0.4759 -0.0950
   48CHL1    H8 5973   4.065   5.741   9.619  0.1901  1.5439 -1.2052
   48CHL1   C14 5974   4.225   5.835   9.513  0.5573 -0.4153 -0.5705
   48CHL1   H14 5975   4.326   5.873   9.534 -0.3380  1.2082  0.8471
   48CHL1   C15 5976   4.170   5.965   9.458 -0.1110  0.5210 -0.0107
   48CHL1  H15A 5977   4.059   5.958   9.452  0.0040 -0.0609 -1.8312
   48CHL1  H15B 5978   4.190   6.061   9.510 -3.6558  1.6395 -0.5460
   48CHL1   C16 5979   4.216   5.960   9.308  0.3219  0.2208 -0.3635
   48CHL1  H16A 5980   4.122   5.952   9.248 -0.0224 -2.2450  0.4425
   48CHL1  H16B 5981   4.256   6.056   9.269  1.3576  0.0344  0.2380
   48CHL1   C17 5982   4.288   5.824   9.281 -0.0529  0.0808 -0.2446
   48CHL1   H17 5983   4.396   5.837   9.306 -0.6012  1.5307  1.4370
   48CHL1   C13 5984   4.236   5.734   9.401  0.2706 -0.0166 -0.0817
   48CHL1   C18 5985   4.099   5.679   9.359  0.3877 -0.0308  0.6573
   48CHL1  H18A 5986   4.105   5.618   9.266  1.7443  2.2358 -0.8151
   48CHL1  H18B 5987   4.061   5.608   9.435 -3.7729  0.8772 -0.4444
   48CHL1  H18C 5988   4.016   5.753   9.349 -0.0580 -0.5101  0.7790
   48CHL1   C12 5989   4.327   5.620   9.448 -0.5425  0.0251 -0.0877
   48CHL1  H12A 5990   4.340   5.545   9.367 -1.0994 -0.8077  0.5871
   48CHL1  H12B 5991   4.427   5.662   9.476 -0.6284  0.2564 -0.1262
   48CHL1   C11 5992   4.277   5.554   9.583  0.0245  0.1432  0.1751
   48CHL1  H11A 5993   4.194   5.482   9.567  0.5375 -0.7059  1.3159
   48CHL1  H11B 5994   4.361   5.496   9.626  0.8906  0.5805 -0.9131
   48CHL1    C9 5995   4.249   5.662   9.694 -0.4272  0.4151 -0.8742
   48CHL1    H9 5996   4.351   5.705   9.702  0.5487 -1.8695 -0.6408
   48CHL1   C10 5997   4.212   5.610   9.833 -0.3965 -0.1963  0.0392
   48CHL1   C19 5998   4.097   5.510   9.821  0.5370 -0.4087  0.0250
   48CHL1  H19A 5999   4.125   5.427   9.754 -2.5743 -0.9133 -0.7241
   48CHL1  H19B 6000   4.069   5.461   9.916 -2.1838 -0.4485 -0.7595
   48CHL1  H19C 6001   4.004   5.555   9.781  0.4306 -0.8883 -0.2605
   48CHL1    C1 6002   4.346   5.537   9.894 -0.4684  0.6105 -0.3187
   48CHL1   H1A 6003   4.371   5.445   9.837  1.5102  0.9068  0.0418
   48CHL1   H1B 6004   4.424   5.613   9.873  0.0628 -0.0378 -0.6729
   48CHL1    C2 6005   4.340   5.500  10.043 -0.0982 -0.4486 -0.5322
   48CHL1   H2A 6006   4.436   5.453  10.071 -0.5176 -1.3009 -0.5115
   48CHL1   H2B 6007   4.262   5.421  10.049  1.0584 -1.5622 -0.1989
   48CHL1   C20 6008   4.272   5.772   9.142  0.2181  1.3606 -0.1097
   48CHL1   H20 6009   4.165   5.747   9.127  0.6477  0.1370 -1.2997
   48CHL1   C21 6010   4.363   5.648   9.114 -0.1312  0.9289 -0.6388
   48CHL1  H21A 6011   4.326   5.605   9.018  2.0548 -1.1907 -0.5566
   48CHL1  H21B 6012   4.343   5.563   9.183  0.6049  0.9514 -0.4002
   48CHL1  H21C 6013   4.473   5.664   9.109  0.4528 -2.4591  0.3871
   48CHL1   C22 6014   4.315   5.866   9.019  0.6098  0.7676  0.9153
   48CHL1  H22A 6015   4.294   5.971   9.046  0.5778  0.6009  1.5546
   48CHL1  H22B 6016   4.425   5.863   9.009  0.5460  0.1390  0.3523
   48CHL1   C23 6017   4.241   5.828   8.885  0.7946 -0.4293 -1.0370
   48CHL1  H23A 6018   4.245   5.718   8.879  1.8341 -0.5435  1.0346
   48CHL1  H23B 6019   4.132   5.847   8.897  0.4259 -1.6120 -2.4496
   48CHL1   C24 6020   4.306   5.891   8.766 -1.0227  0.6195  0.7171
   48CHL1  H24A 6021   4.299   6.002   8.766 -2.3032  0.5624 -1.1321
   48CHL1  H24B 6022   4.417   5.885   8.764 -1.0515 -0.0870  1.1321
   48CHL1   C25 6023   4.257   5.839   8.629  0.7436  0.1431 -0.2308
   48CHL1   H25 6024   4.156   5.884   8.628  0.9763  0.6531 -0.7639
   48CHL1   C26 6025   4.341   5.909   8.517 -0.0799  0.0776  0.2822
   48CHL1  H26A 6026   4.434   5.849   8.516  0.0155  0.2247  0.4256
   48CHL1  H26B 6027   4.294   5.899   8.416  1.0496  0.2208 -0.2632
   48CHL1  H26C 6028   4.357   6.016   8.543 -1.1437 -0.0183  1.3411
   48CHL1   C27 6029   4.257   5.689   8.618 -0.2026 -0.4641  0.5691
   48CHL1  H27A 6030   4.359   5.651   8.639  0.6106  2.1672  1.4774
   48CHL1  H27B 6031   4.195   5.625   8.686  1.4797 -1.3592  1.2946
   48CHL1  H27C 6032   4.231   5.659   8.514  3.5480  1.5238 -1.0241
   49CHL1    C3 6033   2.574   0.509  10.050 -0.3906  0.3331 -0.0672
   49CHL1    H3 6034   2.667   0.453  10.024 -2.4122 -2.6955 -1.1313
   49CHL1    O3 6035   2.544   0.467  10.187 -0.3252 -0.0388 -0.2297
   49CHL1   H3' 6036   2.469   0.412  10.166  1.0712 -0.6609 -4.1261
   49CHL1    C4 6037   2.598   0.655  10.045 -0.0772 -0.4816 -0.5903
   49CHL1   H4A 6038   2.514   0.709  10.092  0.0683 -1.2173  0.5281
   49CHL1   H4B 6039   2.684   0.671  10.114 -0.0691  1.2714 -0.9811
   49CHL1    C5 6040   2.621   0.701   9.900 -0.4009 -0.0540 -0.4091
   49CHL1    C6 6041   2.732   0.769   9.874 -0.2980  0.3260  0.0514
   49CHL1    H6 6042   2.802   0.793   9.955  0.9761  0.1250 -0.9755
   49CHL1    C7 6043   2.761   0.831   9.736 -0.1254  0.5009 -1.0110
   49CHL1   H7A 6044   2.787   0.939   9.737  0.3465  0.3999 -1.7209
   49CHL1   H7B 6045   2.847   0.780   9.687 -2.5014 -1.7938 -2.9162
   49CHL1    C8 6046   2.643   0.822   9.632  0.5013  0.2416 -0.2221
   49CHL1    H8 6047   2.572   0.904   9.657 -0.4971 -0.5878 -0.3069
   49CHL1   C14 6048   2.691   0.833   9.488  0.9605  0.9748  0.1045
   49CHL1   H14 6049   2.751   0.742   9.463 -0.8184 -0.2956  0.3398
   49CHL1   C15 6050   2.782   0.956   9.458 -0.8548 -0.2704  0.2433
   49CHL1  H15A 6051   2.734   1.047   9.500 -1.3303 -1.5814  2.6535
   49CHL1  H15B 6052   2.884   0.956   9.501 -0.6382 -0.8588 -0.2721
   49CHL1   C16 6053   2.788   0.966   9.305 -0.1130  0.5015  0.5775
   49CHL1  H16A 6054   2.753   1.068   9.277  0.9642  1.4952  2.6889
   49CHL1  H16B 6055   2.888   0.944   9.262  0.0570  1.5322  0.4388
   49CHL1   C17 6056   2.682   0.856   9.253  0.0575 -0.3537  0.5084
   49CHL1   H17 6057   2.732   0.758   9.235  2.5510  0.6425  1.7654
   49CHL1   C13 6058   2.584   0.831   9.380 -0.4156  0.1461  0.0967
   49CHL1   C18 6059   2.497   0.958   9.406 -0.1927 -0.2825 -0.8073
   49CHL1  H18A 6060   2.460   0.956   9.511 -1.3614 -0.1929 -1.2085
   49CHL1  H18B 6061   2.553   1.052   9.385  0.2775 -0.4562 -0.3367
   49CHL1  H18C 6062   2.406   0.955   9.343 -1.2359  1.0955  0.5751
   49CHL1   C12 6063   2.504   0.699   9.391 -0.0773 -0.0346  0.4797
   49CHL1  H12A 6064   2.429   0.704   9.309 -0.0353  0.7207  0.4819
   49CHL1  H12B 6065   2.573   0.614   9.371 -0.6832 -0.1603 -1.1757
   49CHL1   C11 6066   2.456   0.681   9.536 -0.2597  0.6015  0.2472
   49CHL1  H11A 6067   2.374   0.753   9.555  0.1791  2.0931 -3.2611
   49CHL1  H11B 6068   2.395   0.588   9.545 -1.4003  1.4432  1.2537
   49CHL1    C9 6069   2.564   0.683   9.649  0.9914  0.2083  1.0207
   49CHL1    H9 6070   2.636   0.603   9.622  0.7906 -0.1537  1.5590
   49CHL1   C10 6071   2.516   0.660   9.793 -1.0951  0.4134  0.0988
   49CHL1   C19 6072   2.395   0.755   9.820  0.3565 -0.5039  0.3864
   49CHL1  H19A 6073   2.422   0.858   9.787  2.3277 -0.7019  1.2919
   49CHL1  H19B 6074   2.304   0.727   9.764  0.9518 -0.5986 -0.5526
   49CHL1  H19C 6075   2.359   0.749   9.924 -1.3731  0.0411 -0.1627
   49CHL1    C1 6076   2.476   0.513   9.811 -0.0151 -0.5808 -0.6564
   49CHL1   H1A 6077   2.386   0.499   9.748 -0.9310  0.4362  0.4298
   49CHL1   H1B 6078   2.550   0.443   9.766  0.7908  0.3100 -0.7346
   49CHL1    C2 6079   2.461   0.462   9.953 -0.6505 -0.8369  0.0754
   49CHL1   H2A 6080   2.470   0.351   9.957 -1.9528 -0.9500  0.1337
   49CHL1   H2B 6081   2.359   0.494   9.986 -2.0412 -3.7393 -1.2250
   49CHL1   C20 6082   2.625   0.897   9.117  0.1578  0.8956 -0.1787
   49CHL1   H20 6083   2.580   0.998   9.127 -0.5678  0.4378  1.3430
   49CHL1   C21 6084   2.534   0.787   9.074 -0.6074  0.0085  0.4464
   49CHL1  H21A 6085   2.436   0.796   9.126 -0.4378 -1.2143  0.9934
   49CHL1  H21B 6086   2.575   0.684   9.085  0.0972  0.2760  0.3023
   49CHL1  H21C 6087   2.520   0.796   8.965  0.9383 -0.8689  0.1655
   49CHL1   C22 6088   2.741   0.912   9.014 -0.1214 -0.0874 -0.3720
   49CHL1  H22A 6089   2.823   0.977   9.049  0.1550 -0.5595 -0.1354
   49CHL1  H22B 6090   2.804   0.821   9.001  2.7638  1.2670  3.1175
   49CHL1   C23 6091   2.704   0.968   8.882 -0.1080 -0.2146  0.1249
   49CHL1  H23A 6092   2.664   0.882   8.823 -0.5776 -0.4875  0.8271
   49CHL1  H23B 6093   2.621   1.041   8.896  1.2271  1.1725  0.9474
   49CHL1   C24 6094   2.830   1.035   8.815 -0.1414 -0.1317  1.0008
   49CHL1  H24A 6095   2.848   1.118   8.887  2.2866 -0.6286  0.9883
   49CHL1  H24B 6096   2.920   0.971   8.827  0.4057  0.4505  0.0253
   49CHL1   C25 6097   2.810   1.075   8.667  0.4710  0.4531  0.0108
   49CHL1   H25 6098   2.728   1.149   8.657  0.7383  0.5658 -1.5726
   49CHL1   C26 6099   2.933   1.156   8.629 -0.2940  0.0487 -0.3929
   49CHL1  H26A 6100   3.028   1.100   8.643 -1.9984 -2.0985  3.3060
   49CHL1  H26B 6101   2.927   1.169   8.519  0.9895  1.1827 -0.3405
   49CHL1  H26C 6102   2.926   1.253   8.683 -0.2539 -0.6526  0.9088
   49CHL1   C27 6103   2.780   0.962   8.566  0.1742  0.8229  0.3861
   49CHL1  H27A 6104   2.855   0.883   8.586 -0.0852  0.8827  1.6013
   49CHL1  H27B 6105   2.678   0.917   8.569 -0.8221  2.8874 -0.8337
   49CHL1  H27C 6106   2.792   0.989   8.459 -1.5153  1.2279  0.2787
   50CHL1    C3 6107   5.929   2.394  10.221 -0.2014 -0.5224  0.2610
   50CHL1    H3 6108   5.819   2.401  10.235 -0.3046 -0.3442 -0.5926
   50CHL1    O3 6109   5.979   2.360  10.350 -0.5806 -0.1994  0.0214
   50CHL1   H3' 6110   5.902   2.355  10.407 -0.0246  1.6582  0.9531
   50CHL1    C4 6111   5.970   2.288  10.117 -0.4252 -0.2982  0.1232
   50CHL1   H4A 6112   6.078   2.275  10.139 -0.0391  4.0374  1.1411
   50CHL1   H4B 6113   5.901   2.202  10.129 -0.1694 -0.9252 -2.4305
   50CHL1    C5 6114   5.956   2.334   9.971  0.1400 -0.4654 -0.2888
   50CHL1    C6 6115   5.886   2.255   9.885 -0.5757  0.2862 -0.4206
   50CHL1    H6 6116   5.843   2.157   9.910 -0.0626  0.9647  3.3198
   50CHL1    C7 6117   5.869   2.281   9.739 -0.1998  0.2330 -0.4315
   50CHL1   H7A 6118   5.892   2.191   9.679  1.2264  0.1602  0.1843
   50CHL1   H7B 6119   5.766   2.319   9.721 -0.0242  0.9239 -0.0296
   50CHL1    C8 6120   5.951   2.402   9.691 -0.2214  0.1176 -1.0094
   50CHL1    H8 6121   6.057   2.370   9.677 -0.6749 -2.2778  0.7562
   50CHL1   C14 6122   5.893   2.458   9.559 -0.8721  0.0763  0.1712
   50CHL1   H14 6123   5.792   2.497   9.583 -0.3605  0.9486  0.9083
   50CHL1   C15 6124   5.864   2.362   9.440 -0.0683 -0.0242  0.4513
   50CHL1  H15A 6125   5.944   2.289   9.417 -0.1527 -0.1217  0.4700
   50CHL1  H15B 6126   5.770   2.306   9.454 -0.5964  0.5178 -0.8404
   50CHL1   C16 6127   5.853   2.467   9.324 -0.5331 -0.1897  0.5209
   50CHL1  H16A 6128   5.936   2.449   9.253 -2.1488  3.4487 -2.4289
   50CHL1  H16B 6129   5.755   2.463   9.272 -0.8854  3.6362  0.7601
   50CHL1   C17 6130   5.884   2.605   9.378  0.4720 -0.3245 -0.4400
   50CHL1   H17 6131   5.794   2.656   9.418  1.3156  1.0893 -0.3142
   50CHL1   C13 6132   5.969   2.582   9.503 -0.4712  0.1195  0.1091
   50CHL1   C18 6133   6.109   2.545   9.464  0.3828 -0.6033 -0.0886
   50CHL1  H18A 6134   6.152   2.636   9.417 -2.6431  1.6352  1.2557
   50CHL1  H18B 6135   6.166   2.516   9.555  0.1301  2.1312  1.0183
   50CHL1  H18C 6136   6.119   2.458   9.397  1.3380  0.1260 -0.8992
   50CHL1   C12 6137   5.965   2.696   9.614  0.4064 -0.3784  0.0966
   50CHL1  H12A 6138   6.006   2.792   9.577 -0.7051 -0.8576 -2.5555
   50CHL1  H12B 6139   5.856   2.716   9.620  0.3153 -1.0858  0.8477
   50CHL1   C11 6140   6.029   2.652   9.741 -0.0071 -0.2175 -0.2301
   50CHL1  H11A 6141   6.135   2.625   9.723  0.1304 -0.2786  0.6463
   50CHL1  H11B 6142   6.025   2.731   9.819 -0.6512 -0.5077  0.0321
   50CHL1    C9 6143   5.958   2.519   9.794  0.8244 -0.4358 -0.1720
   50CHL1    H9 6144   5.851   2.545   9.807  1.6252  2.7336  0.5792
   50CHL1   C10 6145   6.005   2.475   9.935  0.2269 -0.1750  0.3881
   50CHL1   C19 6146   6.161   2.448   9.931  0.3639  0.6162  0.5685
   50CHL1  H19A 6147   6.202   2.420  10.031  1.2913  1.7554  0.5227
   50CHL1  H19B 6148   6.195   2.378   9.852  1.7192  1.0352  0.7634
   50CHL1  H19C 6149   6.215   2.537   9.892  0.0760 -0.0213 -1.3316
   50CHL1    C1 6150   5.971   2.583  10.040  0.0104  0.0538 -0.5761
   50CHL1   H1A 6151   6.035   2.671  10.014 -1.4087  1.1772 -0.3151
   50CHL1   H1B 6152   5.866   2.617  10.027  0.0644  0.5400  0.1802
   50CHL1    C2 6153   5.988   2.530  10.187 -0.0127  0.7303  0.8745
   50CHL1   H2A 6154   5.953   2.608  10.259 -0.1422  0.7213  0.8206
   50CHL1   H2B 6155   6.098   2.523  10.203 -0.2205  1.6908  3.0134
   50CHL1   C20 6156   5.939   2.701   9.269 -0.0500  0.9775 -0.0268
   50CHL1   H20 6157   6.044   2.667   9.249 -0.5185  0.8569 -2.4321
   50CHL1   C21 6158   5.955   2.842   9.323 -0.6049 -0.4598  0.6320
   50CHL1  H21A 6159   5.971   2.915   9.240 -0.8058 -0.0483  0.9540
   50CHL1  H21B 6160   6.043   2.845   9.391  1.1257 -0.4187 -1.5443
   50CHL1  H21C 6161   5.864   2.877   9.376  0.0748  1.1170  0.8040
   50CHL1   C22 6162   5.867   2.695   9.123  0.1196 -0.0387  0.1304
   50CHL1  H22A 6163   5.924   2.766   9.059  2.5402 -0.6780  1.5123
   50CHL1  H22B 6164   5.865   2.594   9.077  3.0725 -0.8830  1.7327
   50CHL1   C23 6165   5.722   2.741   9.129  1.0598  0.2193 -0.8730
   50CHL1  H23A 6166   5.661   2.672   9.191 -1.2042  1.8052 -1.2653
   50CHL1  H23B 6167   5.710   2.839   9.181  0.0515 -0.4681  0.2345
   50CHL1   C24 6168   5.652   2.762   8.993  0.1419 -0.7508 -0.7721
   50CHL1  H24A 6169   5.711   2.834   8.934  0.5207 -1.2258 -0.9753
   50CHL1  H24B 6170   5.654   2.661   8.947 -0.2191 -0.7364 -0.8241
   50CHL1   C25 6171   5.504   2.816   9.000  0.2889  0.4049  0.3761
   50CHL1   H25 6172   5.492   2.909   9.058 -1.8790  0.1623  0.3469
   50CHL1   C26 6173   5.443   2.840   8.866  0.7499 -0.1417  0.0247
   50CHL1  H26A 6174   5.345   2.893   8.876  1.9536  1.5996  3.1124
   50CHL1  H26B 6175   5.514   2.899   8.804  1.0767 -0.7408 -0.1745
   50CHL1  H26C 6176   5.422   2.746   8.811  0.7628 -0.0482 -0.1440
   50CHL1   C27 6177   5.418   2.708   9.070 -0.2519 -0.1934  0.5575
   50CHL1  H27A 6178   5.450   2.603   9.052  0.5971  0.2615 -0.5882
   50CHL1  H27B 6179   5.419   2.720   9.181  3.7045 -0.7007  0.6497
   50CHL1  H27C 6180   5.317   2.715   9.024 -1.1871 -2.6363  2.1553
   51CHL1    C3 6181   6.658   4.833  10.204  0.2062 -0.2023  0.9433
   51CHL1    H3 6182   6.661   4.724  10.180 -0.3250 -0.0873  0.3352
   51CHL1    O3 6183   6.650   4.834  10.345  0.1497  0.0003  0.1635
   51CHL1   H3' 6184   6.641   4.928  10.361  3.2708  0.6544 -1.4237
   51CHL1    C4 6185   6.784   4.899  10.150 -0.2441  0.9416  0.0915
   51CHL1   H4A 6186   6.780   5.005  10.186  2.5103  0.6895  1.2814
   51CHL1   H4B 6187   6.871   4.858  10.207  0.1338 -2.0120 -2.5156
   51CHL1    C5 6188   6.781   4.880   9.995  0.1378  0.4128 -0.3533
   51CHL1    C6 6189   6.889   4.813   9.945 -0.1016 -0.1997 -0.4851
   51CHL1    H6 6190   6.979   4.789  10.004  0.0866  0.5030 -0.4842
   51CHL1    C7 6191   6.889   4.773   9.804 -0.6018  0.3348  0.1495
   51CHL1   H7A 6192   6.994   4.791   9.772 -0.1111  0.4600  1.7986
   51CHL1   H7B 6193   6.868   4.665   9.794  2.6421 -0.3937  0.4408
   51CHL1    C8 6194   6.800   4.870   9.719 -0.4030  0.5374 -0.1128
   51CHL1    H8 6195   6.841   4.973   9.715  1.1768 -0.1515 -3.0362
   51CHL1   C14 6196   6.793   4.821   9.572 -0.1816 -0.6574 -0.7001
   51CHL1   H14 6197   6.756   4.716   9.575 -2.8555  0.2121 -2.5062
   51CHL1   C15 6198   6.928   4.806   9.500 -0.0390  0.0784 -0.7220
   51CHL1  H15A 6199   6.994   4.894   9.514  1.0966 -0.1263 -4.3271
   51CHL1  H15B 6200   6.982   4.713   9.530 -1.6380 -0.4646  0.5394
   51CHL1   C16 6201   6.892   4.811   9.353  0.5305 -0.5325 -0.6970
   51CHL1  H16A 6202   6.939   4.896   9.298  1.2553  0.1469  0.9320
   51CHL1  H16B 6203   6.923   4.716   9.306  3.5810 -0.5744  1.2873
   51CHL1   C17 6204   6.735   4.827   9.344 -0.6096 -0.4794  0.2689
   51CHL1   H17 6205   6.689   4.727   9.337  1.5703 -1.5248  0.4097
   51CHL1   C13 6206   6.702   4.894   9.476  0.4211  0.4863 -0.1365
   51CHL1   C18 6207   6.734   5.040   9.467 -0.6836  0.0707 -0.0823
   51CHL1  H18A 6208   6.836   5.066   9.430 -1.2279  0.9861 -0.9532
   51CHL1  H18B 6209   6.661   5.089   9.400  1.2822 -1.1384 -3.2001
   51CHL1  H18C 6210   6.735   5.098   9.562 -0.2671  0.6056 -0.4051
   51CHL1   C12 6211   6.558   4.884   9.532  0.3576  0.0236  0.4848
   51CHL1  H12A 6212   6.485   4.933   9.464  0.4804  1.4549  1.3566
   51CHL1  H12B 6213   6.527   4.777   9.526 -2.1491  0.7319 -0.0787
   51CHL1   C11 6214   6.550   4.938   9.682  0.8352  0.5545  0.8931
   51CHL1  H11A 6215   6.559   5.048   9.682  0.1103  0.6327 -0.9987
   51CHL1  H11B 6216   6.453   4.901   9.720 -0.3009  0.0997 -2.2626
   51CHL1    C9 6217   6.654   4.867   9.775  0.2573 -0.6440 -0.9130
   51CHL1    H9 6218   6.628   4.759   9.772  0.3738 -0.8051  2.1300
   51CHL1   C10 6219   6.653   4.918   9.917 -0.0690  0.8114  0.3929
   51CHL1   C19 6220   6.653   5.071   9.909  0.8544  0.5485  0.3341
   51CHL1  H19A 6221   6.677   5.109  10.011  1.8754 -0.2521  0.4131
   51CHL1  H19B 6222   6.740   5.101   9.847  1.7396 -0.0444  1.2658
   51CHL1  H19C 6223   6.563   5.124   9.872  0.6658 -1.0964 -1.6565
   51CHL1    C1 6224   6.523   4.883   9.993 -0.0297  0.4619  0.0674
   51CHL1   H1A 6225   6.440   4.942   9.950  0.5932  2.6410  1.7671
   51CHL1   H1B 6226   6.503   4.775   9.974 -1.8112  0.7181  0.4007
   51CHL1    C2 6227   6.525   4.891  10.149  0.1226  0.0795 -0.9352
   51CHL1   H2A 6228   6.448   4.822  10.187  0.9985 -0.0140  0.7321
   51CHL1   H2B 6229   6.505   4.995  10.184 -0.6922 -1.2705  2.7661
   51CHL1   C20 6230   6.693   4.895   9.202 -0.0184 -0.2093 -0.4861
   51CHL1   H20 6231   6.725   5.001   9.205  0.7457 -0.4564  2.8700
   51CHL1   C21 6232   6.543   4.891   9.184 -0.3690  0.5473  0.3601
   51CHL1  H21A 6233   6.502   4.788   9.174  0.2933  0.4050 -1.0372
   51CHL1  H21B 6234   6.512   4.943   9.091  1.7142  0.0180 -0.6779
   51CHL1  H21C 6235   6.485   4.940   9.265 -0.3961  1.3063 -0.1102
   51CHL1   C22 6236   6.769   4.825   9.089 -0.3557  0.3047 -0.2061
   51CHL1  H22A 6237   6.869   4.778   9.103 -1.5081 -2.4570 -0.9054
   51CHL1  H22B 6238   6.711   4.732   9.069 -0.1244 -0.1201  1.0279
   51CHL1   C23 6239   6.776   4.908   8.958  0.4435 -0.3711  0.8779
   51CHL1  H23A 6240   6.752   4.848   8.868  0.5886 -0.9008  1.1845
   51CHL1  H23B 6241   6.687   4.973   8.956 -0.8695 -2.1425 -0.1792
   51CHL1   C24 6242   6.917   4.967   8.937  0.2402  0.3576 -0.5350
   51CHL1  H24A 6243   6.947   5.016   9.032 -0.4287  0.7650 -0.5335
   51CHL1  H24B 6244   6.996   4.890   8.929 -0.1461  0.1998 -3.1171
   51CHL1   C25 6245   6.932   5.065   8.821  0.4573  0.0799  0.8298
   51CHL1   H25 6246   6.857   5.144   8.841  1.7312  1.3801  0.4826
   51CHL1   C26 6247   7.072   5.133   8.816 -0.2501  0.3927 -0.4955
   51CHL1  H26A 6248   7.069   5.221   8.749  1.1949  0.8515  0.0178
   51CHL1  H26B 6249   7.098   5.163   8.920  0.2998  0.6702 -0.7104
   51CHL1  H26C 6250   7.152   5.064   8.779 -0.8536 -0.5858  0.0058
   51CHL1   C27 6251   6.902   5.005   8.687  0.3566 -0.3631 -1.0027
   51CHL1  H27A 6252   6.913   5.094   8.622 -3.7442  2.2755  1.6902
   51CHL1  H27B 6253   6.978   4.931   8.655  1.0683  0.3227 -0.9076
   51CHL1  H27C 6254   6.798   4.967   8.675 -0.2690  1.2581 -0.7942
   52CHL1    C3 6255   4.154   3.554  10.024  0.1768  0.2029  0.7663
   52CHL1    H3 6256   4.224   3.467  10.024 -0.4304 -0.3046 -1.3112
   52CHL1    O3 6257   4.118   3.578  10.161  0.9892  0.2406 -0.3965
   52CHL1   H3' 6258   4.123   3.673  10.174 -1.7819  0.2109  1.1101
   52CHL1    C4 6259   4.219   3.678   9.960  0.0644 -0.0607 -0.9612
   52CHL1   H4A 6260   4.148   3.762   9.976  0.0566 -0.2585  0.0598
   52CHL1   H4B 6261   4.307   3.705  10.022 -1.9115  1.2982  1.2958
   52CHL1    C5 6262   4.234   3.658   9.809  0.0003  0.6863  0.3717
   52CHL1    C6 6263   4.351   3.664   9.758  0.1437  1.4180  0.4160
   52CHL1    H6 6264   4.442   3.695   9.810  0.5594  1.4451 -0.3208
   52CHL1    C7 6265   4.377   3.657   9.607  1.0056 -0.0482 -0.3470
   52CHL1   H7A 6266   4.444   3.732   9.561 -2.1827  1.3941 -2.8499
   52CHL1   H7B 6267   4.423   3.562   9.571  0.1297 -0.1196 -1.3178
   52CHL1    C8 6268   4.242   3.652   9.523 -0.5010 -0.0269 -0.4782
   52CHL1    H8 6269   4.204   3.756   9.528 -3.4713 -0.9914 -1.9420
   52CHL1   C14 6270   4.276   3.609   9.378 -0.9608 -0.7255 -0.2793
   52CHL1   H14 6271   4.317   3.506   9.383  1.7322  0.3399  0.2132
   52CHL1   C15 6272   4.392   3.685   9.298  0.2270 -0.7208 -0.1698
   52CHL1  H15A 6273   4.380   3.796   9.299  0.1273 -0.7321  1.1187
   52CHL1  H15B 6274   4.482   3.674   9.362 -0.3195  0.1119  0.7694
   52CHL1   C16 6275   4.382   3.616   9.160 -0.2638 -0.8548 -0.2041
   52CHL1  H16A 6276   4.395   3.702   9.092  1.8887  0.5745  1.9338
   52CHL1  H16B 6277   4.466   3.544   9.149  0.0468 -0.2752 -1.7590
   52CHL1   C17 6278   4.244   3.549   9.156 -0.0362  0.8627  0.1496
   52CHL1   H17 6279   4.261   3.440   9.169  0.6852  0.7653 -1.5210
   52CHL1   C13 6280   4.156   3.601   9.280 -0.2755 -0.3219 -0.4285
   52CHL1   C18 6281   4.097   3.746   9.255 -0.0835 -0.3036  0.0913
   52CHL1  H18A 6282   4.013   3.738   9.182 -0.1254 -0.6117  0.1756
   52CHL1  H18B 6283   4.068   3.805   9.344  1.1945  1.4617 -0.6202
   52CHL1  H18C 6284   4.172   3.814   9.207 -1.3921  2.7039  2.1570
   52CHL1   C12 6285   4.061   3.503   9.350  0.8025 -0.2696  0.2291
   52CHL1  H12A 6286   3.971   3.502   9.285  0.7104 -1.4253  0.3523
   52CHL1  H12B 6287   4.091   3.396   9.350 -0.2020 -0.5703 -1.7934
   52CHL1   C11 6288   4.016   3.538   9.492 -0.3791 -0.1855 -0.2540
   52CHL1  H11A 6289   3.959   3.633   9.483  0.0473  0.0732 -0.2204
   52CHL1  H11B 6290   3.947   3.461   9.533 -1.5490  0.8612 -0.2552
   52CHL1    C9 6291   4.138   3.559   9.594  0.0120 -0.1168  0.3747
   52CHL1    H9 6292   4.185   3.460   9.608  0.2636  0.0380  0.6077
   52CHL1   C10 6293   4.103   3.616   9.731 -0.4504  0.2225  0.7627
   52CHL1   C19 6294   3.995   3.732   9.724 -0.1164  0.1125 -0.6861
   52CHL1  H19A 6295   3.996   3.784   9.822  1.9374  2.1596 -1.7394
   52CHL1  H19B 6296   4.026   3.811   9.652  1.1980  0.4462  0.2205
   52CHL1  H19C 6297   3.893   3.692   9.707  0.2204 -2.1653  2.3250
   52CHL1    C1 6298   4.044   3.501   9.815  0.4923  0.0269  0.0749
   52CHL1   H1A 6299   3.949   3.469   9.767  0.7056  1.0848 -1.0832
   52CHL1   H1B 6300   4.118   3.418   9.808  0.9166  0.5576 -2.2329
   52CHL1    C2 6301   4.020   3.533   9.958  0.8094 -0.5200  0.4311
   52CHL1   H2A 6302   3.963   3.454  10.011 -2.4734  0.9211 -0.7496
   52CHL1   H2B 6303   3.952   3.621   9.958  0.3471 -0.8686  0.0219
   52CHL1   C20 6304   4.178   3.559   9.016 -0.8843  0.0272  0.9074
   52CHL1   H20 6305   4.141   3.662   8.996 -0.4996  0.2227  1.2061
   52CHL1   C21 6306   4.059   3.461   9.007 -0.1594 -0.2736 -0.6825
   52CHL1  H21A 6307   3.972   3.495   9.067  0.4502  1.1903 -0.6015
   52CHL1  H21B 6308   4.085   3.358   9.039  0.7644  0.2409  0.2814
   52CHL1  H21C 6309   4.022   3.452   8.903  1.0447  1.3293 -1.2737
   52CHL1   C22 6310   4.277   3.535   8.896  0.3008  0.2319 -0.3059
   52CHL1  H22A 6311   4.213   3.544   8.806 -0.5517  1.3186  0.3898
   52CHL1  H22B 6312   4.363   3.604   8.902 -3.3578  5.1621 -1.0653
   52CHL1   C23 6313   4.332   3.389   8.879 -0.1409 -0.1598  0.1206
   52CHL1  H23A 6314   4.385   3.372   8.975 -1.0090  1.9483  1.0106
   52CHL1  H23B 6315   4.252   3.313   8.864 -0.1977 -0.0052 -0.3707
   52CHL1   C24 6316   4.442   3.358   8.769  0.2749 -0.7652  0.0921
   52CHL1  H24A 6317   4.392   3.370   8.671 -1.4055 -1.1017  0.8923
   52CHL1  H24B 6318   4.513   3.444   8.774 -0.9899  0.3255 -0.3724
   52CHL1   C25 6319   4.522   3.228   8.782 -0.3303  0.4122  0.5101
   52CHL1   H25 6320   4.591   3.219   8.696 -1.2109  4.0101 -0.6545
   52CHL1   C26 6321   4.617   3.227   8.906  0.4038 -0.0083 -0.0018
   52CHL1  H26A 6322   4.682   3.317   8.903  0.2313  0.1121 -0.1421
   52CHL1  H26B 6323   4.553   3.227   8.997  1.4483  3.0954  0.8126
   52CHL1  H26C 6324   4.682   3.137   8.902  0.1673 -0.2099  0.6298
   52CHL1   C27 6325   4.432   3.097   8.774 -0.8864  0.3050 -0.2744
   52CHL1  H27A 6326   4.393   3.090   8.670 -0.6741 -2.1415 -0.2083
   52CHL1  H27B 6327   4.486   3.003   8.796 -0.7082  0.6919  0.9508
   52CHL1  H27C 6328   4.340   3.099   8.836  0.6884 -0.5271  2.1477
   53CHL1    C3 6329   4.937   2.998  10.122 -0.0416 -0.5125 -0.2242
   53CHL1    H3 6330   4.891   2.897  10.126 -0.3212 -0.4851 -2.1611
   53CHL1    O3 6331   4.956   3.056  10.252  0.4025 -0.5085  0.2324
   53CHL1   H3' 6332   4.998   3.141  10.246  0.9876 -0.9706 -3.2074
   53CHL1    C4 6333   5.077   3.002  10.058 -0.8499  0.3596  0.3562
   53CHL1   H4A 6334   5.116   3.106  10.048  0.2941  0.0061  1.0843
   53CHL1   H4B 6335   5.139   2.943  10.129  1.0218  1.4837 -0.2808
   53CHL1    C5 6336   5.062   2.942   9.918 -0.7504  0.2905 -0.0526
   53CHL1    C6 6337   5.129   2.836   9.878  0.0829  0.3473 -0.9911
   53CHL1    H6 6338   5.199   2.781   9.942 -0.3087  1.0179  0.0263
   53CHL1    C7 6339   5.112   2.783   9.736  0.0160 -0.4127 -0.5078
   53CHL1   H7A 6340   5.209   2.738   9.705 -0.0029  0.0406 -1.2313
   53CHL1   H7B 6341   5.041   2.698   9.741 -0.8504  0.4170  3.5257
   53CHL1    C8 6342   5.059   2.887   9.635 -0.2171 -0.2612 -0.1881
   53CHL1    H8 6343   5.141   2.961   9.618 -3.8759  3.5902 -2.1353
   53CHL1   C14 6344   5.018   2.824   9.502  0.4820  0.1150  0.1520
   53CHL1   H14 6345   4.929   2.761   9.523 -0.3144  1.7263  1.7634
   53CHL1   C15 6346   5.127   2.729   9.440 -0.5326  0.0662 -0.0553
   53CHL1  H15A 6347   5.231   2.764   9.451 -0.7239  0.5784  0.1185
   53CHL1  H15B 6348   5.107   2.625   9.474  0.8583 -0.1617  0.0667
   53CHL1   C16 6349   5.087   2.725   9.292  0.1609 -0.0666 -0.0815
   53CHL1  H16A 6350   5.172   2.756   9.229 -0.1522 -0.5741 -0.7583
   53CHL1  H16B 6351   5.064   2.620   9.262 -0.8591  0.2308 -0.3543
   53CHL1   C17 6352   4.967   2.822   9.270  0.7991 -0.0122  0.6793
   53CHL1   H17 6353   4.878   2.757   9.284  0.3731  0.7327  1.4864
   53CHL1   C13 6354   4.970   2.916   9.397  0.1967  0.1942 -0.4260
   53CHL1   C18 6355   5.073   3.024   9.370 -0.6378  0.6903 -0.3653
   53CHL1  H18A 6356   5.100   3.091   9.454  0.6753 -0.0670 -0.1777
   53CHL1  H18B 6357   5.172   2.988   9.335 -0.6009 -0.1944  0.6635
   53CHL1  H18C 6358   5.036   3.088   9.286 -1.4767  2.1131  1.0618
   53CHL1   C12 6359   4.845   2.985   9.453  0.2414 -0.0258 -0.2938
   53CHL1  H12A 6360   4.823   3.069   9.383 -2.8767 -1.2129 -0.8401
   53CHL1  H12B 6361   4.759   2.915   9.446  0.3604 -0.4625  2.2952
   53CHL1   C11 6362   4.865   3.053   9.596 -1.1568  0.2087  1.1849
   53CHL1  H11A 6363   4.927   3.143   9.577  1.4476 -1.6839  0.2299
   53CHL1  H11B 6364   4.777   3.101   9.643 -0.3494  0.8062  2.1136
   53CHL1    C9 6365   4.937   2.957   9.691  0.3019  0.3347  0.0014
   53CHL1    H9 6366   4.866   2.876   9.715  0.6848 -0.0645 -0.2066
   53CHL1   C10 6367   4.966   3.019   9.827  0.0200 -0.6915  0.7877
   53CHL1   C19 6368   5.022   3.162   9.809  0.0423  0.3490  0.3668
   53CHL1  H19A 6369   5.098   3.166   9.727  1.9139  0.0347  2.0405
   53CHL1  H19B 6370   4.944   3.225   9.762 -0.7797 -0.7776  0.1928
   53CHL1  H19C 6371   5.044   3.217   9.903  1.9423 -0.2613  0.3134
   53CHL1    C1 6372   4.826   3.043   9.899  0.9004  0.2081 -0.5621
   53CHL1   H1A 6373   4.770   3.125   9.850  0.3441  0.9984  1.3466
   53CHL1   H1B 6374   4.766   2.951   9.881 -0.0459  0.5532  0.7855
   53CHL1    C2 6375   4.838   3.084  10.047  0.3959  0.4287 -0.5895
   53CHL1   H2A 6376   4.738   3.075  10.096  0.9726  1.5147  0.8233
   53CHL1   H2B 6377   4.868   3.191  10.050  2.7394 -0.2174  0.0248
   53CHL1   C20 6378   4.956   2.886   9.125 -0.5890 -0.1674  0.0317
   53CHL1   H20 6379   5.037   2.962   9.113 -0.4968 -0.3408 -0.4720
   53CHL1   C21 6380   4.820   2.957   9.112 -0.7502  0.1330 -0.2073
   53CHL1  H21A 6381   4.739   2.905   9.168 -0.7743  3.1561  2.7440
   53CHL1  H21B 6382   4.790   2.984   9.009  0.0190  0.2602 -0.3987
   53CHL1  H21C 6383   4.831   3.050   9.172  2.0847 -0.8057  0.8153
   53CHL1   C22 6384   4.962   2.769   9.024 -0.1474 -0.6427 -0.2866
   53CHL1  H22A 6385   5.058   2.716   9.042  1.2034  1.6745 -0.5525
   53CHL1  H22B 6386   4.876   2.702   9.049  0.1933 -1.6656 -1.7372
   53CHL1   C23 6387   4.955   2.816   8.876  0.2064 -0.4201  0.1380
   53CHL1  H23A 6388   4.847   2.822   8.851 -0.2440 -0.3767  2.0284
   53CHL1  H23B 6389   4.994   2.920   8.866 -1.5353  0.3265  0.8644
   53CHL1   C24 6390   5.030   2.725   8.781  0.0183  0.6591  0.4025
   53CHL1  H24A 6391   5.130   2.709   8.827 -0.4044 -0.8075  0.8316
   53CHL1  H24B 6392   4.979   2.627   8.785  1.9859 -0.3220  2.2626
   53CHL1   C25 6393   5.035   2.778   8.638 -0.0282 -0.3759  0.0878
   53CHL1   H25 6394   4.929   2.796   8.612 -0.1427  1.9791  2.0070
   53CHL1   C26 6395   5.129   2.901   8.629 -0.1650 -0.2464  0.0000
   53CHL1  H26A 6396   5.225   2.886   8.684 -0.5578 -0.7475  0.5462
   53CHL1  H26B 6397   5.148   2.929   8.523  1.3189  0.2958  0.3907
   53CHL1  H26C 6398   5.079   2.989   8.675  2.6786  2.2111 -1.4425
   53CHL1   C27 6399   5.096   2.670   8.547 -0.6903 -0.0361  0.0515
   53CHL1  H27A 6400   5.125   2.713   8.449  2.4848  0.9372  1.3377
   53CHL1  H27B 6401   5.189   2.621   8.584 -1.4477 -1.0030  0.7006
   53CHL1  H27C 6402   5.021   2.588   8.550 -0.5156 -0.1516  1.3476
   54CHL1    C3 6403   4.568   4.750  10.118  1.1862 -0.6651  0.5300
   54CHL1    H3 6404   4.484   4.685  10.084 -0.2148  1.0436  0.6056
   54CHL1    O3 6405   4.549   4.790  10.257  0.0427 -0.2399  0.3556
   54CHL1   H3' 6406   4.623   4.848  10.274 -0.1461 -0.4000  1.7345
   54CHL1    C4 6407   4.704   4.680  10.097  0.2059 -0.3230  0.6758
   54CHL1   H4A 6408   4.794   4.728  10.141  1.1945  1.0307 -2.6826
   54CHL1   H4B 6409   4.692   4.583  10.151 -0.2338 -0.9151 -0.4558
   54CHL1    C5 6410   4.731   4.632   9.960  0.3833  0.3236 -0.0768
   54CHL1    C6 6411   4.752   4.500   9.923  0.2132  0.0992 -0.6439
   54CHL1    H6 6412   4.772   4.418   9.994  0.1577 -0.6455 -1.4742
   54CHL1    C7 6413   4.764   4.454   9.787  0.5866 -0.2910 -0.2533
   54CHL1   H7A 6414   4.848   4.382   9.780 -0.7896 -1.9279 -0.5089
   54CHL1   H7B 6415   4.666   4.410   9.756  0.1378 -0.4877  1.3771
   54CHL1    C8 6416   4.801   4.568   9.685  0.6424 -0.5072  0.0085
   54CHL1    H8 6417   4.903   4.595   9.719 -0.4875  0.4675  2.8188
   54CHL1   C14 6418   4.785   4.522   9.549 -0.4818 -0.0460 -0.2558
   54CHL1   H14 6419   4.676   4.501   9.538 -0.8349  0.9220  1.1611
   54CHL1   C15 6420   4.851   4.384   9.513  0.0970 -0.0671 -0.5545
   54CHL1  H15A 6421   4.950   4.381   9.562  0.3885  0.0310 -1.1289
   54CHL1  H15B 6422   4.792   4.300   9.555  1.8595 -0.4562  1.2161
   54CHL1   C16 6423   4.866   4.389   9.363  0.6451  0.0797 -0.6209
   54CHL1  H16A 6424   4.976   4.394   9.347  0.6491  2.7552 -0.0769
   54CHL1  H16B 6425   4.823   4.298   9.316  2.3414 -0.4694 -1.1383
   54CHL1   C17 6426   4.818   4.532   9.315 -0.5258 -0.3381 -0.6110
   54CHL1   H17 6427   4.711   4.527   9.286 -0.2483 -0.5383 -1.6199
   54CHL1   C13 6428   4.826   4.623   9.447 -0.2577  0.2973  0.6922
   54CHL1   C18 6429   4.973   4.662   9.464 -0.3471  1.0169 -0.1434
   54CHL1  H18A 6430   5.044   4.580   9.441 -1.0814  0.4482 -0.3881
   54CHL1  H18B 6431   4.994   4.746   9.394  3.8467 -0.5131 -0.8465
   54CHL1  H18C 6432   4.995   4.701   9.566 -1.6840 -0.1873  0.6100
   54CHL1   C12 6433   4.723   4.736   9.458 -0.4647  0.0079  0.4128
   54CHL1  H12A 6434   4.727   4.809   9.374 -1.4681 -2.6232 -2.0030
   54CHL1  H12B 6435   4.623   4.688   9.448 -0.3344  0.2332 -2.4744
   54CHL1   C11 6436   4.738   4.798   9.601  0.1177  0.7026  0.4319
   54CHL1  H11A 6437   4.842   4.835   9.611  1.3503 -2.6554  0.8631
   54CHL1  H11B 6438   4.669   4.883   9.622 -1.1890  0.2433 -1.8536
   54CHL1    C9 6439   4.712   4.693   9.712  0.3282 -0.0148  0.9751
   54CHL1    H9 6440   4.605   4.664   9.704  0.1810 -0.1203  3.1425
   54CHL1   C10 6441   4.718   4.749   9.853 -0.0811 -0.1175  0.5545
   54CHL1   C19 6442   4.852   4.832   9.871  0.9978 -0.3574  0.0003
   54CHL1  H19A 6443   4.847   4.928   9.816 -0.6262  1.4440  3.1540
   54CHL1  H19B 6444   4.887   4.863   9.971 -1.2603 -0.9862  1.0193
   54CHL1  H19C 6445   4.939   4.778   9.828  1.4398 -0.0473  0.5086
   54CHL1    C1 6446   4.594   4.839   9.875 -0.8074 -0.0478 -1.0909
   54CHL1   H1A 6447   4.604   4.938   9.825  0.3843  0.7966  0.7534
   54CHL1   H1B 6448   4.504   4.783   9.841 -1.5040  0.5700 -0.2779
   54CHL1    C2 6449   4.565   4.877  10.021 -0.4817  0.1295 -0.0427
   54CHL1   H2A 6450   4.467   4.928  10.031  0.3009  1.6701  0.0276
   54CHL1   H2B 6451   4.642   4.946  10.062 -1.5264  0.9800  0.5051
   54CHL1   C20 6452   4.896   4.575   9.185 -0.4205  0.0740 -0.3623
   54CHL1   H20 6453   5.003   4.597   9.205 -0.3682  1.4471 -2.0695
   54CHL1   C21 6454   4.838   4.716   9.147  0.5264  1.1679 -0.3622
   54CHL1  H21A 6455   4.727   4.723   9.144  0.5239  1.0520 -0.5851
   54CHL1  H21B 6456   4.866   4.745   9.044 -3.3179  0.9148 -1.5625
   54CHL1  H21C 6457   4.880   4.793   9.215 -0.6199  0.6806  0.9328
   54CHL1   C22 6458   4.894   4.467   9.070 -0.6779  0.0562  0.6610
   54CHL1  H22A 6459   4.952   4.514   8.988 -0.2962  1.8647  1.9397
   54CHL1  H22B 6460   4.949   4.374   9.094  1.9189  0.5874 -2.7887
   54CHL1   C23 6461   4.752   4.442   9.013  0.6779 -0.4001 -0.2441
   54CHL1  H23A 6462   4.698   4.432   9.109  0.9608  0.1926 -0.0183
   54CHL1  H23B 6463   4.710   4.534   8.966  0.8626 -1.6809 -3.0241
   54CHL1   C24 6464   4.736   4.314   8.926 -0.0222 -0.2114 -0.5911
   54CHL1  H24A 6465   4.767   4.230   8.992  1.9004  1.0722  0.2176
   54CHL1  H24B 6466   4.631   4.297   8.896 -0.2065  1.0352 -0.6867
   54CHL1   C25 6467   4.818   4.324   8.797  0.3079  0.3055 -0.8268
   54CHL1   H25 6468   4.916   4.373   8.819  0.7141 -0.4456 -0.9344
   54CHL1   C26 6469   4.844   4.182   8.743  0.1109  0.6228  0.5905
   54CHL1  H26A 6470   4.751   4.122   8.728 -0.6394  2.3330 -1.8275
   54CHL1  H26B 6471   4.881   4.173   8.639 -2.1729  3.1294 -0.4866
   54CHL1  H26C 6472   4.902   4.131   8.823 -0.8602  0.1383  1.0034
   54CHL1   C27 6473   4.744   4.393   8.688  0.2108 -0.7205 -0.4660
   54CHL1  H27A 6474   4.732   4.501   8.708  0.0266 -0.9284  0.5684
   54CHL1  H27B 6475   4.790   4.396   8.587  1.5495  0.3265  0.1603
   54CHL1  H27C 6476   4.642   4.348   8.687 -0.0921 -0.0912  1.1170
   55CHL1    C3 6477   5.648   1.814  10.250 -0.1021 -0.1307  0.8635
   55CHL1    H3 6478   5.715   1.725  10.250 -0.8243 -0.7326 -2.1224
   55CHL1    O3 6479   5.608   1.862  10.379  0.5627 -0.2579 -0.3749
   55CHL1   H3' 6480   5.534   1.918  10.357  0.2853 -1.2111 -2.0040
   55CHL1    C4 6481   5.728   1.921  10.177  0.0375  0.0001  0.5674
   55CHL1   H4A 6482   5.670   2.016  10.186  2.9619  1.9066  0.0064
   55CHL1   H4B 6483   5.815   1.930  10.245  1.1490 -0.0025 -0.8352
   55CHL1    C5 6484   5.771   1.882  10.035 -0.4500 -0.4750 -0.2312
   55CHL1    C6 6485   5.904   1.888  10.002  0.5218  0.3565  0.0616
   55CHL1    H6 6486   5.971   1.915  10.084  2.1159  0.3064 -1.2059
   55CHL1    C7 6487   5.956   1.872   9.865  0.0986  0.2359 -0.1968
   55CHL1   H7A 6488   6.032   1.946   9.833  1.3874 -1.8167 -2.1072
   55CHL1   H7B 6489   5.994   1.768   9.855 -3.6016 -1.3646  1.6243
   55CHL1    C8 6490   5.844   1.873   9.756  0.1469  0.3154 -0.9927
   55CHL1    H8 6491   5.833   1.983   9.754  0.1427  0.3430  0.2421
   55CHL1   C14 6492   5.895   1.805   9.626  0.1214 -0.6004  0.0319
   55CHL1   H14 6493   5.911   1.696   9.641  2.1887 -0.1783  1.0162
   55CHL1   C15 6494   6.032   1.850   9.577 -0.1043 -0.2214 -0.8292
   55CHL1  H15A 6495   6.059   1.957   9.587  0.9676 -0.6043  0.7277
   55CHL1  H15B 6496   6.105   1.790   9.636 -3.0103 -0.6730  2.4921
   55CHL1   C16 6497   6.031   1.817   9.428 -0.2568  0.0254 -0.8504
   55CHL1  H16A 6498   6.061   1.895   9.356  3.6729 -0.4584  0.1397
   55CHL1  H16B 6499   6.095   1.726   9.418 -0.0499 -0.0865  1.1071
   55CHL1   C17 6500   5.889   1.762   9.400 -0.4221  0.5357 -0.2989
   55CHL1   H17 6501   5.890   1.651   9.405 -0.3078  0.5793  0.6600
   55CHL1   C13 6502   5.800   1.819   9.512  0.0899  0.0348 -0.0113
   55CHL1   C18 6503   5.761   1.964   9.482 -0.0243  0.0820 -0.3277
   55CHL1  H18A 6504   5.852   2.012   9.439 -1.0807 -0.3138 -3.1001
   55CHL1  H18B 6505   5.668   1.976   9.423  0.0512 -0.4001 -0.5489
   55CHL1  H18C 6506   5.739   2.009   9.581 -0.8130 -2.9955  0.9508
   55CHL1   C12 6507   5.683   1.732   9.552  0.6732 -0.0004 -0.4128
   55CHL1  H12A 6508   5.620   1.730   9.461  1.1936 -2.1906 -0.7430
   55CHL1  H12B 6509   5.723   1.631   9.576 -0.3874 -0.2147  0.4519
   55CHL1   C11 6510   5.619   1.792   9.679 -0.2277 -0.0095  0.0160
   55CHL1  H11A 6511   5.573   1.891   9.663 -0.0168  0.0514 -0.2102
   55CHL1  H11B 6512   5.534   1.729   9.715 -0.0305  0.7503  1.8950
   55CHL1    C9 6513   5.717   1.806   9.798  0.0365  0.6849  0.4699
   55CHL1    H9 6514   5.751   1.701   9.813 -0.7043  0.4927  0.8086
   55CHL1   C10 6515   5.660   1.855   9.940  0.0283  0.1654  0.2236
   55CHL1   C19 6516   5.588   1.987   9.918 -0.1024 -0.5252 -0.2051
   55CHL1  H19A 6517   5.576   2.043  10.013  0.5986 -2.8878  1.3349
   55CHL1  H19B 6518   5.648   2.049   9.848  3.1741  0.3642  3.2348
   55CHL1  H19C 6519   5.485   1.966   9.881  0.0419 -0.8578 -0.4289
   55CHL1    C1 6520   5.579   1.737  10.006 -0.5532  0.0723  0.6410
   55CHL1   H1A 6521   5.503   1.714   9.928 -0.0021  1.5912 -0.3663
   55CHL1   H1B 6522   5.645   1.649  10.023  0.3671  0.2370 -1.7639
   55CHL1    C2 6523   5.534   1.774  10.154  0.1961  0.1820  0.1172
   55CHL1   H2A 6524   5.489   1.684  10.201  0.8775 -0.8375 -1.1613
   55CHL1   H2B 6525   5.461   1.859  10.154 -0.3229 -0.2559  0.4969
   55CHL1   C20 6526   5.855   1.791   9.250 -0.0205 -0.1201  0.3048
   55CHL1   H20 6527   5.863   1.901   9.239  0.0015 -0.2353 -0.8387
   55CHL1   C21 6528   5.708   1.761   9.214  0.6623 -0.0828 -0.6752
   55CHL1  H21A 6529   5.677   1.655   9.218  0.7412 -0.0995 -0.5098
   55CHL1  H21B 6530   5.689   1.803   9.113 -1.0375  0.5306 -0.1202
   55CHL1  H21C 6531   5.647   1.829   9.279  0.9987  0.3726 -0.8333
   55CHL1   C22 6532   5.954   1.727   9.148 -0.3862  0.6180 -0.0417
   55CHL1  H22A 6533   6.061   1.738   9.177 -0.1216  0.5733 -0.9821
   55CHL1  H22B 6534   5.930   1.619   9.134  0.1067  0.5325 -0.2588
   55CHL1   C23 6535   5.941   1.793   9.008  0.0415  0.0325 -0.1663
   55CHL1  H23A 6536   5.838   1.778   8.970  0.8027 -1.4910 -1.6979
   55CHL1  H23B 6537   5.962   1.902   9.007 -1.0492  0.2432 -1.4831
   55CHL1   C24 6538   6.038   1.739   8.900  0.0438 -0.4302 -0.8884
   55CHL1  H24A 6539   6.132   1.795   8.917  0.5856 -1.6376  0.1552
   55CHL1  H24B 6540   6.061   1.631   8.915  1.8312  0.2042  1.2118
   55CHL1   C25 6541   6.000   1.769   8.757  0.0752 -0.0554  0.6247
   55CHL1   H25 6542   6.085   1.763   8.687 -1.5560 -0.1699 -1.3983
   55CHL1   C26 6543   5.902   1.656   8.706  0.5345  0.2625  0.1666
   55CHL1  H26A 6544   5.887   1.662   8.596  2.8258  1.4008 -0.1041
   55CHL1  H26B 6545   5.937   1.551   8.713 -2.7419 -0.9317 -0.6098
   55CHL1  H26C 6546   5.804   1.659   8.758  0.2640 -2.5904 -0.0683
   55CHL1   C27 6547   5.932   1.909   8.744  0.3051 -0.4665  0.5153
   55CHL1  H27A 6548   5.918   1.938   8.638  0.6255 -0.8595  0.3655
   55CHL1  H27B 6549   5.828   1.903   8.783  1.4416  0.8915  3.9292
   55CHL1  H27C 6550   6.008   1.969   8.799  0.1139 -2.4032  2.9846
   56CHL1    C3 6551   3.791   1.013  10.138  0.3783  0.4519 -0.1771
   56CHL1    H3 6552   3.897   0.986  10.118  0.4504  0.0116  0.7387
   56CHL1    O3 6553   3.758   1.002  10.275  0.1895 -0.0449  0.0242
   56CHL1   H3' 6554   3.662   0.993  10.273  0.2013 -0.8510  2.2040
   56CHL1    C4 6555   3.770   1.163  10.104  0.0931  0.1726 -0.2238
   56CHL1   H4A 6556   3.673   1.199  10.144  0.7237  0.6358  0.9280
   56CHL1   H4B 6557   3.848   1.225  10.154  1.0527 -1.2824  0.1131
   56CHL1    C5 6558   3.777   1.197   9.964  0.4513  0.1867  0.2704
   56CHL1    C6 6559   3.855   1.300   9.928 -0.1666  0.1859 -0.0259
   56CHL1    H6 6560   3.893   1.366  10.007  2.0288 -1.1143  0.0503
   56CHL1    C7 6561   3.880   1.348   9.783  0.2783  0.1814 -0.2319
   56CHL1   H7A 6562   3.857   1.456   9.774  0.0602  0.1652  0.1239
   56CHL1   H7B 6563   3.982   1.327   9.745 -0.2220 -0.1590 -1.4282
   56CHL1    C8 6564   3.781   1.278   9.687  0.4567  0.5196 -0.6089
   56CHL1    H8 6565   3.682   1.321   9.710  1.4694  3.1685 -1.0770
   56CHL1   C14 6566   3.823   1.300   9.534  0.9972  0.2532  0.0175
   56CHL1   H14 6567   3.921   1.248   9.526  0.4919 -1.0113  1.8827
   56CHL1   C15 6568   3.852   1.441   9.470 -0.0364  0.5689 -0.5083
   56CHL1  H15A 6569   3.782   1.514   9.517 -1.9440 -1.5927  0.1238
   56CHL1  H15B 6570   3.955   1.471   9.497  0.4867 -0.5300 -1.2266
   56CHL1   C16 6571   3.841   1.416   9.324  0.4386  0.6697 -0.1321
   56CHL1  H16A 6572   3.745   1.468   9.304 -1.0424 -0.5863  3.2697
   56CHL1  H16B 6573   3.919   1.456   9.256  0.6648  0.4240 -0.0208
   56CHL1   C17 6574   3.811   1.263   9.304 -0.2303  0.2148  0.3695
   56CHL1   H17 6575   3.909   1.213   9.321  0.7977  2.8270  2.5589
   56CHL1   C13 6576   3.732   1.224   9.428  0.5549  0.1110 -0.8251
   56CHL1   C18 6577   3.584   1.278   9.436  0.1897  1.0450 -0.9619
   56CHL1  H18A 6578   3.562   1.387   9.430 -0.0180  1.0295 -0.4936
   56CHL1  H18B 6579   3.522   1.232   9.356 -0.0400 -0.3920  0.0295
   56CHL1  H18C 6580   3.530   1.253   9.530  3.1517 -1.3843  0.1972
   56CHL1   C12 6581   3.742   1.070   9.459  0.2457 -0.0668  0.1735
   56CHL1  H12A 6582   3.667   1.019   9.395  1.6238 -1.8013 -0.1211
   56CHL1  H12B 6583   3.845   1.035   9.436 -0.5198 -3.2058  1.2806
   56CHL1   C11 6584   3.702   1.040   9.604  1.0867  0.1958 -0.0164
   56CHL1  H11A 6585   3.592   1.051   9.611  1.0518 -0.6793  0.8851
   56CHL1  H11B 6586   3.733   0.934   9.615  1.1411  0.3857  1.7715
   56CHL1    C9 6587   3.766   1.124   9.717 -0.7264 -0.0147  0.0780
   56CHL1    H9 6588   3.870   1.085   9.721  0.1843  2.1811 -1.3630
   56CHL1   C10 6589   3.715   1.100   9.863  0.3881 -0.4419  0.7200
   56CHL1   C19 6590   3.559   1.122   9.862  0.2168 -0.7847 -0.0520
   56CHL1  H19A 6591   3.516   1.022   9.840  0.0066 -0.0399 -3.2525
   56CHL1  H19B 6592   3.524   1.146   9.965  1.1009  0.8441 -0.1159
   56CHL1  H19C 6593   3.511   1.197   9.796 -0.0026 -0.6831  0.2239
   56CHL1    C1 6594   3.737   0.950   9.904  0.0985  0.3127 -0.1260
   56CHL1   H1A 6595   3.689   0.882   9.831 -1.4519  1.3040 -0.0382
   56CHL1   H1B 6596   3.845   0.924   9.891  0.1008 -0.7456  1.8379
   56CHL1    C2 6597   3.702   0.929  10.049  0.0985 -1.3065  0.7534
   56CHL1   H2A 6598   3.710   0.821  10.076  0.7652 -1.7156 -0.9942
   56CHL1   H2B 6599   3.595   0.956  10.058  1.3253  3.2880  2.5147
   56CHL1   C20 6600   3.772   1.211   9.165 -0.6915  0.8395 -0.1146
   56CHL1   H20 6601   3.750   1.102   9.159 -0.7688  0.9064 -1.0983
   56CHL1   C21 6602   3.895   1.234   9.084  0.4230 -0.1063  0.2351
   56CHL1  H21A 6603   3.940   1.335   9.085  3.0445 -1.2445  0.2398
   56CHL1  H21B 6604   3.883   1.211   8.976 -1.7831 -0.1516  0.4649
   56CHL1  H21C 6605   3.979   1.172   9.122 -1.9606 -2.2326  2.2455
   56CHL1   C22 6606   3.647   1.279   9.100 -0.6188 -0.3120 -0.1075
   56CHL1  H22A 6607   3.554   1.276   9.161 -1.5105  1.2673 -1.3310
   56CHL1  H22B 6608   3.686   1.379   9.070 -0.9208 -1.1156 -3.3756
   56CHL1   C23 6609   3.602   1.215   8.966 -0.3659  0.2451 -0.7025
   56CHL1  H23A 6610   3.685   1.233   8.895  0.0694  1.7877  0.1737
   56CHL1  H23B 6611   3.590   1.105   8.982 -2.1452  0.3174 -1.4638
   56CHL1   C24 6612   3.476   1.275   8.897 -0.2463  0.1538 -0.8250
   56CHL1  H24A 6613   3.397   1.305   8.970  1.7396  0.2856  1.3279
   56CHL1  H24B 6614   3.512   1.368   8.848 -1.8409  0.5591 -1.2589
   56CHL1   C25 6615   3.404   1.197   8.785 -0.0261 -0.9596 -0.4337
   56CHL1   H25 6616   3.478   1.183   8.702 -1.0449  4.2547 -2.4077
   56CHL1   C26 6617   3.367   1.057   8.827 -0.0060  0.3638  0.6404
   56CHL1  H26A 6618   3.304   1.043   8.918 -0.7677  0.8144  0.1875
   56CHL1  H26B 6619   3.331   0.998   8.740 -1.4945  0.4280  1.1953
   56CHL1  H26C 6620   3.456   1.003   8.865  1.1158  2.1435  0.5791
   56CHL1   C27 6621   3.272   1.264   8.734  0.0773  0.4342  0.5545
   56CHL1  H27A 6622   3.242   1.211   8.641  1.9542  2.9386 -1.5363
   56CHL1  H27B 6623   3.191   1.233   8.804 -1.5076  0.1571 -1.3627
   56CHL1  H27C 6624   3.265   1.373   8.714 -2.1667 -0.1537 -2.0677
   57CHL1    C3 6625   5.552   3.180  10.249  1.3784  0.0867  0.0920
   57CHL1    H3 6626   5.461   3.243  10.238  1.8756  0.8047  0.0863
   57CHL1    O3 6627   5.573   3.163  10.392 -0.1214 -0.0722  0.0281
   57CHL1   H3' 6628   5.661   3.127  10.402 -0.7786 -1.5822  0.5811
   57CHL1    C4 6629   5.536   3.043  10.184 -0.0378 -0.8159  0.0649
   57CHL1   H4A 6630   5.625   2.982  10.211  0.1224 -1.3259 -1.5499
   57CHL1   H4B 6631   5.449   2.992  10.231 -0.1998 -0.1123  0.5246
   57CHL1    C5 6632   5.517   3.061  10.030 -0.2049 -0.3197  0.7301
   57CHL1    C6 6633   5.407   3.013   9.963  0.2351  0.2877  0.2841
   57CHL1    H6 6634   5.334   2.944  10.009  1.1489 -1.6151 -1.0176
   57CHL1    C7 6635   5.397   3.026   9.810 -0.5762  0.4821 -0.5618
   57CHL1   H7A 6636   5.375   2.927   9.765  0.6327 -0.2715  0.4743
   57CHL1   H7B 6637   5.316   3.093   9.775 -0.3279  0.7030 -0.7100
   57CHL1    C8 6638   5.531   3.076   9.742 -0.4246  0.8551  0.3194
   57CHL1    H8 6639   5.595   2.985   9.746 -1.9842 -0.1747  3.1914
   57CHL1   C14 6640   5.503   3.120   9.595  0.1338  0.2321 -0.7365
   57CHL1   H14 6641   5.433   3.206   9.596 -0.9390 -0.6224  0.6984
   57CHL1   C15 6642   5.439   3.014   9.500  0.0297 -0.3982  0.1999
   57CHL1  H15A 6643   5.494   2.919   9.519  0.7053 -0.7593 -3.2057
   57CHL1  H15B 6644   5.329   2.998   9.513 -0.2404  0.3516 -1.0962
   57CHL1   C16 6645   5.458   3.080   9.360 -0.4565 -0.0568  0.2672
   57CHL1  H16A 6646   5.526   3.010   9.307  0.1260 -1.2698  2.5500
   57CHL1  H16B 6647   5.357   3.076   9.313 -0.7819 -0.7621  1.0220
   57CHL1   C17 6648   5.542   3.210   9.377  1.0045  0.0199 -0.6685
   57CHL1   H17 6649   5.472   3.288   9.414  1.8460 -0.4618  2.0465
   57CHL1   C13 6650   5.623   3.179   9.513  0.6535  1.0264 -0.6531
   57CHL1   C18 6651   5.734   3.085   9.481 -0.3694  0.1937  0.8349
   57CHL1  H18A 6652   5.700   3.000   9.418  0.2471  0.4645  0.1248
   57CHL1  H18B 6653   5.803   3.150   9.422 -0.6582  0.3045  0.6177
   57CHL1  H18C 6654   5.796   3.048   9.565  0.9173  1.0742  0.2839
   57CHL1   C12 6655   5.672   3.301   9.596 -0.6598 -0.3392 -0.0908
   57CHL1  H12A 6656   5.761   3.351   9.551 -0.2845  1.2970  2.4217
   57CHL1  H12B 6657   5.598   3.383   9.600  0.5413  0.7516  0.2713
   57CHL1   C11 6658   5.710   3.256   9.735 -0.3421 -0.7753  0.3163
   57CHL1  H11A 6659   5.791   3.181   9.727 -1.5584 -2.0161 -0.5242
   57CHL1  H11B 6660   5.740   3.346   9.794  0.7876 -1.5869  0.9831
   57CHL1    C9 6661   5.602   3.186   9.816 -0.0856 -0.4352 -0.1092
   57CHL1    H9 6662   5.518   3.258   9.825 -0.4845 -0.5388 -2.7261
   57CHL1   C10 6663   5.632   3.142   9.964  0.0370 -0.2846  0.0026
   57CHL1   C19 6664   5.765   3.054   9.962  0.2930 -0.2119  0.6851
   57CHL1  H19A 6665   5.773   2.980   9.880 -1.9960  2.2067 -1.8336
   57CHL1  H19B 6666   5.840   3.131   9.938 -2.5470  3.3746  2.7606
   57CHL1  H19C 6667   5.793   3.017  10.063  0.5388  1.2310  1.1520
   57CHL1    C1 6668   5.657   3.278  10.042 -0.3663 -0.1330 -0.0774
   57CHL1   H1A 6669   5.753   3.323  10.009 -0.9792  1.4668  0.2839
   57CHL1   H1B 6670   5.571   3.344  10.018 -1.1113 -0.7765  0.8179
   57CHL1    C2 6671   5.667   3.262  10.193 -0.1156 -0.0521 -0.3598
   57CHL1   H2A 6672   5.684   3.358  10.246  4.0004 -0.8479 -0.0906
   57CHL1   H2B 6673   5.760   3.207  10.219  0.5746  1.0326 -0.5174
   57CHL1   C20 6674   5.611   3.253   9.250 -0.2124 -0.8982  0.2081
   57CHL1   H20 6675   5.699   3.186   9.244 -0.3821 -1.1271  0.2716
   57CHL1   C21 6676   5.669   3.394   9.268 -0.0006  0.1684 -0.7001
   57CHL1  H21A 6677   5.751   3.402   9.342 -0.5473 -0.9445  0.0441
   57CHL1  H21B 6678   5.592   3.467   9.300  0.0506  0.5152 -1.3426
   57CHL1  H21C 6679   5.729   3.422   9.178  0.5064 -0.0554 -0.4355
   57CHL1   C22 6680   5.534   3.243   9.116 -0.1020 -0.2232  0.1814
   57CHL1  H22A 6681   5.600   3.284   9.038  0.0734 -1.8530 -0.5379
   57CHL1  H22B 6682   5.519   3.134   9.095  1.9476 -0.7195  1.1945
   57CHL1   C23 6683   5.400   3.312   9.111  0.1309 -0.5725  0.2251
   57CHL1  H23A 6684   5.327   3.268   9.183  0.6980 -1.9034  0.0169
   57CHL1  H23B 6685   5.412   3.420   9.134  2.3699 -0.5975 -0.6424
   57CHL1   C24 6686   5.359   3.299   8.967 -0.4989 -0.0664 -0.0280
   57CHL1  H24A 6687   5.422   3.375   8.915 -2.3362  1.2821 -0.3611
   57CHL1  H24B 6688   5.393   3.200   8.931 -0.6855 -0.6120  1.2774
   57CHL1   C25 6689   5.212   3.312   8.932  0.4345  0.3622 -0.3193
   57CHL1   H25 6690   5.174   3.412   8.964 -0.3438  0.2290 -0.8175
   57CHL1   C26 6691   5.204   3.292   8.781  0.1402 -0.2278 -0.3504
   57CHL1  H26A 6692   5.102   3.320   8.748  0.1499 -0.1171 -0.2931
   57CHL1  H26B 6693   5.283   3.357   8.738  0.9611 -0.4380  0.7904
   57CHL1  H26C 6694   5.234   3.188   8.758  2.1820 -0.0571  1.2892
   57CHL1   C27 6695   5.113   3.214   9.002  0.1326 -0.1989 -0.3083
   57CHL1  H27A 6696   5.128   3.213   9.113  0.1171  2.2031 -0.2502
   57CHL1  H27B 6697   5.007   3.236   8.978  0.1115  0.1717  0.1071
   57CHL1  H27C 6698   5.144   3.120   8.953 -1.9473  0.6369 -3.3692
   58CHL1    C3 6699   1.603   1.523  10.130  0.1187 -0.3406  0.2029
   58CHL1    H3 6700   1.510   1.467  10.112 -1.1508  0.9261  2.5739
   58CHL1    O3 6701   1.654   1.476  10.253 -0.5542 -0.1438 -0.6801
   58CHL1   H3' 6702   1.729   1.535  10.267 -1.9843  1.8881 -1.4650
   58CHL1    C4 6703   1.702   1.487  10.019  0.1320  0.0471  0.1888
   58CHL1   H4A 6704   1.799   1.531  10.047  1.1043 -1.2113 -1.1097
   58CHL1   H4B 6705   1.718   1.377  10.020  2.4134  0.3285 -1.6012
   58CHL1    C5 6706   1.680   1.538   9.878  0.2806  0.7438  0.4279
   58CHL1    C6 6707   1.676   1.452   9.776 -0.5492 -0.6557 -0.3202
   58CHL1    H6 6708   1.697   1.344   9.787 -0.7721 -0.4179  2.8072
   58CHL1    C7 6709   1.655   1.495   9.630  0.2229  0.7310  0.3815
   58CHL1   H7A 6710   1.725   1.446   9.559  1.9575  0.2641  2.3709
   58CHL1   H7B 6711   1.554   1.460   9.598  0.8252  0.3992 -1.1846
   58CHL1    C8 6712   1.661   1.645   9.614 -0.5884 -0.4395 -0.3110
   58CHL1    H8 6713   1.770   1.666   9.623  0.2012 -4.3434  0.1165
   58CHL1   C14 6714   1.603   1.691   9.480  0.0068 -0.3350  0.5363
   58CHL1   H14 6715   1.496   1.665   9.495  0.0017 -1.1795 -0.9016
   58CHL1   C15 6716   1.655   1.631   9.354 -0.5054  0.3199  0.3790
   58CHL1  H15A 6717   1.764   1.613   9.366 -0.5126 -0.3391 -0.4897
   58CHL1  H15B 6718   1.607   1.533   9.333  0.6059 -0.5160  1.6563
   58CHL1   C16 6719   1.630   1.731   9.238 -0.2376 -0.1148 -0.2554
   58CHL1  H16A 6720   1.717   1.768   9.180 -1.5139  0.1528 -2.0496
   58CHL1  H16B 6721   1.564   1.674   9.168  0.2531  0.2837 -1.0523
   58CHL1   C17 6722   1.555   1.846   9.313  0.1433  1.2565 -0.0954
   58CHL1   H17 6723   1.448   1.818   9.315  0.0520  1.4969 -1.3914
   58CHL1   C13 6724   1.605   1.846   9.462  1.6244  0.2142 -1.1302
   58CHL1   C18 6725   1.749   1.902   9.483 -0.7112  0.0863 -0.2096
   58CHL1  H18A 6726   1.752   2.011   9.465  1.8159  0.0565 -0.1024
   58CHL1  H18B 6727   1.777   1.888   9.590 -2.2529  1.7663  0.4502
   58CHL1  H18C 6728   1.822   1.852   9.416 -0.8295  0.7040 -0.8063
   58CHL1   C12 6729   1.511   1.910   9.573  0.5904 -0.1630  0.9061
   58CHL1  H12A 6730   1.528   2.019   9.567  4.0769 -0.7799 -3.4112
   58CHL1  H12B 6731   1.404   1.890   9.549  0.7518 -0.9998  0.8558
   58CHL1   C11 6732   1.552   1.858   9.713 -0.0370 -0.1163 -0.0106
   58CHL1  H11A 6733   1.636   1.920   9.750  0.5820  0.2791 -2.0038
   58CHL1  H11B 6734   1.467   1.884   9.780 -1.4356 -1.0869 -1.3695
   58CHL1    C9 6735   1.580   1.715   9.731 -0.3513 -0.2751  0.7588
   58CHL1    H9 6736   1.478   1.672   9.724 -0.9280  1.4091 -1.6376
   58CHL1   C10 6737   1.645   1.680   9.868 -0.4040 -1.2002 -0.4461
   58CHL1   C19 6738   1.780   1.761   9.900  0.8208  0.0985  0.0675
   58CHL1  H19A 6739   1.819   1.741  10.002  1.5347 -0.2884 -0.2766
   58CHL1  H19B 6740   1.856   1.736   9.823 -0.0269  1.1709 -1.1359
   58CHL1  H19C 6741   1.757   1.868   9.885 -5.4339 -0.9569  0.4095
   58CHL1    C1 6742   1.538   1.714   9.986 -0.1754 -0.4521  0.7745
   58CHL1   H1A 6743   1.520   1.823   9.975  2.6257 -0.0142  0.0040
   58CHL1   H1B 6744   1.442   1.665   9.961 -0.5032  0.9587 -0.8356
   58CHL1    C2 6745   1.576   1.672  10.129 -0.4880 -0.7187 -0.3421
   58CHL1   H2A 6746   1.483   1.692  10.187  0.0413  0.6590  0.0715
   58CHL1   H2B 6747   1.661   1.726  10.178 -1.0055  0.1598 -0.4063
   58CHL1   C20 6748   1.579   1.975   9.239 -0.3152 -0.6269 -0.1462
   58CHL1   H20 6749   1.688   1.993   9.250  0.1658 -1.6482 -2.7964
   58CHL1   C21 6750   1.501   2.095   9.306  0.0966  0.0162  0.4421
   58CHL1  H21A 6751   1.522   2.180   9.238 -1.7913  0.6253  0.5805
   58CHL1  H21B 6752   1.547   2.135   9.399 -0.1960 -0.3322  0.7419
   58CHL1  H21C 6753   1.391   2.080   9.313 -0.1492  0.6942 -1.6009
   58CHL1   C22 6754   1.545   1.972   9.085  0.3918 -0.1455  0.5543
   58CHL1  H22A 6755   1.553   1.870   9.043 -0.5197 -0.2339  0.5939
   58CHL1  H22B 6756   1.437   1.987   9.066  0.4862  0.6388  0.6352
   58CHL1   C23 6757   1.628   2.069   8.990 -0.5420  0.5880 -0.1944
   58CHL1  H23A 6758   1.585   2.172   8.991 -2.3350 -0.1398 -0.4437
   58CHL1  H23B 6759   1.730   2.073   9.033  0.9029  1.0041 -3.4787
   58CHL1   C24 6760   1.646   2.017   8.847  0.1318 -0.4635  0.6195
   58CHL1  H24A 6761   1.672   1.909   8.841 -0.2722 -0.6456  2.1251
   58CHL1  H24B 6762   1.540   2.012   8.815  0.6035 -0.7420 -0.9666
   58CHL1   C25 6763   1.745   2.106   8.756  0.3004 -0.1282  0.2266
   58CHL1   H25 6764   1.835   2.139   8.813  0.3795  1.9417 -1.0297
   58CHL1   C26 6765   1.781   2.025   8.635  0.5938 -1.2137  0.2884
   58CHL1  H26A 6766   1.817   1.921   8.653  0.2394 -0.8655  3.2684
   58CHL1  H26B 6767   1.694   2.012   8.567 -0.1832 -1.7556  1.3550
   58CHL1  H26C 6768   1.863   2.072   8.577 -0.9906 -0.4053 -1.3376
   58CHL1   C27 6769   1.676   2.241   8.719 -0.2209 -0.9556 -0.4781
   58CHL1  H27A 6770   1.568   2.232   8.694 -0.1179  0.3760 -1.5021
   58CHL1  H27B 6771   1.690   2.297   8.814 -0.6059 -2.1880  0.3143
   58CHL1  H27C 6772   1.732   2.290   8.636 -0.4536 -1.5671 -1.0030
   59CHL1    C3 6773   0.872   0.879  10.429  0.2954 -0.3674  0.0344
   59CHL1    H3 6774   0.982   0.892  10.437  0.2319  1.0373 -1.2092
   59CHL1    O3 6775   0.830   0.850  10.559  0.2120  0.9619 -0.2826
   59CHL1   H3' 6776   0.751   0.795  10.559 -0.6457  2.1707  0.1134
   59CHL1    C4 6777   0.808   1.006  10.381 -0.2557 -0.3770  0.1242
   59CHL1   H4A 6778   0.700   1.006  10.408 -0.6088  0.5060 -1.2490
   59CHL1   H4B 6779   0.851   1.095  10.431  0.1269 -0.7437  0.4480
   59CHL1    C5 6780   0.828   1.011  10.230 -0.7023 -0.5216 -0.3563
   59CHL1    C6 6781   0.873   1.126  10.176  0.7520  0.2558 -0.1084
   59CHL1    H6 6782   0.896   1.216  10.233 -1.4184  1.7973 -1.5807
   59CHL1    C7 6783   0.893   1.154  10.032  0.6461 -0.3762  0.0856
   59CHL1   H7A 6784   0.852   1.254  10.006  1.3906 -0.2844 -0.7698
   59CHL1   H7B 6785   1.002   1.163  10.015  0.5825  2.3313  0.9112
   59CHL1    C8 6786   0.825   1.043   9.943 -0.1478  0.1993 -0.4032
   59CHL1    H8 6787   0.719   1.077   9.942  0.0109  0.6808 -2.1262
   59CHL1   C14 6788   0.880   1.043   9.798  0.0307 -0.8075  0.3897
   59CHL1   H14 6789   0.987   1.012   9.803  0.7617  0.6571 -3.9200
   59CHL1   C15 6790   0.893   1.173   9.728 -1.0159 -0.2599  0.3776
   59CHL1  H15A 6791   0.798   1.231   9.732 -2.0430 -1.7402 -1.5287
   59CHL1  H15B 6792   0.973   1.232   9.778 -1.1439 -1.2719  1.7834
   59CHL1   C16 6793   0.930   1.130   9.580 -0.2370 -0.4836 -0.2292
   59CHL1  H16A 6794   0.873   1.197   9.513 -3.0285  0.4324  2.9519
   59CHL1  H16B 6795   1.036   1.149   9.550 -0.7257  1.8886 -0.4902
   59CHL1   C17 6796   0.891   0.974   9.568 -0.6082 -0.0715 -0.2706
   59CHL1   H17 6797   0.983   0.911   9.580 -1.7005 -1.4811  0.9384
   59CHL1   C13 6798   0.811   0.944   9.700  0.9742 -0.0234  0.2784
   59CHL1   C18 6799   0.660   0.961   9.674 -0.4558  0.6703  0.3786
   59CHL1  H18A 6800   0.619   0.882   9.607 -0.0583  0.0744  0.8344
   59CHL1  H18B 6801   0.599   0.976   9.766 -2.6219  2.7298 -1.3107
   59CHL1  H18C 6802   0.652   1.057   9.619  1.7426 -0.0045 -1.1591
   59CHL1   C12 6803   0.842   0.798   9.761  0.3213  0.1781  0.0419
   59CHL1  H12A 6804   0.792   0.724   9.695  1.3984 -0.7723  0.2606
   59CHL1  H12B 6805   0.952   0.793   9.743  0.4225 -0.2412  0.7500
   59CHL1   C11 6806   0.786   0.781   9.901  0.0613  0.0225 -0.2924
   59CHL1  H11A 6807   0.676   0.787   9.882 -0.1340  0.0915  0.8271
   59CHL1  H11B 6808   0.817   0.679   9.932  0.9121  0.5167  0.4912
   59CHL1    C9 6809   0.833   0.899   9.999  0.1853  0.2501  0.1879
   59CHL1    H9 6810   0.942   0.876   9.996  0.0373 -0.2280 -2.3657
   59CHL1   C10 6811   0.788   0.890  10.142 -0.0620  0.1672 -0.8333
   59CHL1   C19 6812   0.630   0.878  10.143  0.8540 -0.3171  0.2788
   59CHL1  H19A 6813   0.597   0.892  10.249 -1.3657  1.6119 -0.6146
   59CHL1  H19B 6814   0.578   0.950  10.076  0.7645 -1.1349 -0.5360
   59CHL1  H19C 6815   0.589   0.781  10.109 -1.2805  0.2746  1.0484
   59CHL1    C1 6816   0.853   0.766  10.211  0.0924 -0.3964 -0.1486
   59CHL1   H1A 6817   0.820   0.674  10.158 -0.2141 -0.3773  0.0098
   59CHL1   H1B 6818   0.961   0.777  10.186  0.1505 -0.6610 -0.0236
   59CHL1    C2 6819   0.834   0.749  10.358  0.6385 -0.5160 -0.4668
   59CHL1   H2A 6820   0.896   0.667  10.400 -1.0608 -1.6884 -0.2012
   59CHL1   H2B 6821   0.726   0.727  10.372  0.4851  0.3192 -0.2810
   59CHL1   C20 6822   0.846   0.928   9.433 -0.6361 -0.3555  0.5273
   59CHL1   H20 6823   0.753   0.988   9.425  0.0103  0.6635  0.6033
   59CHL1   C21 6824   0.808   0.782   9.424 -0.3152  1.0881  0.6776
   59CHL1  H21A 6825   0.723   0.746   9.485  0.7213 -2.3660  0.2188
   59CHL1  H21B 6826   0.898   0.724   9.455  0.4716  1.3543 -1.0417
   59CHL1  H21C 6827   0.783   0.749   9.321 -0.7732  0.9469  0.8314
   59CHL1   C22 6828   0.953   0.960   9.329 -0.0204  0.8032  0.0449
   59CHL1  H22A 6829   1.001   1.060   9.339 -0.4384  0.8582  1.5615
   59CHL1  H22B 6830   1.041   0.892   9.334  0.3000  1.2367  0.3506
   59CHL1   C23 6831   0.905   0.947   9.186 -0.4584 -0.5873 -0.4617
   59CHL1  H23A 6832   0.864   0.846   9.163 -1.1721 -0.3793 -0.1037
   59CHL1  H23B 6833   0.824   1.019   9.162  1.1527  0.3359 -3.4204
   59CHL1   C24 6834   1.018   0.993   9.090  0.2280  0.1276 -0.3983
   59CHL1  H24A 6835   1.063   1.091   9.117  0.3051  0.4884 -1.7941
   59CHL1  H24B 6836   1.104   0.923   9.092  0.5231  0.4697 -0.8313
   59CHL1   C25 6837   0.970   1.026   8.942  0.6134  0.2939  0.5561
   59CHL1   H25 6838   0.894   1.104   8.965  0.7870  0.6933 -0.2097
   59CHL1   C26 6839   1.072   1.091   8.844 -0.3302  0.4027  0.6468
   59CHL1  H26A 6840   1.123   1.178   8.892 -0.1631 -0.7073  2.5526
   59CHL1  H26B 6841   1.141   1.010   8.815 -1.5569 -1.2204  2.1278
   59CHL1  H26C 6842   1.019   1.129   8.754  2.5937  3.0674 -0.0337
   59CHL1   C27 6843   0.906   0.905   8.864  0.1258 -0.1313 -0.3419
   59CHL1  H27A 6844   0.983   0.828   8.840 -0.2497 -0.0730 -1.7892
   59CHL1  H27B 6845   0.838   0.858   8.937 -0.2438  1.7461  0.5478
   59CHL1  H27C 6846   0.848   0.944   8.777 -0.3418 -1.5603 -0.6843
   60CHL1    C3 6847   0.385   0.023  10.100  0.6384  0.1370 -0.4108
   60CHL1    H3 6848   0.430   0.121  10.128 -0.4225  0.6344 -0.4046
   60CHL1    O3 6849   0.377  -0.058  10.218  0.4200 -0.3076  0.5010
   60CHL1   H3' 6850   0.310  -0.123  10.197 -0.9449  0.2560  3.0011
   60CHL1    C4 6851   0.243   0.025  10.041  0.5155  0.1030 -0.1452
   60CHL1   H4A 6852   0.194  -0.074  10.053 -0.9696  1.0583  1.9208
   60CHL1   H4B 6853   0.180   0.088  10.107  1.6382 -0.0028  1.0490
   60CHL1    C5 6854   0.229   0.062   9.899  0.4566  0.6151  0.4378
   60CHL1    C6 6855   0.132   0.145   9.864  0.6031 -0.4120  0.6031
   60CHL1    H6 6856   0.075   0.191   9.947 -1.2221  1.1472 -1.4712
   60CHL1    C7 6857   0.094   0.182   9.724  0.0348  0.9104  0.0354
   60CHL1   H7A 6858  -0.012   0.158   9.702  0.5468 -1.5922  0.1758
   60CHL1   H7B 6859   0.099   0.290   9.699 -1.0738  0.7293 -1.0443
   60CHL1    C8 6860   0.178   0.101   9.621 -0.2098 -0.4104 -0.1134
   60CHL1    H8 6861   0.141  -0.003   9.606  1.4855 -1.0637  0.1814
   60CHL1   C14 6862   0.175   0.158   9.480  0.1365 -0.0234  0.5415
   60CHL1   H14 6863   0.218   0.260   9.489 -2.4847  0.9211  3.3111
   60CHL1   C15 6864   0.036   0.193   9.419  0.1181  0.3214  0.4491
   60CHL1  H15A 6865  -0.028   0.103   9.430  2.9139 -1.8305 -0.4042
   60CHL1  H15B 6866  -0.005   0.283   9.470  0.4084  2.0086 -2.1770
   60CHL1   C16 6867   0.071   0.210   9.271 -0.0435 -0.4746  0.2039
   60CHL1  H16A 6868   0.010   0.151   9.199 -1.0355  0.2638  0.4152
   60CHL1  H16B 6869   0.073   0.317   9.239  0.4760 -0.8642 -1.1172
   60CHL1   C17 6870   0.215   0.165   9.254  0.0524  0.2121  0.1152
   60CHL1   H17 6871   0.285   0.250   9.264 -1.2669  1.4750 -1.1713
   60CHL1   C13 6872   0.252   0.081   9.379  0.2749 -0.6483 -0.6260
   60CHL1   C18 6873   0.198  -0.059   9.360  0.5449  0.0693 -0.0599
   60CHL1  H18A 6874   0.189  -0.122   9.451  0.5496 -0.9599 -0.7701
   60CHL1  H18B 6875   0.095  -0.050   9.320  0.3639  3.2193  0.9241
   60CHL1  H18C 6876   0.252  -0.118   9.283  0.5187  0.4198 -0.3484
   60CHL1   C12 6877   0.400   0.074   9.417  0.5948  0.4835 -0.0119
   60CHL1  H12A 6878   0.457   0.005   9.352  1.3566  2.2551 -1.2542
   60CHL1  H12B 6879   0.439   0.177   9.423 -2.0433  1.4352  1.7820
   60CHL1   C11 6880   0.422   0.020   9.558  0.2485  0.1341  0.0514
   60CHL1  H11A 6881   0.418  -0.091   9.566  1.5466  0.1983  2.1272
   60CHL1  H11B 6882   0.525   0.052   9.584  0.3517 -2.3531  3.1803
   60CHL1    C9 6883   0.327   0.079   9.670 -0.1263 -1.0576  0.1838
   60CHL1    H9 6884   0.366   0.183   9.681  1.0399 -1.3612 -1.0306
   60CHL1   C10 6885   0.338   0.003   9.805  0.1213 -0.9335  0.2661
   60CHL1   C19 6886   0.308  -0.144   9.786 -0.4216 -0.4941 -0.0594
   60CHL1  H19A 6887   0.282  -0.189   9.884 -1.8627  2.2245  0.8601
   60CHL1  H19B 6888   0.215  -0.160   9.727  0.2038  0.5927 -1.3791
   60CHL1  H19C 6889   0.384  -0.208   9.736 -1.6143 -0.3453 -2.1469
   60CHL1    C1 6890   0.477   0.020   9.867 -0.4036  0.9379 -0.2020
   60CHL1   H1A 6891   0.551  -0.019   9.794  0.2450  2.8715 -0.6263
   60CHL1   H1B 6892   0.513   0.126   9.870 -0.0929  0.8020  1.0195
   60CHL1    C2 6893   0.488  -0.048  10.012  0.0876 -0.1674 -0.3047
   60CHL1   H2A 6894   0.593  -0.025  10.042  0.2453 -0.0998 -0.8996
   60CHL1   H2B 6895   0.474  -0.157   9.999  1.6391 -0.5093  0.6820
   60CHL1   C20 6896   0.247   0.101   9.116  0.2662 -0.1601  0.2760
   60CHL1   H20 6897   0.214  -0.005   9.107  1.7528 -0.5690 -0.5728
   60CHL1   C21 6898   0.400   0.094   9.092 -0.4694  0.5566  0.6130
   60CHL1  H21A 6899   0.450   0.007   9.141  0.0430  1.0357  0.9369
   60CHL1  H21B 6900   0.452   0.180   9.139  0.6058  0.2124  0.0480
   60CHL1  H21C 6901   0.427   0.091   8.985 -0.9524  0.9120  0.4758
   60CHL1   C22 6902   0.190   0.171   8.989  0.1791 -0.1177  0.3219
   60CHL1  H22A 6903   0.237   0.117   8.904  1.1207 -1.3673  1.6001
   60CHL1  H22B 6904   0.080   0.158   8.980  0.4520 -0.5934 -3.0144
   60CHL1   C23 6905   0.223   0.318   8.973 -0.2778  0.1940 -1.3898
   60CHL1  H23A 6906   0.161   0.376   9.045  1.0413  1.6539 -1.3895
   60CHL1  H23B 6907   0.323   0.348   9.010 -0.5829 -2.1443  1.4907
   60CHL1   C24 6908   0.197   0.383   8.840 -0.2175 -0.4025 -0.0957
   60CHL1  H24A 6909   0.260   0.333   8.763 -1.8074 -2.6985  0.0380
   60CHL1  H24B 6910   0.090   0.375   8.811 -0.4855 -0.7630  0.9827
   60CHL1   C25 6911   0.233   0.535   8.833 -0.0319  0.5513 -0.2769
   60CHL1   H25 6912   0.337   0.541   8.873 -0.4138  0.0270  0.8185
   60CHL1   C26 6913   0.226   0.573   8.683 -0.0286 -0.3434  0.1719
   60CHL1  H26A 6914   0.244   0.682   8.685 -2.0522  0.0251 -0.6742
   60CHL1  H26B 6915   0.301   0.514   8.625  0.1074 -1.2192  1.2041
   60CHL1  H26C 6916   0.122   0.551   8.652 -0.4682  0.7563  0.8456
   60CHL1   C27 6917   0.154   0.623   8.933  0.3505 -0.1396  0.1385
   60CHL1  H27A 6918   0.166   0.578   9.034  0.7714 -0.3381  0.0009
   60CHL1  H27B 6919   0.197   0.724   8.948  1.5947 -0.4515 -1.1564
   60CHL1  H27C 6920   0.047   0.632   8.903  0.2879 -0.9127  0.1319
   61CHL1    C3 6921   4.006   6.366  10.136 -0.0474 -0.2950  0.2250
   61CHL1    H3 6922   3.905   6.412  10.128  0.4806  0.5733 -1.8636
   61CHL1    O3 6923   4.039   6.314  10.266  0.2145  0.8285 -0.4021
   61CHL1   H3' 6924   4.120   6.263  10.255 -0.2763 -0.2878  1.0186
   61CHL1    C4 6925   4.011   6.250  10.028  1.1843 -0.1838  0.0819
   61CHL1   H4A 6926   4.102   6.192  10.053  1.8430 -0.6136 -3.0753
   61CHL1   H4B 6927   3.919   6.194  10.054  1.4293 -0.8549 -0.4731
   61CHL1    C5 6928   4.011   6.297   9.882  1.1633 -0.4206  0.3099
   61CHL1    C6 6929   3.915   6.256   9.796  0.0963 -0.0937 -0.4783
   61CHL1    H6 6930   3.843   6.189   9.843  1.3805 -0.3347  1.1793
   61CHL1    C7 6931   3.915   6.291   9.648 -0.5186 -0.7663 -0.0937
   61CHL1   H7A 6932   3.881   6.199   9.596 -0.0764 -0.0964 -1.5912
   61CHL1   H7B 6933   3.839   6.370   9.635 -2.0705 -1.6593  3.0633
   61CHL1    C8 6934   4.053   6.345   9.605 -0.3460 -0.2376  0.3811
   61CHL1    H8 6935   4.119   6.256   9.615  0.6492  0.2263 -1.7236
   61CHL1   C14 6936   4.049   6.405   9.462  0.0475 -0.1316 -0.3046
   61CHL1   H14 6937   3.982   6.493   9.475  0.9143  0.5668 -0.5222
   61CHL1   C15 6938   3.984   6.317   9.354 -0.3871 -0.0717  0.1545
   61CHL1  H15A 6939   4.017   6.211   9.351  1.9611  0.6077  0.9558
   61CHL1  H15B 6940   3.873   6.323   9.359 -0.4624 -0.4403 -0.9440
   61CHL1   C16 6941   4.038   6.382   9.220  0.8147  0.8948  0.4664
   61CHL1  H16A 6942   4.102   6.303   9.174 -2.1236 -1.6342  0.5247
   61CHL1  H16B 6943   3.951   6.410   9.157  0.3721  0.8141  1.0385
   61CHL1   C17 6944   4.126   6.505   9.269 -0.0814 -0.2673 -0.0079
   61CHL1   H17 6945   4.049   6.581   9.291 -0.3098 -0.7966  1.0002
   61CHL1   C13 6946   4.175   6.461   9.408 -0.1185  0.0828  0.7420
   61CHL1   C18 6947   4.291   6.362   9.392 -0.3752 -0.4887  0.5337
   61CHL1  H18A 6948   4.310   6.303   9.484 -1.8824 -1.3583  0.3235
   61CHL1  H18B 6949   4.261   6.287   9.315  0.8084 -0.8309  0.3997
   61CHL1  H18C 6950   4.380   6.421   9.363 -0.6932 -0.7412 -1.0429
   61CHL1   C12 6951   4.217   6.571   9.501  0.5024 -0.1705 -0.0216
   61CHL1  H12A 6952   4.321   6.597   9.472  2.1294 -2.1249  3.7052
   61CHL1  H12B 6953   4.144   6.655   9.507  0.6023 -0.1845  1.8964
   61CHL1   C11 6954   4.231   6.521   9.648 -0.0854 -0.0448  0.1871
   61CHL1  H11A 6955   4.315   6.449   9.646 -1.4939 -1.6993 -2.0180
   61CHL1  H11B 6956   4.260   6.608   9.711  0.6088  0.8694 -1.3568
   61CHL1    C9 6957   4.102   6.454   9.700  0.5849 -0.2020 -0.2007
   61CHL1    H9 6958   4.024   6.532   9.711  1.3846  0.4820  0.6641
   61CHL1   C10 6959   4.114   6.402   9.846 -0.4273 -0.1810 -0.1440
   61CHL1   C19 6960   4.247   6.326   9.853  0.3725 -0.2668  0.1884
   61CHL1  H19A 6961   4.339   6.387   9.841 -1.4602  2.3811 -0.7312
   61CHL1  H19B 6962   4.254   6.272   9.950  0.3108 -1.8629 -0.6736
   61CHL1  H19C 6963   4.257   6.254   9.769 -2.0397  0.9104 -1.1433
   61CHL1    C1 6964   4.108   6.512   9.949 -0.6543 -0.6550 -0.6986
   61CHL1   H1A 6965   4.189   6.585   9.927 -1.5947  0.4256 -0.6385
   61CHL1   H1B 6966   4.014   6.571   9.943 -0.3391 -0.1146 -0.4402
   61CHL1    C2 6967   4.117   6.470  10.099 -0.0618 -0.0133  0.8948
   61CHL1   H2A 6968   4.103   6.563  10.159  1.0208  1.2655 -0.7925
   61CHL1   H2B 6969   4.218   6.426  10.118  0.2576  1.1338  1.9675
   61CHL1   C20 6970   4.228   6.557   9.160  0.2227 -0.6692 -0.6743
   61CHL1   H20 6971   4.319   6.494   9.154  0.2752 -0.5268 -1.4375
   61CHL1   C21 6972   4.277   6.696   9.196  0.0201 -0.6863  0.0086
   61CHL1  H21A 6973   4.187   6.754   9.224  0.6861  0.6522 -0.6044
   61CHL1  H21B 6974   4.333   6.750   9.117 -0.5381  0.7574  0.5793
   61CHL1  H21C 6975   4.329   6.710   9.293  0.6562  2.7323 -0.7806
   61CHL1   C22 6976   4.177   6.547   9.014  0.2357 -0.0347  0.0081
   61CHL1  H22A 6977   4.157   6.442   8.985 -3.3019  0.5282  0.1929
   61CHL1  H22B 6978   4.077   6.596   9.005  1.5083  2.8123  0.8226
   61CHL1   C23 6979   4.268   6.611   8.907 -0.3311  0.7947 -0.1057
   61CHL1  H23A 6980   4.271   6.719   8.933 -1.6366  1.1590 -1.3992
   61CHL1  H23B 6981   4.369   6.564   8.908 -1.2850 -1.4124 -2.1369
   61CHL1   C24 6982   4.214   6.586   8.766  0.1902  0.0699 -0.4552
   61CHL1  H24A 6983   4.243   6.483   8.736  0.8041  0.1930 -0.2857
   61CHL1  H24B 6984   4.103   6.593   8.770  0.1252  0.9384 -2.9016
   61CHL1   C25 6985   4.279   6.677   8.664  0.2114 -0.3220 -1.1926
   61CHL1   H25 6986   4.389   6.683   8.681  0.1743  2.3592 -1.6608
   61CHL1   C26 6987   4.238   6.631   8.527  0.2107 -0.3460  0.3930
   61CHL1  H26A 6988   4.258   6.705   8.446  1.6676 -0.6051  0.5007
   61CHL1  H26B 6989   4.306   6.549   8.497  1.5377  0.7744  0.2774
   61CHL1  H26C 6990   4.131   6.602   8.524  0.4541 -1.1629 -0.8221
   61CHL1   C27 6991   4.232   6.817   8.683  0.1450  0.8046  0.1103
   61CHL1  H27A 6992   4.300   6.890   8.634 -1.1548  0.6349 -2.0233
   61CHL1  H27B 6993   4.133   6.833   8.636 -0.6375 -0.2977  1.3527
   61CHL1  H27C 6994   4.213   6.850   8.788  1.5189  2.5995 -0.1815
   62CHL1    C3 6995   5.578   2.589  10.160 -0.2208 -0.5835 -0.0232
   62CHL1    H3 6996   5.680   2.580  10.118  1.0882  2.0105  2.4121
   62CHL1    O3 6997   5.586   2.649  10.290  0.2118 -0.1225 -0.0360
   62CHL1   H3' 6998   5.493   2.659  10.312  0.3376 -2.0972  1.5030
   62CHL1    C4 6999   5.491   2.678  10.066 -1.2806 -0.8824 -0.1688
   62CHL1   H4A 7000   5.386   2.688  10.103 -1.3993 -0.1892 -0.6696
   62CHL1   H4B 7001   5.533   2.780  10.052  1.1445 -1.9069 -0.5453
   62CHL1    C5 7002   5.479   2.622   9.931  0.8059  0.0195  0.2558
   62CHL1    C6 7003   5.517   2.688   9.814  0.2575 -0.2553  0.8585
   62CHL1    H6 7004   5.560   2.789   9.827  2.0296 -0.8440 -0.2722
   62CHL1    C7 7005   5.500   2.643   9.673 -0.1365  0.4729  1.1570
   62CHL1   H7A 7006   5.451   2.718   9.607 -0.9257  0.7033  2.0019
   62CHL1   H7B 7007   5.608   2.637   9.648 -0.2707 -0.7017  0.8454
   62CHL1    C8 7008   5.429   2.509   9.671 -1.2098 -0.3354  0.4443
   62CHL1    H8 7009   5.323   2.541   9.671 -0.4572  2.2281  0.4226
   62CHL1   C14 7010   5.467   2.440   9.543 -0.1286  0.6622  0.7226
   62CHL1   H14 7011   5.574   2.410   9.540 -0.3296  0.1280 -1.7305
   62CHL1   C15 7012   5.442   2.527   9.422  0.5464  0.6854  0.3738
   62CHL1  H15A 7013   5.346   2.583   9.427 -1.7728 -2.9970 -0.8736
   62CHL1  H15B 7014   5.526   2.598   9.403  1.3028 -0.1919  0.4313
   62CHL1   C16 7015   5.426   2.424   9.305  0.2416 -0.0615  0.4930
   62CHL1  H16A 7016   5.333   2.461   9.257 -0.0229 -1.7366 -0.3045
   62CHL1  H16B 7017   5.499   2.430   9.222  0.1385  0.0349  0.4075
   62CHL1   C17 7018   5.419   2.284   9.363  0.2938  0.4765 -0.2381
   62CHL1   H17 7019   5.526   2.255   9.368  0.6505  1.9448  1.0125
   62CHL1   C13 7020   5.383   2.308   9.512  0.1175  0.5920 -0.1538
   62CHL1   C18 7021   5.226   2.333   9.530  0.2732  0.1144  0.1216
   62CHL1  H18A 7022   5.194   2.365   9.631 -1.3524 -0.2532 -0.2623
   62CHL1  H18B 7023   5.177   2.410   9.466 -2.1823  0.0152  1.8280
   62CHL1  H18C 7024   5.179   2.236   9.502 -1.1343  1.5693 -2.7703
   62CHL1   C12 7025   5.419   2.207   9.629  0.1107  0.7632  0.1613
   62CHL1  H12A 7026   5.360   2.113   9.623  0.2735  0.6239  0.7256
   62CHL1  H12B 7027   5.519   2.162   9.614 -0.4175 -0.4914  0.3463
   62CHL1   C11 7028   5.400   2.269   9.769 -0.3603  0.2641 -0.0563
   62CHL1  H11A 7029   5.291   2.272   9.791 -0.8192  0.0970 -2.2257
   62CHL1  H11B 7030   5.447   2.200   9.841  0.6500 -0.3115 -1.2628
   62CHL1    C9 7031   5.462   2.414   9.785  0.0524  0.1218  0.7083
   62CHL1    H9 7032   5.570   2.389   9.779  0.2180  0.7708  1.0030
   62CHL1   C10 7033   5.437   2.473   9.929  0.3200  0.0203 -0.4873
   62CHL1   C19 7034   5.288   2.467   9.966  0.5836  0.4999 -0.0045
   62CHL1  H19A 7035   5.273   2.491  10.073 -2.4686  1.6437 -0.6108
   62CHL1  H19B 7036   5.220   2.533   9.907  0.4140 -0.8558 -1.3813
   62CHL1  H19C 7037   5.237   2.368   9.959 -1.5498  1.6148 -0.9868
   62CHL1    C1 7038   5.523   2.391  10.037  0.3797  0.0925 -0.3838
   62CHL1   H1A 7039   5.458   2.303  10.054 -3.4839  3.1394  1.4857
   62CHL1   H1B 7040   5.626   2.361  10.009  0.4634  1.8322 -2.0591
   62CHL1    C2 7041   5.522   2.455  10.180 -1.0338  0.3356 -0.0143
   62CHL1   H2A 7042   5.593   2.393  10.238 -2.0266 -1.9908 -1.2294
   62CHL1   H2B 7043   5.417   2.453  10.216 -1.4844  2.9171 -1.0486
   62CHL1   C20 7044   5.346   2.183   9.279  0.8033  0.1164 -0.0493
   62CHL1   H20 7045   5.243   2.222   9.271 -0.1222 -2.3677 -0.5310
   62CHL1   C21 7046   5.338   2.050   9.355  0.2709 -0.3564  0.1127
   62CHL1  H21A 7047   5.283   1.969   9.302 -1.6939  2.1119 -1.6936
   62CHL1  H21B 7048   5.282   2.060   9.450  0.8679  3.2374  0.1304
   62CHL1  H21C 7049   5.443   2.021   9.380  0.7525  0.5878 -0.7566
   62CHL1   C22 7050   5.391   2.162   9.132 -0.4762  0.0711  0.5883
   62CHL1  H22A 7051   5.339   2.073   9.090 -1.4688  2.2616 -3.1236
   62CHL1  H22B 7052   5.358   2.259   9.088  2.1266  1.4733  1.6384
   62CHL1   C23 7053   5.541   2.168   9.108  0.2830  0.3136 -0.1854
   62CHL1  H23A 7054   5.586   2.260   9.151  1.5110 -0.1759 -0.3821
   62CHL1  H23B 7055   5.590   2.083   9.160  2.1076  2.0651  1.0654
   62CHL1   C24 7056   5.583   2.154   8.957 -0.6888 -0.4014 -0.1124
   62CHL1  H24A 7057   5.684   2.107   8.959 -0.3026  0.2031 -2.9039
   62CHL1  H24B 7058   5.524   2.074   8.906  0.7027 -1.6040  0.1376
   62CHL1   C25 7059   5.578   2.279   8.865  0.5076 -0.2616  0.0356
   62CHL1   H25 7060   5.474   2.319   8.873 -0.0240 -1.1558 -2.0254
   62CHL1   C26 7061   5.687   2.378   8.906  0.3489  0.1085 -0.2303
   62CHL1  H26A 7062   5.713   2.436   8.815  0.9168 -2.9141 -2.0207
   62CHL1  H26B 7063   5.661   2.458   8.979 -1.3561 -0.4466 -0.2105
   62CHL1  H26C 7064   5.782   2.329   8.935 -0.1113  0.1462  1.3903
   62CHL1   C27 7065   5.612   2.235   8.715 -0.0834  0.6370 -1.0695
   62CHL1  H27A 7066   5.568   2.137   8.685  1.5917 -0.3996 -0.1934
   62CHL1  H27B 7067   5.572   2.317   8.651  1.5162  1.2165 -1.3332
   62CHL1  H27C 7068   5.722   2.241   8.702  0.1310  0.5142  0.5297
   63CHL1    C3 7069   6.518   4.326  10.339 -0.8328 -0.2996 -0.1552
   63CHL1    H3 7070   6.431   4.260  10.322 -2.2530  1.0673  1.7028
   63CHL1    O3 7071   6.513   4.355  10.472  0.0431  0.2360  0.3072
   63CHL1   H3' 7072   6.595   4.402  10.486  0.7754 -1.0040  0.2335
   63CHL1    C4 7073   6.651   4.256  10.300 -1.1095  0.2044 -0.0480
   63CHL1   H4A 7074   6.740   4.315  10.333 -0.3799 -0.5135 -0.7011
   63CHL1   H4B 7075   6.648   4.156  10.347 -1.6572  0.1701 -0.1601
   63CHL1    C5 7076   6.671   4.252  10.152  0.2302  0.3059  0.5001
   63CHL1    C6 7077   6.693   4.132  10.089  0.4086  0.0155 -0.3808
   63CHL1    H6 7078   6.712   4.046  10.155 -1.2257  1.3172  1.8582
   63CHL1    C7 7079   6.693   4.113   9.942 -0.2520 -0.4034  0.1671
   63CHL1   H7A 7080   6.791   4.064   9.925 -0.3041 -0.1144 -1.0008
   63CHL1   H7B 7081   6.613   4.043   9.908 -0.5008  1.2787 -2.8929
   63CHL1    C8 7082   6.710   4.241   9.866  0.1781  0.0967 -0.2127
   63CHL1    H8 7083   6.815   4.277   9.877 -0.3286  1.1786  1.3056
   63CHL1   C14 7084   6.680   4.216   9.721  0.2408  0.0250 -0.0057
   63CHL1   H14 7085   6.573   4.185   9.723  0.6928 -1.6176 -0.1497
   63CHL1   C15 7086   6.755   4.096   9.642 -0.3546  0.5645  0.3064
   63CHL1  H15A 7087   6.862   4.116   9.660  0.5234 -1.6617 -2.1562
   63CHL1  H15B 7088   6.721   3.997   9.680 -0.0323  0.3288 -0.0203
   63CHL1   C16 7089   6.718   4.128   9.496  0.0608  0.1726  0.0092
   63CHL1  H16A 7090   6.798   4.107   9.421 -0.4404 -1.6102 -0.0508
   63CHL1  H16B 7091   6.629   4.072   9.463  0.7661 -1.0077  0.0945
   63CHL1   C17 7092   6.657   4.272   9.487 -0.1761  0.0071 -0.5997
   63CHL1   H17 7093   6.546   4.267   9.477 -0.4512  4.1718 -0.5839
   63CHL1   C13 7094   6.681   4.336   9.625 -0.0252 -1.1110 -0.9932
   63CHL1   C18 7095   6.830   4.385   9.635  1.2367 -0.4351  0.0859
   63CHL1  H18A 7096   6.864   4.420   9.734 -0.2097  1.6530 -0.1130
   63CHL1  H18B 7097   6.906   4.314   9.596  0.6619 -1.8492  1.4732
   63CHL1  H18C 7098   6.842   4.474   9.570  0.0033 -1.6768 -1.9012
   63CHL1   C12 7099   6.578   4.443   9.685 -0.2373 -0.9106 -0.0673
   63CHL1  H12A 7100   6.583   4.532   9.619 -1.1893  2.4619  4.1582
   63CHL1  H12B 7101   6.476   4.402   9.668 -0.8334 -0.1862  1.6098
   63CHL1   C11 7102   6.593   4.482   9.827  0.3261  0.0859  0.5298
   63CHL1  H11A 7103   6.683   4.546   9.818 -0.4689  1.1901  0.3158
   63CHL1  H11B 7104   6.504   4.539   9.863 -0.2514  0.2515 -1.1150
   63CHL1    C9 7105   6.623   4.355   9.919  0.3640 -0.4362 -0.7402
   63CHL1    H9 7106   6.521   4.312   9.917  1.4136 -3.0852  0.0720
   63CHL1   C10 7107   6.637   4.382  10.075  0.5566 -0.5542 -0.0812
   63CHL1   C19 7108   6.761   4.469  10.094  0.1007 -1.0079  0.6228
   63CHL1  H19A 7109   6.759   4.566  10.040  2.1639 -0.9574  0.5835
   63CHL1  H19B 7110   6.777   4.496  10.200  1.1948  2.2323 -0.3068
   63CHL1  H19C 7111   6.854   4.421  10.055  0.6545 -1.3230  2.2871
   63CHL1    C1 7112   6.506   4.455  10.132 -0.0862  0.6445  0.6984
   63CHL1   H1A 7113   6.500   4.562  10.103  1.4818  0.4485 -0.4128
   63CHL1   H1B 7114   6.418   4.399  10.095  0.2088  0.4342  0.3134
   63CHL1    C2 7115   6.490   4.461  10.283 -0.2547 -0.3080  0.6036
   63CHL1   H2A 7116   6.388   4.492  10.313 -0.3355 -0.9638  1.0097
   63CHL1   H2B 7117   6.553   4.536  10.335 -0.3071  0.3615 -0.2773
   63CHL1   C20 7118   6.713   4.350   9.368 -0.4880  0.3531 -0.7593
   63CHL1   H20 7119   6.815   4.387   9.388 -1.8322  2.4173  2.6079
   63CHL1   C21 7120   6.626   4.467   9.343  0.1548  0.4871 -0.6609
   63CHL1  H21A 7121   6.618   4.531   9.433 -1.0013  0.6694 -0.8769
   63CHL1  H21B 7122   6.520   4.434   9.335  0.3244  0.1275 -1.5832
   63CHL1  H21C 7123   6.641   4.536   9.257 -0.5618  0.5600 -0.7338
   63CHL1   C22 7124   6.714   4.270   9.234 -0.2630  0.1773 -0.6844
   63CHL1  H22A 7125   6.784   4.184   9.235 -0.4552 -0.0002 -2.0500
   63CHL1  H22B 7126   6.612   4.232   9.212  0.6003 -2.3095 -0.5847
   63CHL1   C23 7127   6.756   4.346   9.110  0.3605  0.1127 -0.0427
   63CHL1  H23A 7128   6.680   4.421   9.077 -1.2744 -0.6331  1.8952
   63CHL1  H23B 7129   6.854   4.398   9.102  0.0568  0.3420 -2.6827
   63CHL1   C24 7130   6.766   4.254   8.985  0.5069 -0.4066 -0.4211
   63CHL1  H24A 7131   6.822   4.161   9.005  1.6319  0.1018 -1.1072
   63CHL1  H24B 7132   6.664   4.223   8.957  0.6398 -0.4760 -0.8324
   63CHL1   C25 7133   6.819   4.322   8.855 -0.5665  0.0742  0.1278
   63CHL1   H25 7134   6.928   4.339   8.871  0.1567 -2.8648 -1.3807
   63CHL1   C26 7135   6.800   4.228   8.735  0.2561 -0.7117 -0.4072
   63CHL1  H26A 7136   6.884   4.243   8.663 -0.4973 -2.0821 -1.5996
   63CHL1  H26B 7137   6.800   4.120   8.763  1.8789 -0.3269  1.2074
   63CHL1  H26C 7138   6.705   4.243   8.680  0.4061  0.7855 -0.2660
   63CHL1   C27 7139   6.753   4.456   8.826  0.0660  0.0275  0.2244
   63CHL1  H27A 7140   6.643   4.445   8.821  0.0342  0.6270 -0.4678
   63CHL1  H27B 7141   6.774   4.538   8.899  3.0262  0.3259 -0.8747
   63CHL1  H27C 7142   6.794   4.493   8.730 -0.9209  0.5235 -0.0133
   64CHL1    C3 7143   5.684   3.655  10.060  0.6159  0.0366  0.3082
   64CHL1    H3 7144   5.735   3.562  10.025  2.2540  0.0968  2.4596
   64CHL1    O3 7145   5.656   3.638  10.203 -0.4055 -0.0303  0.7009
   64CHL1   H3' 7146   5.702   3.703  10.255  1.5079 -0.9487  0.1780
   64CHL1    C4 7147   5.757   3.781  10.018  0.0773  1.0954  0.3615
   64CHL1   H4A 7148   5.698   3.872  10.041 -0.3424  1.0033 -0.3379
   64CHL1   H4B 7149   5.850   3.781  10.079 -0.2378 -3.1218  1.0275
   64CHL1    C5 7150   5.792   3.794   9.870 -0.5222  0.2538 -0.0972
   64CHL1    C6 7151   5.921   3.819   9.822  0.2997  0.8377  0.6087
   64CHL1    H6 7152   6.010   3.828   9.887 -1.1078  2.6688  2.3399
   64CHL1    C7 7153   5.950   3.827   9.671 -0.3010  0.2016 -0.9704
   64CHL1   H7A 7154   6.039   3.885   9.638  0.8294 -1.4153 -0.8256
   64CHL1   H7B 7155   5.984   3.722   9.655 -1.1887 -0.8885  3.5440
   64CHL1    C8 7156   5.819   3.849   9.588 -0.1031 -0.0063  0.0156
   64CHL1    H8 7157   5.788   3.955   9.576  1.1135  0.0761 -2.6906
   64CHL1   C14 7158   5.856   3.807   9.446 -0.1185  0.4889  0.3145
   64CHL1   H14 7159   5.881   3.699   9.454 -0.9281  0.3336  0.8385
   64CHL1   C15 7160   5.975   3.883   9.383 -0.7910 -0.2772  0.1967
   64CHL1  H15A 7161   5.958   3.993   9.371  1.7930  0.1103 -0.3453
   64CHL1  H15B 7162   6.077   3.860   9.421 -0.7197 -1.2564 -0.5838
   64CHL1   C16 7163   5.965   3.828   9.234 -0.7583  0.3663 -0.2769
   64CHL1  H16A 7164   5.967   3.914   9.164 -2.7086  0.8055  0.1812
   64CHL1  H16B 7165   6.044   3.759   9.196 -1.3221  0.0555 -0.8915
   64CHL1   C17 7166   5.831   3.756   9.216 -0.3661  0.1420 -0.2442
   64CHL1   H17 7167   5.849   3.647   9.229  0.7491 -0.1696 -3.8417
   64CHL1   C13 7168   5.745   3.802   9.339 -0.2433  0.3232  0.9173
   64CHL1   C18 7169   5.691   3.943   9.313 -0.2876  0.4156  0.1338
   64CHL1  H18A 7170   5.764   4.010   9.264 -0.8513  0.7962 -0.1977
   64CHL1  H18B 7171   5.599   3.932   9.251  0.0997  0.0730 -0.3877
   64CHL1  H18C 7172   5.656   3.991   9.406  0.7855 -1.3302  1.4714
   64CHL1   C12 7173   5.642   3.704   9.401  0.4866  0.4393  0.2578
   64CHL1  H12A 7174   5.561   3.686   9.328 -0.9482 -1.4868  2.2483
   64CHL1  H12B 7175   5.696   3.610   9.428  0.1016  0.5534  1.4608
   64CHL1   C11 7176   5.587   3.763   9.537  0.6801  0.1631 -0.3039
   64CHL1  H11A 7177   5.545   3.865   9.529 -1.7859 -0.7579  0.3897
   64CHL1  H11B 7178   5.506   3.696   9.573 -0.1939  1.6291  0.5055
   64CHL1    C9 7179   5.703   3.761   9.642  0.1130  0.5464 -0.7235
   64CHL1    H9 7180   5.753   3.662   9.642  2.3252  1.6453 -1.4532
   64CHL1   C10 7181   5.661   3.785   9.792  0.3673 -1.2472  0.1215
   64CHL1   C19 7182   5.575   3.912   9.797 -0.5175 -0.1909 -0.6407
   64CHL1  H19A 7183   5.571   3.967   9.894  0.3583  2.0302 -1.8302
   64CHL1  H19B 7184   5.623   3.988   9.733 -0.5033  2.3157  2.2130
   64CHL1  H19C 7185   5.473   3.892   9.759 -1.0068 -0.4641  0.7735
   64CHL1    C1 7186   5.571   3.665   9.831 -0.4297  0.7799  0.4900
   64CHL1   H1A 7187   5.477   3.679   9.774  0.0529 -0.4196 -0.6074
   64CHL1   H1B 7188   5.631   3.583   9.787 -1.5044 -1.1911  2.5531
   64CHL1    C2 7189   5.549   3.655   9.980 -0.6661  0.6810  0.3200
   64CHL1   H2A 7190   5.504   3.555  10.000  0.3042 -0.2854 -2.0238
   64CHL1   H2B 7191   5.477   3.736  10.001 -1.9792 -0.1436 -0.8965
   64CHL1   C20 7192   5.774   3.774   9.078 -0.0380 -0.0324 -0.5107
   64CHL1   H20 7193   5.756   3.883   9.061 -3.9667  0.0069  3.3011
   64CHL1   C21 7194   5.639   3.696   9.058  0.1280  0.1420 -0.3695
   64CHL1  H21A 7195   5.586   3.731   8.967 -3.5159 -3.3831  0.2452
   64CHL1  H21B 7196   5.573   3.729   9.141  1.9007 -1.6567  1.8162
   64CHL1  H21C 7197   5.657   3.587   9.057  0.1185  0.1482 -2.6550
   64CHL1   C22 7198   5.868   3.741   8.956 -0.0928 -0.0333  0.0492
   64CHL1  H22A 7199   5.799   3.759   8.871  1.3680  3.0016 -0.5568
   64CHL1  H22B 7200   5.950   3.815   8.947 -0.5421  0.6254  1.3741
   64CHL1   C23 7201   5.911   3.598   8.932  0.8576  0.2166  0.1222
   64CHL1  H23A 7202   5.958   3.546   9.018  0.4341 -0.2183  0.0932
   64CHL1  H23B 7203   5.823   3.533   8.914  1.1757 -0.5103  1.0808
   64CHL1   C24 7204   5.997   3.578   8.801  0.1034 -0.2254 -0.2084
   64CHL1  H24A 7205   6.003   3.470   8.777  0.6062  0.0054 -1.1416
   64CHL1  H24B 7206   5.953   3.623   8.710 -0.6723  0.6832  0.5965
   64CHL1   C25 7207   6.140   3.618   8.813 -0.5189  0.2999 -0.1848
   64CHL1   H25 7208   6.133   3.722   8.851 -3.2943  0.3637 -0.7321
   64CHL1   C26 7209   6.224   3.521   8.897 -0.4567 -0.1997  0.4221
   64CHL1  H26A 7210   6.324   3.565   8.916  0.9287 -2.9766 -0.2778
   64CHL1  H26B 7211   6.184   3.518   9.001 -0.8939  0.3635  0.2747
   64CHL1  H26C 7212   6.228   3.421   8.849  0.7417  0.3792 -0.7053
   64CHL1   C27 7213   6.215   3.649   8.681  0.1994 -0.9061  0.1769
   64CHL1  H27A 7214   6.221   3.556   8.620 -1.9794 -0.9481 -0.0080
   64CHL1  H27B 7215   6.146   3.725   8.640 -0.2151 -0.1384  2.2391
   64CHL1  H27C 7216   6.322   3.679   8.691  0.0329  1.6950 -4.3938
   65CHL1    C3 7217   1.293   0.903  10.228  1.2130 -0.4774 -0.1478
   65CHL1    H3 7218   1.269   0.796  10.214 -0.5852 -0.2805  1.2716
   65CHL1    O3 7219   1.258   0.927  10.357  0.5516  0.4385 -0.6168
   65CHL1   H3' 7220   1.335   0.898  10.406  0.7280 -0.6577 -1.5249
   65CHL1    C4 7221   1.442   0.921  10.204  0.7638 -0.8103 -0.3461
   65CHL1   H4A 7222   1.461   1.025  10.238  2.2755 -0.9756 -0.6506
   65CHL1   H4B 7223   1.506   0.853  10.264 -0.3862  1.0251  3.1053
   65CHL1    C5 7224   1.483   0.908  10.058 -0.0102  0.2626 -0.0394
   65CHL1    C6 7225   1.564   0.805  10.019  0.2979 -0.7764  0.2683
   65CHL1    H6 7226   1.601   0.743  10.102  1.9349  0.3991  0.4430
   65CHL1    C7 7227   1.603   0.789   9.875 -0.4358  0.8213 -0.1764
   65CHL1   H7A 7228   1.710   0.760   9.867 -0.4428  0.7321  0.0423
   65CHL1   H7B 7229   1.554   0.701   9.828  2.1213 -0.6787 -0.1396
   65CHL1    C8 7230   1.557   0.900   9.774 -0.5609  0.1228  0.2081
   65CHL1    H8 7231   1.631   0.980   9.797  0.9900 -1.0398 -0.5903
   65CHL1   C14 7232   1.557   0.848   9.630 -0.0856  0.2712  0.1349
   65CHL1   H14 7233   1.483   0.765   9.623  1.0755 -0.5799 -2.5106
   65CHL1   C15 7234   1.689   0.787   9.574 -0.0649  0.0198 -0.4899
   65CHL1  H15A 7235   1.772   0.852   9.608 -0.1289  0.4244 -1.0953
   65CHL1  H15B 7236   1.709   0.688   9.619  1.6667  0.4982 -0.1593
   65CHL1   C16 7237   1.663   0.794   9.423 -0.0071  0.1653 -0.0554
   65CHL1  H16A 7238   1.749   0.853   9.385 -1.1016  0.1174 -2.7512
   65CHL1  H16B 7239   1.651   0.694   9.376  1.1615  0.3144 -0.6868
   65CHL1   C17 7240   1.530   0.877   9.395 -0.2686  0.0711 -0.0703
   65CHL1   H17 7241   1.456   0.794   9.400 -1.1588  0.8319 -0.4570
   65CHL1   C13 7242   1.515   0.955   9.528  0.7191 -0.0907  0.2439
   65CHL1   C18 7243   1.619   1.075   9.533 -0.8784  0.1333  0.0731
   65CHL1  H18A 7244   1.637   1.119   9.633  0.3809  1.6273 -0.7822
   65CHL1  H18B 7245   1.721   1.054   9.494 -1.5907 -2.4333 -0.4752
   65CHL1  H18C 7246   1.592   1.149   9.455  2.1272 -0.0570 -1.1985
   65CHL1   C12 7247   1.365   1.005   9.565 -1.0630  0.3175  0.7394
   65CHL1  H12A 7248   1.337   1.084   9.492 -2.2605 -0.8782 -0.1230
   65CHL1  H12B 7249   1.297   0.918   9.553  1.1623 -1.4257  0.3707
   65CHL1   C11 7250   1.361   1.062   9.709  0.0507  0.2789 -0.1591
   65CHL1  H11A 7251   1.427   1.152   9.711 -0.3408  0.5595  0.0341
   65CHL1  H11B 7252   1.257   1.089   9.733 -0.0628  2.0166 -2.4536
   65CHL1    C9 7253   1.410   0.954   9.812 -0.6148 -0.3921 -0.1941
   65CHL1    H9 7254   1.346   0.864   9.803  0.3697 -0.8734 -2.8740
   65CHL1   C10 7255   1.397   0.997   9.962  0.1022  0.3201  0.2384
   65CHL1   C19 7256   1.453   1.136   9.990 -0.6461 -0.2425 -0.4965
   65CHL1  H19A 7257   1.389   1.207   9.932 -0.7239 -1.6219 -2.1714
   65CHL1  H19B 7258   1.450   1.166  10.097  0.6530  0.6516 -0.7034
   65CHL1  H19C 7259   1.562   1.142   9.970 -1.1126  2.1590 -2.6857
   65CHL1    C1 7260   1.250   0.986   9.992 -0.0525 -0.1217 -0.4062
   65CHL1   H1A 7261   1.185   1.061   9.942  1.2081  0.8983 -0.5433
   65CHL1   H1B 7262   1.220   0.884   9.959 -0.1064 -0.1595 -0.2371
   65CHL1    C2 7263   1.218   1.002  10.139 -0.3021  0.4725 -0.2003
   65CHL1   H2A 7264   1.112   0.972  10.157 -0.4996 -0.9535 -3.4295
   65CHL1   H2B 7265   1.219   1.107  10.174  0.0845  0.7950 -1.1638
   65CHL1   C20 7266   1.520   0.946   9.263  0.4068 -0.0018 -0.4009
   65CHL1   H20 7267   1.558   1.048   9.282 -1.8028  1.1419 -2.0018
   65CHL1   C21 7268   1.373   0.953   9.221 -0.1769  0.1218 -0.7899
   65CHL1  H21A 7269   1.351   0.856   9.172  0.2622 -1.2957  1.7287
   65CHL1  H21B 7270   1.357   1.031   9.144  0.2822  0.5541 -0.4538
   65CHL1  H21C 7271   1.304   0.969   9.307  0.5233 -1.1147  0.0123
   65CHL1   C22 7272   1.606   0.902   9.143 -0.2717  0.2563 -0.1055
   65CHL1  H22A 7273   1.715   0.910   9.166 -0.4171  0.9074  0.3559
   65CHL1  H22B 7274   1.583   0.796   9.119 -1.0546  0.4780 -0.3472
   65CHL1   C23 7275   1.583   0.973   9.002  0.5084 -0.3368 -0.2800
   65CHL1  H23A 7276   1.474   0.969   8.979  0.6316  0.5271 -1.0818
   65CHL1  H23B 7277   1.613   1.080   8.998 -1.3168  0.1894 -0.1919
   65CHL1   C24 7278   1.660   0.919   8.884  0.8319  0.8941 -0.1647
   65CHL1  H24A 7279   1.766   0.928   8.916  0.5340  1.2988  0.7414
   65CHL1  H24B 7280   1.633   0.815   8.855  2.4627  0.0344  1.2957
   65CHL1   C25 7281   1.642   1.007   8.756 -0.0038  0.2439 -0.6474
   65CHL1   H25 7282   1.691   1.102   8.787 -0.8248  0.5155 -0.1545
   65CHL1   C26 7283   1.736   0.961   8.641  0.6950  0.2116 -0.3048
   65CHL1  H26A 7284   1.837   0.938   8.680  0.6929  2.3580  1.0554
   65CHL1  H26B 7285   1.695   0.864   8.605 -5.1176  2.2780  0.0954
   65CHL1  H26C 7286   1.716   1.023   8.551 -1.2667 -0.8489 -0.6410
   65CHL1   C27 7287   1.499   1.039   8.708  0.2285 -0.0372  0.6738
   65CHL1  H27A 7288   1.437   0.948   8.721 -0.0151  0.3171  2.0946
   65CHL1  H27B 7289   1.443   1.104   8.779 -0.8277  2.0130 -1.9718
   65CHL1  H27C 7290   1.492   1.106   8.620 -0.4997 -0.0809  0.6990
   66CHL1    C3 7291   5.836   5.794  10.529 -0.4254 -0.3676  1.1810
   66CHL1    H3 7292   5.733   5.764  10.499 -0.0317 -1.7449  1.1381
   66CHL1    O3 7293   5.849   5.825  10.665  0.2418 -0.3606  0.2550
   66CHL1   H3' 7294   5.936   5.866  10.666 -0.2598  0.6794  1.6785
   66CHL1    C4 7295   5.917   5.671  10.494 -0.3480  0.5992 -0.1256
   66CHL1   H4A 7296   6.014   5.684  10.545  0.0358 -0.6166 -0.5133
   66CHL1   H4B 7297   5.867   5.580  10.535 -1.1572  0.1243 -2.0900
   66CHL1    C5 7298   5.941   5.653  10.341 -0.3700  0.1462  0.0120
   66CHL1    C6 7299   5.913   5.539  10.279  0.1876 -0.7331 -0.5470
   66CHL1    H6 7300   5.874   5.456  10.341  0.5004 -0.8545 -0.5078
   66CHL1    C7 7301   5.947   5.513  10.135  0.5353 -1.1816  0.0050
   66CHL1   H7A 7302   5.997   5.414  10.130 -0.5386 -1.6989 -0.5010
   66CHL1   H7B 7303   5.849   5.505  10.084  0.3577  0.6826  0.0258
   66CHL1    C8 7304   6.030   5.623  10.069  0.2240  0.1749  0.4368
   66CHL1    H8 7305   6.136   5.597  10.093  0.5177  0.3484 -0.6134
   66CHL1   C14 7306   6.014   5.618   9.914 -0.2553  0.8961 -0.1367
   66CHL1   H14 7307   5.917   5.663   9.886 -0.9487  0.8602  2.0765
   66CHL1   C15 7308   6.017   5.480   9.848  0.0446 -0.1355 -0.6832
   66CHL1  H15A 7309   6.107   5.431   9.891 -1.5964 -3.2559 -0.6485
   66CHL1  H15B 7310   5.930   5.416   9.873 -0.8570  0.3500 -2.4562
   66CHL1   C16 7311   6.026   5.510   9.696 -0.3650  0.1891 -0.2530
   66CHL1  H16A 7312   6.111   5.449   9.659  3.1311  3.5109  1.8833
   66CHL1  H16B 7313   5.925   5.501   9.652 -0.3318  0.7541 -0.4573
   66CHL1   C17 7314   6.059   5.662   9.689  0.3837  0.3261 -0.4827
   66CHL1   H17 7315   5.964   5.719   9.678 -0.7691 -1.4630  0.0159
   66CHL1   C13 7316   6.107   5.701   9.826 -0.1827 -0.1368  0.6517
   66CHL1   C18 7317   6.257   5.668   9.848 -0.4623  0.2758 -0.4592
   66CHL1  H18A 7318   6.323   5.739   9.793 -0.4385 -0.1516 -0.9945
   66CHL1  H18B 7319   6.281   5.688   9.954  1.4068  0.0339 -0.8302
   66CHL1  H18C 7320   6.276   5.563   9.817 -1.1159  0.2662 -0.8361
   66CHL1   C12 7321   6.076   5.844   9.869  1.0319 -0.9312  0.7984
   66CHL1  H12A 7322   6.149   5.907   9.814 -2.0907  0.8735 -1.4183
   66CHL1  H12B 7323   5.972   5.872   9.841  1.0798 -2.1261 -0.6589
   66CHL1   C11 7324   6.079   5.868  10.026 -0.2350 -0.0953 -0.1943
   66CHL1  H11A 7325   6.184   5.861  10.060  0.0259  2.4691 -0.3760
   66CHL1  H11B 7326   6.042   5.971  10.046 -1.2088 -0.1224 -1.7349
   66CHL1    C9 7327   5.995   5.770  10.113 -0.1768  1.2177 -0.1164
   66CHL1    H9 7328   5.890   5.786  10.080  0.6502  2.4321 -2.2796
   66CHL1   C10 7329   5.998   5.778  10.270 -0.1351  0.4206 -0.1523
   66CHL1   C19 7330   6.153   5.798  10.305  0.2757  0.3073  0.2676
   66CHL1  H19A 7331   6.180   5.903  10.279  0.5962  0.4846  1.2674
   66CHL1  H19B 7332   6.170   5.783  10.414 -1.6696 -3.2670  0.1723
   66CHL1  H19C 7333   6.220   5.728  10.252  1.5077  1.7132 -0.0600
   66CHL1    C1 7334   5.917   5.901  10.302  0.4188  0.4880 -0.9362
   66CHL1   H1A 7335   5.952   5.996  10.257 -0.6484 -0.3986 -3.7282
   66CHL1   H1B 7336   5.817   5.874  10.262  0.2981  1.1302 -1.0742
   66CHL1    C2 7337   5.892   5.920  10.453  0.4449  0.3445  0.6259
   66CHL1   H2A 7338   5.815   5.997  10.471  0.8308  0.7699  0.4792
   66CHL1   H2B 7339   5.980   5.966  10.503  1.4425 -0.6789 -0.1583
   66CHL1   C20 7340   6.150   5.699   9.565 -0.3495 -0.6736 -0.4778
   66CHL1   H20 7341   6.256   5.681   9.596 -0.2248  2.1361  0.8096
   66CHL1   C21 7342   6.126   5.845   9.527  0.8909  0.0648 -0.6819
   66CHL1  H21A 7343   6.200   5.878   9.451  0.1841 -0.9595 -1.8345
   66CHL1  H21B 7344   6.149   5.906   9.617 -0.2046 -2.8316  1.6389
   66CHL1  H21C 7345   6.021   5.859   9.493  0.9390 -1.9678 -1.7344
   66CHL1   C22 7346   6.127   5.614   9.440 -0.0600 -0.4991  0.1969
   66CHL1  H22A 7347   6.157   5.510   9.466  3.3789  0.1526 -0.8486
   66CHL1  H22B 7348   6.019   5.629   9.419  0.0633 -0.3390 -0.3414
   66CHL1   C23 7349   6.188   5.673   9.308 -0.6694  0.8711  0.2547
   66CHL1  H23A 7350   6.122   5.759   9.285  1.2307  2.4129  0.3878
   66CHL1  H23B 7351   6.295   5.704   9.315  0.3199 -1.6300 -2.7352
   66CHL1   C24 7352   6.186   5.565   9.196  0.7002  0.0764 -0.2038
   66CHL1  H24A 7353   6.257   5.484   9.224 -0.1226 -1.3601 -2.1495
   66CHL1  H24B 7354   6.088   5.514   9.184  0.1009  0.5806  2.2508
   66CHL1   C25 7355   6.226   5.598   9.048  0.1534  0.1032  0.1417
   66CHL1   H25 7356   6.154   5.678   9.020 -0.7032 -1.1554 -1.3187
   66CHL1   C26 7357   6.364   5.656   9.022 -0.4425 -0.5837 -0.8772
   66CHL1  H26A 7358   6.445   5.598   9.072 -1.1410 -1.0930 -0.3333
   66CHL1  H26B 7359   6.394   5.660   8.915  0.9234  0.5587 -0.4720
   66CHL1  H26C 7360   6.376   5.759   9.061 -0.9206 -0.6428 -0.5779
   66CHL1   C27 7361   6.198   5.477   8.956  0.2203 -0.6701 -0.8814
   66CHL1  H27A 7362   6.090   5.452   8.964  0.2817 -0.5798  0.4548
   66CHL1  H27B 7363   6.220   5.503   8.851  2.0179 -0.7200 -0.5334
   66CHL1  H27C 7364   6.268   5.393   8.970  0.6807 -0.6588 -3.0227
   67CHL1    C3 7365   2.913   0.398  10.236 -0.5659  0.1262 -0.4677
   67CHL1    H3 7366   2.808   0.434  10.229 -1.2184 -2.0306 -2.7939
   67CHL1    O3 7367   2.954   0.400  10.373  0.4963 -0.3517 -0.3469
   67CHL1   H3' 7368   3.048   0.382  10.366  0.2542 -2.2796  1.0569
   67CHL1    C4 7369   2.917   0.258  10.175 -0.4155  0.1765 -0.6299
   67CHL1   H4A 7370   3.019   0.222  10.198 -1.1110 -1.3910  0.0940
   67CHL1   H4B 7371   2.852   0.200  10.245 -0.9846  0.9039 -0.5506
   67CHL1    C5 7372   2.884   0.249  10.030  0.0153 -0.2970 -0.1185
   67CHL1    C6 7373   2.789   0.170   9.980  0.2864 -0.1533 -0.7416
   67CHL1    H6 7374   2.736   0.101  10.048 -0.2745  1.0750  0.0719
   67CHL1    C7 7375   2.747   0.160   9.832 -0.1677  0.6059 -0.5920
   67CHL1   H7A 7376   2.726   0.056   9.800  1.3294  0.7339 -2.0921
   67CHL1   H7B 7377   2.653   0.216   9.812  0.4638  1.0762 -2.3813
   67CHL1    C8 7378   2.855   0.224   9.745  0.7624 -0.2403  0.4427
   67CHL1    H8 7379   2.938   0.150   9.733 -1.0027 -2.1335 -0.3296
   67CHL1   C14 7380   2.794   0.247   9.603 -0.1625 -0.9112  0.4893
   67CHL1   H14 7381   2.710   0.320   9.616  0.3095 -0.2148 -0.3508
   67CHL1   C15 7382   2.736   0.122   9.537 -0.2130 -0.7432 -0.9530
   67CHL1  H15A 7383   2.802   0.033   9.548  1.9785  0.7488 -1.6008
   67CHL1  H15B 7384   2.632   0.096   9.564 -0.2749 -0.1202 -0.5840
   67CHL1   C16 7385   2.727   0.167   9.390  0.2799 -0.5996 -0.0227
   67CHL1  H16A 7386   2.774   0.084   9.333 -0.5717 -0.2943 -1.1812
   67CHL1  H16B 7387   2.619   0.174   9.363  0.4333 -0.5644 -0.6322
   67CHL1   C17 7388   2.790   0.313   9.378 -0.0148 -0.2203  0.3645
   67CHL1   H17 7389   2.702   0.378   9.397 -0.0880 -0.1710 -0.1469
   67CHL1   C13 7390   2.881   0.314   9.500 -0.3168 -0.5975  0.2233
   67CHL1   C18 7391   3.004   0.214   9.466 -0.9437 -0.0312  0.1789
   67CHL1  H18A 7392   2.977   0.108   9.446  3.2080 -0.9098 -1.2942
   67CHL1  H18B 7393   3.061   0.250   9.378  1.5160  0.0449  1.7395
   67CHL1  H18C 7394   3.067   0.212   9.558  0.8188 -2.3369 -1.0324
   67CHL1   C12 7395   2.932   0.450   9.556  0.6531  0.0110 -0.2796
   67CHL1  H12A 7396   2.997   0.493   9.476  1.8636 -1.6864 -0.2303
   67CHL1  H12B 7397   2.843   0.517   9.558  1.5386  1.1890  1.8564
   67CHL1   C11 7398   2.997   0.436   9.698  0.8252  0.3845  0.0093
   67CHL1  H11A 7399   3.094   0.384   9.685  0.9136  0.6058 -0.2089
   67CHL1  H11B 7400   3.017   0.534   9.745  0.4101 -0.2134  1.4748
   67CHL1    C9 7401   2.906   0.361   9.798  0.3325 -0.0346  0.2235
   67CHL1    H9 7402   2.817   0.428   9.795 -0.4767 -1.1279 -0.3586
   67CHL1   C10 7403   2.957   0.353   9.941 -0.1775  0.2239 -0.7781
   67CHL1   C19 7404   3.096   0.287   9.934 -0.1627  0.2903 -0.2468
   67CHL1  H19A 7405   3.142   0.258  10.030 -0.6652  1.7965  0.4632
   67CHL1  H19B 7406   3.101   0.198   9.866 -1.9950  1.3261 -1.7901
   67CHL1  H19C 7407   3.169   0.357   9.889 -1.1899  1.3826 -0.2322
   67CHL1    C1 7408   2.967   0.493  10.011  0.2996  0.0962 -0.2688
   67CHL1   H1A 7409   3.039   0.552   9.950 -1.6626  1.5550 -1.2205
   67CHL1   H1B 7410   2.868   0.543  10.009  0.2216  0.0805  2.1549
   67CHL1    C2 7411   3.007   0.479  10.153  0.1373  0.3526  0.1996
   67CHL1   H2A 7412   3.013   0.585  10.187  2.2541 -0.1413  1.4759
   67CHL1   H2B 7413   3.108   0.435  10.169 -0.7213 -1.1834  1.6247
   67CHL1   C20 7414   2.836   0.342   9.238 -0.0810 -0.5423  0.2707
   67CHL1   H20 7415   2.942   0.309   9.231 -0.0364 -0.0939 -1.1836
   67CHL1   C21 7416   2.833   0.497   9.231 -0.3551 -0.2582  0.1900
   67CHL1  H21A 7417   2.894   0.536   9.147  0.4733 -1.1373  0.3780
   67CHL1  H21B 7418   2.869   0.544   9.325 -0.9584 -0.1230  0.3615
   67CHL1  H21C 7419   2.728   0.535   9.228 -0.4631 -0.6034 -0.6876
   67CHL1   C22 7420   2.758   0.276   9.118 -0.3062 -0.7257 -0.1874
   67CHL1  H22A 7421   2.776   0.167   9.126  0.4136 -0.5801  0.1528
   67CHL1  H22B 7422   2.650   0.297   9.132 -0.1449 -1.1463  1.9085
   67CHL1   C23 7423   2.806   0.317   8.974  0.0051  0.0164 -0.4685
   67CHL1  H23A 7424   2.773   0.417   8.938 -0.0632  0.6031  1.1371
   67CHL1  H23B 7425   2.917   0.324   8.978 -0.0817  0.7488  1.1109
   67CHL1   C24 7426   2.771   0.202   8.871 -0.3816  0.1105  0.0011
   67CHL1  H24A 7427   2.811   0.102   8.898  0.1736 -0.2409 -2.0093
   67CHL1  H24B 7428   2.661   0.203   8.879 -0.3206  2.8530  0.8738
   67CHL1   C25 7429   2.808   0.242   8.723  0.1794 -0.1007  0.0864
   67CHL1   H25 7430   2.915   0.271   8.722  0.0737  0.3153  0.5182
   67CHL1   C26 7431   2.787   0.121   8.635  0.3894  0.7401  1.3197
   67CHL1  H26A 7432   2.682   0.087   8.649  0.8107 -0.4151  1.6417
   67CHL1  H26B 7433   2.812   0.149   8.530  0.6785 -2.8718  0.3587
   67CHL1  H26C 7434   2.859   0.042   8.664  0.3461 -0.9931 -2.9612
   67CHL1   C27 7435   2.733   0.368   8.677  0.2026 -0.4128  0.2176
   67CHL1  H27A 7436   2.774   0.399   8.578 -2.5163  1.9921 -0.2209
   67CHL1  H27B 7437   2.628   0.336   8.663 -0.0473  0.4692  0.0262
   67CHL1  H27C 7438   2.753   0.459   8.737  0.7378 -0.6542  0.4103
   68CHL1    C3 7439   1.400   0.470  10.327 -0.2322  0.5478 -0.0162
   68CHL1    H3 7440   1.440   0.574  10.319 -0.6321  0.7767  0.8913
   68CHL1    O3 7441   1.388   0.433  10.462 -0.4263 -0.1273  0.9926
   68CHL1   H3' 7442   1.471   0.448  10.507 -1.7017  0.0103  3.3994
   68CHL1    C4 7443   1.258   0.470  10.261 -0.3214  0.2597 -0.5995
   68CHL1   H4A 7444   1.203   0.376  10.285 -3.8934  2.0192 -1.5005
   68CHL1   H4B 7445   1.206   0.548  10.320  2.1863  1.0051  0.7124
   68CHL1    C5 7446   1.250   0.491  10.111 -0.0297  0.1000  0.3782
   68CHL1    C6 7447   1.172   0.588  10.059 -0.1229  0.0609 -0.8547
   68CHL1    H6 7448   1.112   0.662  10.114  0.6492  0.7559 -0.9357
   68CHL1    C7 7449   1.150   0.590   9.911  0.5411  0.2597  0.4937
   68CHL1   H7A 7450   1.044   0.569   9.883  1.0508 -2.0216  0.2177
   68CHL1   H7B 7451   1.177   0.692   9.875  1.0729  0.2266  0.8030
   68CHL1    C8 7452   1.230   0.484   9.821  0.3493 -0.7708  0.8612
   68CHL1    H8 7453   1.161   0.397   9.819 -1.3861  0.5387  1.8174
   68CHL1   C14 7454   1.249   0.539   9.682  0.3941 -0.4404  0.4678
   68CHL1   H14 7455   1.316   0.625   9.701 -1.8308  1.3519  0.4805
   68CHL1   C15 7456   1.129   0.602   9.599 -0.1053 -0.2325  0.2487
   68CHL1  H15A 7457   1.039   0.539   9.607 -1.4326  1.9769  3.8565
   68CHL1  H15B 7458   1.107   0.701   9.644  1.3059  0.4407 -0.5002
   68CHL1   C16 7459   1.184   0.603   9.455 -0.4791  0.4911 -0.7079
   68CHL1  H16A 7460   1.106   0.536   9.413 -0.7387 -0.0394  0.6089
   68CHL1  H16B 7461   1.184   0.707   9.416 -0.2892  0.7379 -0.0496
   68CHL1   C17 7462   1.315   0.522   9.452 -0.4702  0.0095 -0.5609
   68CHL1   H17 7463   1.402   0.591   9.459 -0.6519  0.1512  0.4032
   68CHL1   C13 7464   1.313   0.437   9.584 -0.6978  0.1360 -0.3282
   68CHL1   C18 7465   1.221   0.307   9.569 -0.0962 -0.4279  0.5030
   68CHL1  H18A 7466   1.120   0.335   9.533 -0.9082 -1.9207  1.5672
   68CHL1  H18B 7467   1.263   0.236   9.494  0.1130  0.3274 -0.0947
   68CHL1  H18C 7468   1.194   0.255   9.663 -2.5813  2.7747  1.6400
   68CHL1   C12 7469   1.455   0.398   9.644 -0.2241 -0.1204 -0.5906
   68CHL1  H12A 7470   1.499   0.312   9.590  2.3702  0.4249  0.5504
   68CHL1  H12B 7471   1.519   0.488   9.631 -1.8814  1.4146  1.4247
   68CHL1   C11 7472   1.447   0.355   9.798  0.3357 -0.3245 -0.0015
   68CHL1  H11A 7473   1.397   0.256   9.803 -2.6082  1.1025  0.6097
   68CHL1  H11B 7474   1.553   0.346   9.828  0.4744  0.5044 -0.2053
   68CHL1    C9 7475   1.359   0.448   9.893  0.9236  0.2369  0.3516
   68CHL1    H9 7476   1.415   0.543   9.899  1.5476 -0.0922 -0.1605
   68CHL1   C10 7477   1.338   0.398  10.036 -0.1550  0.5209  0.0904
   68CHL1   C19 7478   1.259   0.267  10.042 -0.4195 -0.7253  0.2156
   68CHL1  H19A 7479   1.248   0.239  10.148 -1.5919  1.6969  0.7624
   68CHL1  H19B 7480   1.157   0.269   9.998 -0.8552 -1.5830  1.1934
   68CHL1  H19C 7481   1.312   0.187   9.986 -0.7697 -1.0255  0.3120
   68CHL1    C1 7482   1.484   0.391  10.097  0.1471 -0.4630 -0.7364
   68CHL1   H1A 7483   1.525   0.297  10.056 -1.1574 -2.0581  1.5142
   68CHL1   H1B 7484   1.543   0.474  10.053  0.8953 -1.0987 -0.9246
   68CHL1    C2 7485   1.494   0.376  10.246 -0.2830  0.4437 -0.0099
   68CHL1   H2A 7486   1.595   0.373  10.292 -0.3321  1.6078  0.1891
   68CHL1   H2B 7487   1.445   0.278  10.260 -1.6247  0.9812 -0.8404
   68CHL1   C20 7488   1.331   0.441   9.322  0.6059 -0.3254  0.0863
   68CHL1   H20 7489   1.249   0.368   9.332 -0.3829  0.7763  0.2098
   68CHL1   C21 7490   1.467   0.380   9.316 -0.1848 -0.3106 -0.3829
   68CHL1  H21A 7491   1.554   0.447   9.337 -0.1377  0.0404 -1.6321
   68CHL1  H21B 7492   1.489   0.344   9.213  1.3387 -1.4805  0.3151
   68CHL1  H21C 7493   1.480   0.283   9.370 -0.0698  1.1227  2.2352
   68CHL1   C22 7494   1.308   0.532   9.199 -0.5938  0.1922 -0.0267
   68CHL1  H22A 7495   1.212   0.587   9.208 -0.4074  0.0431  3.5478
   68CHL1  H22B 7496   1.388   0.606   9.180 -2.3425  1.8384 -1.1034
   68CHL1   C23 7497   1.302   0.456   9.062  0.2822 -0.0373 -0.1859
   68CHL1  H23A 7498   1.406   0.425   9.040  0.6867  1.3268 -0.2277
   68CHL1  H23B 7499   1.241   0.364   9.076 -0.8796  0.9010  0.9671
   68CHL1   C24 7500   1.232   0.535   8.946  0.1147  0.1721 -0.4135
   68CHL1  H24A 7501   1.130   0.561   8.981 -0.6106  0.9312 -2.9853
   68CHL1  H24B 7502   1.276   0.629   8.907 -1.3657  0.5181 -1.2641
   68CHL1   C25 7503   1.214   0.452   8.819  0.0791  1.2089  0.0031
   68CHL1   H25 7504   1.167   0.356   8.850  0.5639  1.3369  1.1853
   68CHL1   C26 7505   1.113   0.525   8.725 -0.1620 -1.3809  0.3284
   68CHL1  H26A 7506   1.139   0.633   8.725  0.8587 -1.6173 -0.5788
   68CHL1  H26B 7507   1.123   0.491   8.620  1.2971 -0.7179  0.2374
   68CHL1  H26C 7508   1.007   0.525   8.757 -0.8415 -0.3319 -1.8517
   68CHL1   C27 7509   1.342   0.426   8.746  0.2506  0.3612  0.0169
   68CHL1  H27A 7510   1.324   0.364   8.656 -0.9418  1.9262 -0.8249
   68CHL1  H27B 7511   1.401   0.518   8.725 -0.8564  1.8186  3.0474
   68CHL1  H27C 7512   1.406   0.368   8.817  2.5427  0.8820 -1.5605
   69CHL1    C3 7513   0.722   5.707   6.817 -0.3235  0.0578  0.5657
   69CHL1    H3 7514   0.803   5.652   6.869  0.0307 -0.0475 -0.0899
   69CHL1    O3 7515   0.770   5.730   6.681  0.6627  0.2580  0.3557
   69CHL1   H3' 7516   0.703   5.781   6.636 -0.2792  0.2576  1.7015
   69CHL1    C4 7517   0.595   5.620   6.815 -0.6968  0.4301 -0.2241
   69CHL1   H4A 7518   0.521   5.669   6.748  0.7071  0.0311 -2.1091
   69CHL1   H4B 7519   0.635   5.523   6.782  0.4694  0.9871 -0.4588
   69CHL1    C5 7520   0.526   5.593   6.947 -0.1895 -0.4624  0.7689
   69CHL1    C6 7521   0.509   5.475   6.997 -0.1662  0.4300 -0.5314
   69CHL1    H6 7522   0.541   5.384   6.943  0.4911 -0.9649  2.1368
   69CHL1    C7 7523   0.446   5.445   7.135 -0.1759  0.5357  0.2104
   69CHL1   H7A 7524   0.375   5.361   7.124  0.7212 -0.0475 -1.2165
   69CHL1   H7B 7525   0.523   5.419   7.210  0.7089  1.3558 -0.3903
   69CHL1    C8 7526   0.373   5.569   7.205  0.2461 -0.3425 -0.8984
   69CHL1    H8 7527   0.281   5.601   7.152 -0.6302 -1.8148 -0.2797
   69CHL1   C14 7528   0.363   5.554   7.353  0.2830  0.4221  0.2762
   69CHL1   H14 7529   0.464   5.532   7.394  1.0112  0.1941 -1.5821
   69CHL1   C15 7530   0.283   5.428   7.385  0.2195 -0.3218 -0.2402
   69CHL1  H15A 7531   0.193   5.432   7.320  0.8103  0.4020 -1.0274
   69CHL1  H15B 7532   0.336   5.331   7.374 -0.8888 -0.8499 -0.9900
   69CHL1   C16 7533   0.227   5.455   7.528 -0.4591 -0.0013 -0.0221
   69CHL1  H16A 7534   0.117   5.444   7.524 -0.4692 -0.8548  1.8829
   69CHL1  H16B 7535   0.270   5.383   7.602 -0.7575 -1.2230 -1.0240
   69CHL1   C17 7536   0.262   5.603   7.564 -0.3021  1.2801 -0.4010
   69CHL1   H17 7537   0.363   5.601   7.609  0.4552  0.8981 -2.0429
   69CHL1   C13 7538   0.294   5.668   7.428  0.1316  0.5457  0.0890
   69CHL1   C18 7539   0.160   5.695   7.381 -0.2814 -0.5150  0.7728
   69CHL1  H18A 7540   0.080   5.619   7.396  0.2843 -2.2233 -3.9854
   69CHL1  H18B 7541   0.133   5.795   7.422  0.3240 -1.3523  3.2773
   69CHL1  H18C 7542   0.159   5.718   7.272  0.0505 -0.2950  0.8172
   69CHL1   C12 7543   0.391   5.792   7.423  0.1586 -0.5531 -0.1400
   69CHL1  H12A 7544   0.348   5.877   7.481 -1.6039 -1.4722 -0.0756
   69CHL1  H12B 7545   0.491   5.768   7.466 -0.0661  1.2481  1.4700
   69CHL1   C11 7546   0.415   5.825   7.277  0.3539  0.2728 -0.2842
   69CHL1  H11A 7547   0.321   5.871   7.239 -1.1858  0.1723  3.2392
   69CHL1  H11B 7548   0.496   5.902   7.274  0.0805  0.5110 -2.5082
   69CHL1    C9 7549   0.459   5.699   7.188 -0.3124 -0.2433 -0.3868
   69CHL1    H9 7550   0.560   5.676   7.230 -0.1880 -0.3726 -0.7607
   69CHL1   C10 7551   0.492   5.725   7.033  1.2029 -0.1337 -0.4667
   69CHL1   C19 7552   0.379   5.789   6.962  0.2523  0.3908 -0.1452
   69CHL1  H19A 7553   0.367   5.895   6.992 -0.7269  0.2262  0.0858
   69CHL1  H19B 7554   0.385   5.782   6.851 -0.8311 -1.6395 -0.0995
   69CHL1  H19C 7555   0.284   5.735   6.984  1.2286 -0.5875  1.8098
   69CHL1    C1 7556   0.622   5.803   7.031 -0.6620 -0.3024  0.4730
   69CHL1   H1A 7557   0.601   5.894   7.091  0.6767 -0.7473  1.6236
   69CHL1   H1B 7558   0.699   5.741   7.081  1.9201  0.7074 -2.0482
   69CHL1    C2 7559   0.684   5.840   6.886 -0.4089 -0.1868  0.0199
   69CHL1   H2A 7560   0.771   5.901   6.918 -0.9243  0.0945  0.9172
   69CHL1   H2B 7561   0.622   5.911   6.827  1.3861  0.2343 -1.4105
   69CHL1   C20 7562   0.167   5.669   7.660  0.8714  0.1049 -0.6678
   69CHL1   H20 7563   0.067   5.668   7.610  2.0445  0.2673 -3.0641
   69CHL1   C21 7564   0.193   5.812   7.691 -0.2261  0.6318 -0.4653
   69CHL1  H21A 7565   0.130   5.848   7.775 -0.1226  0.1715 -0.1922
   69CHL1  H21B 7566   0.162   5.868   7.600 -0.3067  2.2110  0.5029
   69CHL1  H21C 7567   0.302   5.828   7.705 -0.2126  2.6753 -2.5041
   69CHL1   C22 7568   0.140   5.578   7.781  0.0582  0.0917  0.7145
   69CHL1  H22A 7569   0.059   5.621   7.845 -1.2219 -0.4339 -0.5455
   69CHL1  H22B 7570   0.087   5.491   7.738 -2.5888  1.5472  0.9108
   69CHL1   C23 7571   0.262   5.541   7.870 -0.2711 -0.2326  0.6450
   69CHL1  H23A 7572   0.311   5.458   7.814 -0.7083  0.7884 -1.2976
   69CHL1  H23B 7573   0.336   5.623   7.865  0.0251 -0.4774  1.0197
   69CHL1   C24 7574   0.232   5.493   8.013  0.3306 -0.2260  0.6284
   69CHL1  H24A 7575   0.210   5.576   8.082  1.3392 -0.2337  0.9774
   69CHL1  H24B 7576   0.147   5.423   8.001 -0.5470  0.8653  0.3972
   69CHL1   C25 7577   0.348   5.405   8.069  0.3200  0.1782 -0.3615
   69CHL1   H25 7578   0.396   5.351   7.985  1.5236  0.9828 -0.1999
   69CHL1   C26 7579   0.455   5.496   8.133  0.0270 -0.0159 -0.2018
   69CHL1  H26A 7580   0.531   5.435   8.186  0.4771 -0.1620 -0.9938
   69CHL1  H26B 7581   0.500   5.560   8.054 -0.3458 -0.2504 -0.6066
   69CHL1  H26C 7582   0.406   5.568   8.202  1.5659  0.7568  0.0925
   69CHL1   C27 7583   0.289   5.300   8.167  1.5049 -0.7513  0.4166
   69CHL1  H27A 7584   0.228   5.352   8.243  0.9231  1.0538 -1.2167
   69CHL1  H27B 7585   0.227   5.231   8.106 -0.0030  1.0869 -0.1943
   69CHL1  H27C 7586   0.381   5.261   8.215  3.1235  0.0250 -1.9289
   70CHL1    C3 7587   6.552   2.723   7.249 -0.2382  0.3892 -0.1418
   70CHL1    H3 7588   6.615   2.815   7.238  0.1912  0.1760  0.5014
   70CHL1    O3 7589   6.517   2.685   7.114  0.6777 -0.4105 -0.0764
   70CHL1   H3' 7590   6.596   2.657   7.066  0.5214  0.6642 -0.9812
   70CHL1    C4 7591   6.632   2.607   7.317  0.0513 -0.4175  0.1884
   70CHL1   H4A 7592   6.580   2.511   7.298  0.7634 -1.0780  1.5384
   70CHL1   H4B 7593   6.722   2.593   7.252 -0.8586  0.5839 -1.3333
   70CHL1    C5 7594   6.669   2.628   7.463  0.6073 -0.1992  0.5630
   70CHL1    C6 7595   6.793   2.630   7.495 -0.1140  0.3837 -0.2091
   70CHL1    H6 7596   6.876   2.597   7.431  0.7541  2.9775 -0.4938
   70CHL1    C7 7597   6.830   2.642   7.641 -0.2941 -0.7467  0.4822
   70CHL1   H7A 7598   6.905   2.564   7.665  0.4087 -0.3194 -0.2893
   70CHL1   H7B 7599   6.879   2.741   7.654 -0.3274 -0.9098  1.9094
   70CHL1    C8 7600   6.711   2.634   7.745 -0.5162 -0.1335  0.0484
   70CHL1    H8 7601   6.673   2.531   7.756 -0.6357 -0.0689  0.2368
   70CHL1   C14 7602   6.758   2.686   7.884  1.4797 -0.0580 -0.0524
   70CHL1   H14 7603   6.794   2.792   7.885 -1.2496  0.9229 -1.0677
   70CHL1   C15 7604   6.870   2.609   7.952  0.2915  0.4418 -0.1059
   70CHL1  H15A 7605   6.846   2.502   7.938 -0.8388  0.5540  0.9185
   70CHL1  H15B 7606   6.974   2.635   7.923  0.8973 -0.9824  0.7449
   70CHL1   C16 7607   6.838   2.631   8.103 -0.7812  0.3958 -0.0693
   70CHL1  H16A 7608   6.818   2.528   8.138  1.3974 -0.5849 -1.5890
   70CHL1  H16B 7609   6.924   2.681   8.153 -0.9565  0.7881 -0.1525
   70CHL1   C17 7610   6.712   2.722   8.114 -0.2346  0.3879  0.4768
   70CHL1   H17 7611   6.741   2.827   8.091 -1.0587  0.1912 -1.5047
   70CHL1   C13 7612   6.641   2.682   7.988 -0.8381  0.4671 -0.9676
   70CHL1   C18 7613   6.583   2.547   8.010  0.2671 -0.5078 -0.3532
   70CHL1  H18A 7614   6.505   2.555   8.088  1.1152 -2.1965  0.7000
   70CHL1  H18B 7615   6.548   2.505   7.913  1.0545  0.1297 -0.9243
   70CHL1  H18C 7616   6.650   2.468   8.050  1.5304  0.9669  0.5018
   70CHL1   C12 7617   6.524   2.783   7.940 -0.7316 -0.1774 -0.3173
   70CHL1  H12A 7618   6.435   2.793   8.006 -1.9991 -0.5823 -1.9525
   70CHL1  H12B 7619   6.577   2.881   7.944  0.0637 -0.6497  1.5400
   70CHL1   C11 7620   6.483   2.734   7.802 -0.3550  0.4477  0.7784
   70CHL1  H11A 7621   6.425   2.641   7.819  0.7788 -0.3389  0.3849
   70CHL1  H11B 7622   6.407   2.807   7.766 -2.1135 -0.3728  2.7595
   70CHL1    C9 7623   6.591   2.713   7.698  0.7004 -0.0196 -0.0894
   70CHL1    H9 7624   6.632   2.815   7.680  1.1377 -0.2023 -0.1261
   70CHL1   C10 7625   6.549   2.662   7.555 -0.2372 -0.6074  0.9403
   70CHL1   C19 7626   6.465   2.534   7.577 -0.3012  0.1038  0.7310
   70CHL1  H19A 7627   6.518   2.470   7.651 -0.4992  0.4475  1.1733
   70CHL1  H19B 7628   6.379   2.574   7.635  0.3032  2.5105  0.0045
   70CHL1  H19C 7629   6.420   2.486   7.488  0.3133  1.7901 -0.5192
   70CHL1    C1 7630   6.464   2.773   7.489  0.0173 -0.2428  0.0332
   70CHL1   H1A 7631   6.370   2.791   7.546 -0.1035  2.3339 -0.9573
   70CHL1   H1B 7632   6.534   2.859   7.496 -0.8218  0.5341 -0.8721
   70CHL1    C2 7633   6.427   2.761   7.334 -0.2332  0.2228  0.3290
   70CHL1   H2A 7634   6.368   2.849   7.300 -2.3184 -1.6028 -0.8827
   70CHL1   H2B 7635   6.357   2.676   7.325  1.1692 -0.8435 -0.6808
   70CHL1   C20 7636   6.625   2.723   8.241 -0.2928  0.4497 -0.3304
   70CHL1   H20 7637   6.517   2.702   8.230 -0.3961  0.0361  1.3678
   70CHL1   C21 7638   6.623   2.866   8.295  0.4251 -0.6978 -0.7523
   70CHL1  H21A 7639   6.716   2.891   8.351  1.3183 -0.7883 -2.1674
   70CHL1  H21B 7640   6.532   2.876   8.356 -0.0546 -1.5745 -1.3221
   70CHL1  H21C 7641   6.603   2.935   8.210  0.3854  3.3018  2.3717
   70CHL1   C22 7642   6.684   2.620   8.352 -0.5377 -0.2776 -0.4001
   70CHL1  H22A 7643   6.662   2.515   8.325 -0.8417 -0.2858 -0.1285
   70CHL1  H22B 7644   6.792   2.639   8.367 -0.6048  0.5340 -0.8959
   70CHL1   C23 7645   6.600   2.629   8.477 -0.2729 -0.6572 -0.3963
   70CHL1  H23A 7646   6.612   2.727   8.530  1.9656 -1.5279  0.7834
   70CHL1  H23B 7647   6.492   2.620   8.452 -0.4714 -1.8347  0.8174
   70CHL1   C24 7648   6.639   2.515   8.577 -0.1548  0.4311  0.6767
   70CHL1  H24A 7649   6.740   2.484   8.544 -0.8397 -0.2397 -0.8243
   70CHL1  H24B 7650   6.652   2.553   8.681  0.2944 -0.6052  1.0052
   70CHL1   C25 7651   6.552   2.390   8.545 -0.1954  0.2406 -0.6060
   70CHL1   H25 7652   6.538   2.381   8.435 -0.2656  0.6892 -0.6333
   70CHL1   C26 7653   6.629   2.270   8.598  0.0948  0.1955 -0.4215
   70CHL1  H26A 7654   6.571   2.176   8.589 -0.7921  0.6273  0.6853
   70CHL1  H26B 7655   6.731   2.270   8.552 -0.1111  1.8841 -0.9177
   70CHL1  H26C 7656   6.648   2.287   8.706 -1.1465  0.2234 -0.2118
   70CHL1   C27 7657   6.412   2.407   8.609  0.0558 -0.4978 -0.2235
   70CHL1  H27A 7658   6.378   2.513   8.602  4.2224  0.8746 -0.8792
   70CHL1  H27B 7659   6.333   2.346   8.559 -3.1568  1.2225  2.5603
   70CHL1  H27C 7660   6.422   2.388   8.718  1.9897  1.0004 -0.1002
   71CHL1    C3 7661   6.218   4.520   6.950  0.1057 -0.4044  0.2234
   71CHL1    H3 7662   6.320   4.544   6.987 -0.2363  1.2540  0.1475
   71CHL1    O3 7663   6.230   4.459   6.826 -0.2540 -0.0117  0.1666
   71CHL1   H3' 7664   6.314   4.500   6.802 -0.2639  0.5552  1.0717
   71CHL1    C4 7665   6.163   4.422   7.051  0.1015  0.1376 -0.3431
   71CHL1   H4A 7666   6.064   4.381   7.021 -1.0734  1.6541  1.2994
   71CHL1   H4B 7667   6.233   4.336   7.047 -1.4236 -1.2103  1.1428
   71CHL1    C5 7668   6.150   4.484   7.193  0.5038  0.2450 -0.5245
   71CHL1    C6 7669   6.204   4.423   7.303  0.1187  0.3213  0.3012
   71CHL1    H6 7670   6.260   4.329   7.290  0.5339  0.4516  1.0843
   71CHL1    C7 7671   6.185   4.478   7.440  0.0953 -0.5816 -0.1261
   71CHL1   H7A 7672   6.162   4.396   7.512 -2.4784 -2.5560 -3.0333
   71CHL1   H7B 7673   6.276   4.536   7.467 -1.0201 -0.0463  2.6734
   71CHL1    C8 7674   6.065   4.574   7.446  0.3083  0.4862  0.1695
   71CHL1    H8 7675   5.967   4.522   7.433  0.4343  0.0458  0.9031
   71CHL1   C14 7676   6.058   4.655   7.575  0.2309  0.1959  0.0973
   71CHL1   H14 7677   6.152   4.715   7.583  0.8293 -0.7120  0.0307
   71CHL1   C15 7678   6.054   4.578   7.709 -0.3510 -0.1419  0.1679
   71CHL1  H15A 7679   5.972   4.504   7.697 -0.5525  0.4503 -2.2547
   71CHL1  H15B 7680   6.151   4.532   7.739  0.3554  0.6894 -0.8463
   71CHL1   C16 7681   6.017   4.690   7.811 -0.8960 -0.4130 -0.1270
   71CHL1  H16A 7682   5.943   4.646   7.880 -2.1344  0.3797 -0.9104
   71CHL1  H16B 7683   6.105   4.713   7.874 -2.0005  1.3738  0.8171
   71CHL1   C17 7684   5.963   4.810   7.727 -0.9361 -0.0225  0.4619
   71CHL1   H17 7685   6.051   4.872   7.701 -1.8434  0.4167 -1.6324
   71CHL1   C13 7686   5.945   4.754   7.589 -0.2178 -0.3234  0.3079
   71CHL1   C18 7687   5.809   4.682   7.580 -0.2369  0.0445 -0.2318
   71CHL1  H18A 7688   5.797   4.625   7.485  0.5485 -0.9350  0.2519
   71CHL1  H18B 7689   5.792   4.603   7.655  1.9655  0.1149  0.3807
   71CHL1  H18C 7690   5.737   4.766   7.589 -0.9539 -0.3258 -2.1948
   71CHL1   C12 7691   5.959   4.863   7.482 -0.1205  0.1448 -0.5852
   71CHL1  H12A 7692   5.869   4.928   7.483 -0.6354 -0.5390 -1.7596
   71CHL1  H12B 7693   6.048   4.923   7.512 -0.8485  0.0037  1.9691
   71CHL1   C11 7694   5.976   4.799   7.344 -0.2105  0.3397 -0.1339
   71CHL1  H11A 7695   5.869   4.780   7.320 -0.2117  1.1543 -0.7941
   71CHL1  H11B 7696   5.999   4.883   7.275  2.9285  0.3731  0.8544
   71CHL1    C9 7697   6.075   4.682   7.330 -0.4352 -0.4058 -0.3490
   71CHL1    H9 7698   6.171   4.732   7.354 -1.4969  0.2433  2.6651
   71CHL1   C10 7699   6.069   4.610   7.196 -0.2462  0.1802 -0.0469
   71CHL1   C19 7700   5.925   4.578   7.159 -0.1221 -0.6985 -0.6061
   71CHL1  H19A 7701   5.922   4.497   7.084  0.0438 -0.6116 -0.7088
   71CHL1  H19B 7702   5.874   4.541   7.250 -2.6251  0.5982 -1.4439
   71CHL1  H19C 7703   5.864   4.666   7.129  1.5228  0.6277 -0.1899
   71CHL1    C1 7704   6.138   4.708   7.093 -0.1898  0.0078 -0.5821
   71CHL1   H1A 7705   6.081   4.803   7.095 -2.4035 -1.2880  1.1496
   71CHL1   H1B 7706   6.244   4.719   7.125 -0.5139  0.4985  0.3366
   71CHL1    C2 7707   6.144   4.652   6.951  1.3175 -0.0591 -0.6694
   71CHL1   H2A 7708   6.198   4.727   6.888 -0.4534  1.8141 -0.0234
   71CHL1   H2B 7709   6.043   4.642   6.907  0.5786 -1.2102  1.2549
   71CHL1   C20 7710   5.855   4.893   7.793  0.1630 -0.0629 -0.1000
   71CHL1   H20 7711   5.757   4.841   7.790  1.2272 -2.0602 -1.5686
   71CHL1   C21 7712   5.848   5.031   7.723 -0.5046 -0.9355 -0.3022
   71CHL1  H21A 7713   5.813   5.111   7.792  2.7528  1.3749 -1.2285
   71CHL1  H21B 7714   5.764   5.035   7.650  0.5236  1.5070 -1.4019
   71CHL1  H21C 7715   5.947   5.062   7.684  0.3850  0.8606  3.1238
   71CHL1   C22 7716   5.884   4.921   7.941  0.9161 -0.4615  0.2222
   71CHL1  H22A 7717   5.911   4.825   7.990 -1.2010 -0.7346  0.9229
   71CHL1  H22B 7718   5.979   4.979   7.942  0.8316 -0.1051 -3.5305
   71CHL1   C23 7719   5.761   4.966   8.026 -0.0900 -0.1420 -0.2112
   71CHL1  H23A 7720   5.701   5.051   7.987  1.2356  2.0095  2.2291
   71CHL1  H23B 7721   5.699   4.875   8.012 -2.1488  1.5032 -2.1964
   71CHL1   C24 7722   5.808   4.990   8.167  0.3851  0.5137  0.5934
   71CHL1  H24A 7723   5.879   4.919   8.214 -2.0505 -1.7616  0.9692
   71CHL1  H24B 7724   5.851   5.093   8.172 -0.0111  0.7151 -0.0781
   71CHL1   C25 7725   5.689   4.993   8.270  0.2675 -0.4522 -0.1813
   71CHL1   H25 7726   5.626   4.902   8.263 -0.3735  0.0676 -1.2527
   71CHL1   C26 7727   5.735   4.996   8.421 -0.0082 -0.9940  0.2994
   71CHL1  H26A 7728   5.761   4.897   8.464 -3.0530 -1.6877  0.7023
   71CHL1  H26B 7729   5.825   5.060   8.429 -0.6607  0.1625 -1.4440
   71CHL1  H26C 7730   5.652   5.033   8.485  0.7785  0.8539  0.2691
   71CHL1   C27 7731   5.591   5.113   8.252  0.5402 -0.0652 -0.1085
   71CHL1  H27A 7732   5.527   5.115   8.343  1.1142 -0.4471  0.3071
   71CHL1  H27B 7733   5.655   5.202   8.233  2.0303 -1.4311 -1.5550
   71CHL1  H27C 7734   5.531   5.108   8.159 -1.3561  0.5667  1.0339
   72CHL1    C3 7735   0.050   3.111   6.971  0.7039  0.1286 -1.0668
   72CHL1    H3 7736   0.150   3.154   6.996  0.4139  0.3701 -0.3073
   72CHL1    O3 7737   0.055   3.079   6.835 -0.1884  0.4109  0.6011
   72CHL1   H3' 7738   0.011   2.995   6.822  1.2463 -0.2720  0.1121
   72CHL1    C4 7739   0.009   2.991   7.065  0.6377 -0.6663  0.0618
   72CHL1   H4A 7740  -0.082   2.932   7.039  0.2252 -0.9369  2.0151
   72CHL1   H4B 7741   0.098   2.926   7.049  2.1329  1.4401 -0.4308
   72CHL1    C5 7742   0.006   3.045   7.206 -0.1081  0.5634  0.0978
   72CHL1    C6 7743   0.091   2.997   7.301  0.1267 -0.4057  0.1464
   72CHL1    H6 7744   0.160   2.920   7.264 -1.4778 -0.8346 -2.1104
   72CHL1    C7 7745   0.087   3.038   7.446 -0.1453  0.0367 -0.1223
   72CHL1   H7A 7746   0.098   2.948   7.510  2.1369  0.5237  0.1930
   72CHL1   H7B 7747   0.175   3.096   7.479 -0.3971  0.7257 -0.6406
   72CHL1    C8 7748  -0.048   3.097   7.476  0.7855 -0.5063 -0.6643
   72CHL1    H8 7749  -0.116   3.009   7.474  1.4322 -0.9800 -2.0371
   72CHL1   C14 7750  -0.038   3.153   7.618  0.4775 -0.5663 -0.0268
   72CHL1   H14 7751   0.037   3.234   7.605  1.2159 -0.9938  1.4834
   72CHL1   C15 7752   0.007   3.065   7.740 -0.4492 -0.7617  0.3825
   72CHL1  H15A 7753  -0.030   2.963   7.719 -2.3786 -0.1085  0.5045
   72CHL1  H15B 7754   0.118   3.062   7.742 -0.4284 -0.1697  0.3277
   72CHL1   C16 7755  -0.035   3.154   7.860  0.1479 -0.5956  0.3850
   72CHL1  H16A 7756  -0.101   3.088   7.920 -1.8724  0.9355 -0.0869
   72CHL1  H16B 7757   0.056   3.185   7.915  1.9723 -1.8489 -1.8681
   72CHL1   C17 7758  -0.126   3.269   7.805 -0.0336  0.8357  0.3184
   72CHL1   H17 7759  -0.055   3.353   7.789 -0.7764  1.1843 -1.2344
   72CHL1   C13 7760  -0.162   3.224   7.657 -0.5723  0.2286  0.0815
   72CHL1   C18 7761  -0.286   3.133   7.655  0.2826  0.1520 -0.4081
   72CHL1  H18A 7762  -0.283   3.039   7.714  3.1071  0.6074  0.2642
   72CHL1  H18B 7763  -0.375   3.186   7.695  1.2104 -0.4426  2.5913
   72CHL1  H18C 7764  -0.299   3.103   7.549  0.2419  0.0603 -0.3776
   72CHL1   C12 7765  -0.171   3.354   7.564 -0.9320  0.2082  0.1547
   72CHL1  H12A 7766  -0.249   3.417   7.611  0.3102 -0.3878  3.1480
   72CHL1  H12B 7767  -0.074   3.406   7.576 -0.5991 -0.2438 -0.5559
   72CHL1   C11 7768  -0.190   3.310   7.420 -0.2230  0.2157 -0.0809
   72CHL1  H11A 7769  -0.282   3.248   7.412  1.1124 -1.8125  0.0111
   72CHL1  H11B 7770  -0.192   3.398   7.353 -0.9200  0.6144  0.4612
   72CHL1    C9 7771  -0.083   3.211   7.374 -0.4115 -0.5559  0.4792
   72CHL1    H9 7772   0.012   3.269   7.366 -0.4388 -0.3745  1.4847
   72CHL1   C10 7773  -0.092   3.163   7.226  0.5209 -0.2737  0.0304
   72CHL1   C19 7774  -0.234   3.103   7.211 -0.9833  0.0769 -0.3701
   72CHL1  H19A 7775  -0.308   3.185   7.221 -0.1996  0.8884 -1.1638
   72CHL1  H19B 7776  -0.253   3.075   7.105  1.2006  1.0814 -1.0512
   72CHL1  H19C 7777  -0.264   3.025   7.284  0.1111  1.6879  1.8628
   72CHL1    C1 7778  -0.079   3.277   7.119 -0.1292  0.3058 -0.5256
   72CHL1   H1A 7779  -0.161   3.352   7.110 -2.0189 -1.5199  0.8726
   72CHL1   H1B 7780   0.004   3.337   7.162  0.0326 -0.4431  0.2159
   72CHL1    C2 7781  -0.054   3.229   6.981  0.0971  0.0878 -0.1676
   72CHL1   H2A 7782  -0.020   3.308   6.911  0.8263  0.2648  0.3786
   72CHL1   H2B 7783  -0.152   3.188   6.949  0.5904 -2.3630  1.3267
   72CHL1   C20 7784  -0.241   3.300   7.905 -0.8821 -0.0026 -0.0231
   72CHL1   H20 7785  -0.296   3.205   7.923  0.9139 -1.0545 -0.0091
   72CHL1   C21 7786  -0.332   3.413   7.864 -0.2510 -0.6217  0.3339
   72CHL1  H21A 7787  -0.388   3.456   7.950  0.5904 -0.0812  0.6143
   72CHL1  H21B 7788  -0.390   3.377   7.776 -1.1664 -3.0300  1.8760
   72CHL1  H21C 7789  -0.266   3.497   7.833  0.3573 -1.5414 -0.9169
   72CHL1   C22 7790  -0.174   3.337   8.043  1.0220 -0.5273 -0.0801
   72CHL1  H22A 7791  -0.113   3.252   8.079 -0.1303 -1.6194 -0.6677
   72CHL1  H22B 7792  -0.110   3.426   8.023 -0.2043 -0.1548 -2.5541
   72CHL1   C23 7793  -0.264   3.351   8.162 -0.0775 -0.8601 -0.9658
   72CHL1  H23A 7794  -0.334   3.434   8.141  1.8277  1.4200  1.3730
   72CHL1  H23B 7795  -0.322   3.258   8.177  1.0153 -1.1972  1.5835
   72CHL1   C24 7796  -0.188   3.370   8.294  0.1650 -0.4997 -0.2960
   72CHL1  H24A 7797  -0.114   3.288   8.300 -1.1126 -1.7998 -1.6203
   72CHL1  H24B 7798  -0.132   3.466   8.288  1.0387 -1.0188 -0.4787
   72CHL1   C25 7799  -0.281   3.376   8.413 -0.5301  0.3606 -0.0267
   72CHL1   H25 7800  -0.329   3.275   8.412 -2.1269  1.0933  0.5371
   72CHL1   C26 7801  -0.201   3.385   8.548 -0.1493 -0.1432  0.8107
   72CHL1  H26A 7802  -0.270   3.377   8.634 -0.4295 -1.0233  0.5009
   72CHL1  H26B 7803  -0.135   3.298   8.568 -1.3702 -0.7148  2.4073
   72CHL1  H26C 7804  -0.145   3.481   8.551 -1.3400  0.5845  0.0613
   72CHL1   C27 7805  -0.370   3.493   8.396 -1.1011  0.9207  0.0577
   72CHL1  H27A 7806  -0.437   3.480   8.309  0.5767 -0.7192 -1.0282
   72CHL1  H27B 7807  -0.434   3.500   8.487  0.2865  0.8988  1.0639
   72CHL1  H27C 7808  -0.315   3.589   8.394 -0.6791  0.6874  0.2179
   73CHL1    C3 7809   5.525   6.004   7.093 -0.0828  0.5838  0.4020
   73CHL1    H3 7810   5.443   6.071   7.129 -3.1860 -1.8132 -1.9153
   73CHL1    O3 7811   5.487   5.946   6.970 -0.2862  0.0698  0.3700
   73CHL1   H3' 7812   5.450   6.017   6.917 -2.3276 -1.1181  0.1448
   73CHL1    C4 7813   5.649   6.087   7.081  0.0010 -0.9232  0.5802
   73CHL1   H4A 7814   5.735   6.023   7.051  1.1389  0.2339  1.3262
   73CHL1   H4B 7815   5.629   6.159   6.999  2.2102 -1.3897 -0.3845
   73CHL1    C5 7816   5.682   6.145   7.211 -0.0379  0.1043  0.2050
   73CHL1    C6 7817   5.693   6.280   7.227 -0.4200 -0.1201  0.3947
   73CHL1    H6 7818   5.676   6.344   7.139  0.9793  0.0375  0.2272
   73CHL1    C7 7819   5.718   6.363   7.353  0.4084 -0.6469 -0.0439
   73CHL1   H7A 7820   5.800   6.437   7.342  0.2274 -0.4009  0.2527
   73CHL1   H7B 7821   5.625   6.420   7.375 -0.7302 -2.3510 -0.2839
   73CHL1    C8 7822   5.767   6.271   7.465  0.4991  0.1465  0.4177
   73CHL1    H8 7823   5.873   6.247   7.444 -0.0877 -3.4103  1.0810
   73CHL1   C14 7824   5.755   6.337   7.599  0.2784 -0.9028  0.0222
   73CHL1   H14 7825   5.646   6.359   7.612  0.5962 -0.1860  1.5356
   73CHL1   C15 7826   5.827   6.472   7.612  0.5708  0.2039  0.0969
   73CHL1  H15A 7827   5.933   6.457   7.580  1.0188 -0.8141  2.0093
   73CHL1  H15B 7828   5.781   6.552   7.550 -0.3926 -1.1342 -0.9410
   73CHL1   C16 7829   5.813   6.494   7.765 -0.5274  0.5661  0.2103
   73CHL1  H16A 7830   5.912   6.514   7.812  0.7759 -2.2329 -1.2406
   73CHL1  H16B 7831   5.739   6.572   7.793 -0.0524  1.6030 -1.3904
   73CHL1   C17 7832   5.756   6.368   7.832 -0.6445 -0.3394  0.3109
   73CHL1   H17 7833   5.645   6.375   7.837 -0.5553  1.5735 -0.2569
   73CHL1   C13 7834   5.785   6.254   7.720  1.0308  0.7041  0.5712
   73CHL1   C18 7835   5.933   6.207   7.724  0.1220 -0.9418 -0.2318
   73CHL1  H18A 7836   5.958   6.169   7.826 -4.1445 -0.0817  1.1966
   73CHL1  H18B 7837   5.951   6.129   7.647 -1.1015 -3.0566  1.5819
   73CHL1  H18C 7838   5.997   6.297   7.709 -1.1603  0.0344  0.1020
   73CHL1   C12 7839   5.691   6.135   7.724  0.5565  0.0803 -0.1200
   73CHL1  H12A 7840   5.685   6.072   7.816  1.1466  0.1150 -0.0564
   73CHL1  H12B 7841   5.590   6.180   7.708  1.3889  0.5870 -4.4368
   73CHL1   C11 7842   5.708   6.049   7.594 -0.2904  0.4069 -0.0555
   73CHL1  H11A 7843   5.808   6.002   7.595 -0.5530 -0.1744 -0.9254
   73CHL1  H11B 7844   5.627   5.973   7.600  2.2189 -2.3759 -0.0795
   73CHL1    C9 7845   5.677   6.138   7.463  0.0757 -0.6718 -0.7204
   73CHL1    H9 7846   5.570   6.165   7.474 -0.2128 -2.6133  1.6647
   73CHL1   C10 7847   5.694   6.050   7.333  0.2597 -0.0392 -0.3146
   73CHL1   C19 7848   5.830   5.980   7.320 -0.9163  0.5513 -0.6004
   73CHL1  H19A 7849   5.841   5.905   7.402  0.6624  2.2935  0.8109
   73CHL1  H19B 7850   5.845   5.930   7.222 -1.6155  1.3194 -1.1114
   73CHL1  H19C 7851   5.916   6.049   7.327 -0.3398 -0.3248  1.3105
   73CHL1    C1 7852   5.577   5.949   7.335  0.6662  0.0853 -0.6851
   73CHL1   H1A 7853   5.599   5.860   7.398 -1.4757  0.3412  0.4646
   73CHL1   H1B 7854   5.481   5.984   7.378 -0.8302 -2.8307 -1.5373
   73CHL1    C2 7855   5.546   5.891   7.193  0.5230  0.4160  0.1254
   73CHL1   H2A 7856   5.449   5.836   7.198  1.4580 -1.1136  2.3093
   73CHL1   H2B 7857   5.623   5.815   7.170  1.6827  1.7857 -0.5710
   73CHL1   C20 7858   5.802   6.336   7.981  0.7081 -0.1302 -0.6656
   73CHL1   H20 7859   5.763   6.235   8.006 -0.9762 -0.0043 -2.6621
   73CHL1   C21 7860   5.729   6.446   8.066  0.0944  0.0978 -0.3488
   73CHL1  H21A 7861   5.789   6.539   8.059 -1.1438  1.0571  1.3823
   73CHL1  H21B 7862   5.721   6.411   8.171  0.4894  1.8705  0.2835
   73CHL1  H21C 7863   5.624   6.468   8.036 -0.4234 -2.0213 -0.1415
   73CHL1   C22 7864   5.951   6.347   8.020 -0.3255 -0.4520  0.2492
   73CHL1  H22A 7865   6.012   6.334   7.928 -0.7898  0.3106 -0.1747
   73CHL1  H22B 7866   5.986   6.447   8.054  2.0088 -1.8308  2.0542
   73CHL1   C23 7867   5.996   6.248   8.128  0.0561  0.2988  0.4864
   73CHL1  H23A 7868   5.975   6.308   8.219 -1.3009  3.3644 -1.7374
   73CHL1  H23B 7869   5.936   6.155   8.126  1.4104 -0.5735 -0.2439
   73CHL1   C24 7870   6.143   6.220   8.121  0.5548  0.6693  0.0037
   73CHL1  H24A 7871   6.169   6.153   8.036  0.8960 -0.8512  1.2893
   73CHL1  H24B 7872   6.206   6.308   8.100  0.9778  0.7069  1.3637
   73CHL1   C25 7873   6.194   6.159   8.252  0.0182  0.8248  0.1279
   73CHL1   H25 7874   6.152   6.216   8.338 -0.8623  0.9456 -0.3655
   73CHL1   C26 7875   6.160   6.009   8.264  0.4562 -0.3930  0.0116
   73CHL1  H26A 7876   6.221   5.958   8.341 -0.3930  0.2296  1.1123
   73CHL1  H26B 7877   6.053   6.004   8.294  0.9556 -0.4571  1.8411
   73CHL1  H26C 7878   6.175   5.959   8.166 -0.0114  0.6756 -0.6202
   73CHL1   C27 7879   6.348   6.169   8.262 -0.4866  0.1379  0.1800
   73CHL1  H27A 7880   6.403   6.103   8.193  1.5116 -0.6847  2.5006
   73CHL1  H27B 7881   6.387   6.270   8.236 -2.0816  0.7017 -0.0793
   73CHL1  H27C 7882   6.377   6.153   8.368 -2.8524  0.8294  0.9720
   74CHL1    C3 7883   5.518   4.845   6.894 -0.8998  0.5459 -0.5322
   74CHL1    H3 7884   5.426   4.785   6.877  0.4635 -1.7296  0.0223
   74CHL1    O3 7885   5.595   4.850   6.770 -0.9011 -0.4342 -0.2098
   74CHL1   H3' 7886   5.551   4.783   6.718  0.8918 -2.4853  0.8717
   74CHL1    C4 7887   5.474   4.986   6.945  0.1420  0.0826 -0.2555
   74CHL1   H4A 7888   5.565   5.049   6.948  0.7004 -0.7369  0.2710
   74CHL1   H4B 7889   5.407   5.033   6.870 -1.7846 -0.3691  1.1591
   74CHL1    C5 7890   5.411   4.977   7.081 -0.1688 -0.5831 -0.4254
   74CHL1    C6 7891   5.294   5.033   7.103  0.2131 -0.0870  0.3008
   74CHL1    H6 7892   5.239   5.075   7.018  1.4233 -0.5046 -0.6971
   74CHL1    C7 7893   5.228   5.051   7.245 -0.1380 -0.0927  0.0542
   74CHL1   H7A 7894   5.205   5.157   7.273 -1.0719  0.2041 -1.7467
   74CHL1   H7B 7895   5.134   4.992   7.248 -1.5159  2.0388  0.6776
   74CHL1    C8 7896   5.321   5.009   7.358 -0.0764 -0.3421  0.5272
   74CHL1    H8 7897   5.395   5.092   7.353 -0.0275 -0.5204 -2.5290
   74CHL1   C14 7898   5.243   4.994   7.493  0.3580 -0.8672  0.4613
   74CHL1   H14 7899   5.173   4.908   7.493  0.0873 -0.6636 -1.7966
   74CHL1   C15 7900   5.149   5.111   7.540 -0.1502  0.3452  0.8516
   74CHL1  H15A 7901   5.199   5.206   7.514 -1.0675  1.5716  3.3428
   74CHL1  H15B 7902   5.050   5.100   7.490  0.8879 -0.2118 -1.1198
   74CHL1   C16 7903   5.142   5.092   7.684  1.0326  0.0110  0.0468
   74CHL1  H16A 7904   5.177   5.175   7.750  1.1742 -2.6972  3.5164
   74CHL1  H16B 7905   5.036   5.077   7.712  0.9961  0.4567  0.1632
   74CHL1   C17 7906   5.225   4.959   7.718 -0.0516 -0.6316 -0.1605
   74CHL1   H17 7907   5.161   4.870   7.700 -0.7884 -0.0470 -0.4852
   74CHL1   C13 7908   5.331   4.954   7.614  0.3544  0.0874  0.1034
   74CHL1   C18 7909   5.437   5.062   7.630 -0.3038 -0.1860  0.7033
   74CHL1  H18A 7910   5.403   5.167   7.644 -0.4734  0.0647 -1.4590
   74CHL1  H18B 7911   5.513   5.029   7.704  1.7248  2.1155 -0.3061
   74CHL1  H18C 7912   5.499   5.070   7.538 -2.1043 -0.6169 -0.5767
   74CHL1   C12 7913   5.398   4.812   7.573  0.2765  0.8198  0.5007
   74CHL1  H12A 7914   5.456   4.764   7.654  2.4754 -0.9324 -2.0255
   74CHL1  H12B 7915   5.315   4.745   7.542  0.2239  2.1387 -2.3841
   74CHL1   C11 7916   5.488   4.835   7.440  0.1852  0.0513  0.1936
   74CHL1  H11A 7917   5.583   4.890   7.458 -0.5073  2.0814 -2.0274
   74CHL1  H11B 7918   5.517   4.732   7.413  1.9107  0.3896  0.6705
   74CHL1    C9 7919   5.408   4.888   7.320 -0.1307 -0.2393  0.4611
   74CHL1    H9 7920   5.328   4.814   7.298  0.9477 -1.3500  0.1501
   74CHL1   C10 7921   5.494   4.905   7.193  0.7187  0.4427 -0.4252
   74CHL1   C19 7922   5.614   4.987   7.224  0.2458 -1.0690  0.4499
   74CHL1  H19A 7923   5.660   5.008   7.125  1.3733 -0.3468  1.1294
   74CHL1  H19B 7924   5.593   5.086   7.270  3.1575 -0.7843  1.2210
   74CHL1  H19C 7925   5.684   4.928   7.286  1.0733 -0.6892 -0.1263
   74CHL1    C1 7926   5.544   4.770   7.136  0.5820 -0.1738 -0.7515
   74CHL1   H1A 7927   5.614   4.722   7.208 -0.1171 -0.4088 -0.2258
   74CHL1   H1B 7928   5.464   4.695   7.120  2.3976 -1.5973 -3.6999
   74CHL1    C2 7929   5.619   4.778   6.998 -0.4019 -0.3929  0.7125
   74CHL1   H2A 7930   5.638   4.672   6.970  0.5322 -0.3735  1.2564
   74CHL1   H2B 7931   5.714   4.835   6.997 -0.6542  0.0216  0.4727
   74CHL1   C20 7932   5.268   4.959   7.869  0.0844 -0.3693  0.4135
   74CHL1   H20 7933   5.324   5.054   7.882 -1.1131  0.3058  0.6775
   74CHL1   C21 7934   5.358   4.838   7.909 -0.6238  0.2280 -0.1465
   74CHL1  H21A 7935   5.316   4.743   7.870 -1.5434  1.5668 -2.5341
   74CHL1  H21B 7936   5.383   4.846   8.017 -1.3946  1.4356 -0.0420
   74CHL1  H21C 7937   5.458   4.850   7.863  0.3175  0.0079  1.8022
   74CHL1   C22 7938   5.151   4.964   7.966  0.3783  0.0517 -0.1717
   74CHL1  H22A 7939   5.085   5.049   7.938  1.6187  0.5899 -1.5590
   74CHL1  H22B 7940   5.091   4.871   7.953  2.3145 -1.0397 -1.6051
   74CHL1   C23 7941   5.202   4.995   8.105  0.3208 -0.3850 -0.6846
   74CHL1  H23A 7942   5.232   4.901   8.154  1.6603 -0.5113 -1.7180
   74CHL1  H23B 7943   5.287   5.067   8.097 -3.0807  4.0230  0.6685
   74CHL1   C24 7944   5.096   5.055   8.193 -0.0139 -0.3478 -0.0796
   74CHL1  H24A 7945   5.048   5.145   8.150  0.0855  0.0445  0.6190
   74CHL1  H24B 7946   5.010   4.986   8.198  0.9274 -1.7970 -2.6385
   74CHL1   C25 7947   5.139   5.080   8.330 -0.0094 -0.5216 -0.0653
   74CHL1   H25 7948   5.223   5.152   8.338 -1.2344  1.1197 -1.6103
   74CHL1   C26 7949   5.030   5.149   8.407  0.5617  0.1476  0.4657
   74CHL1  H26A 7950   4.931   5.099   8.409 -0.0490  1.3445  2.5485
   74CHL1  H26B 7951   5.066   5.178   8.508 -0.1427  0.6821  0.5708
   74CHL1  H26C 7952   5.014   5.249   8.361  0.4355 -0.5249 -0.9547
   74CHL1   C27 7953   5.181   4.950   8.398 -0.0531  0.0915 -0.2664
   74CHL1  H27A 7954   5.276   4.913   8.354 -0.6065  0.2579 -1.6343
   74CHL1  H27B 7955   5.201   4.971   8.505 -1.2140 -1.1766  0.2181
   74CHL1  H27C 7956   5.089   4.887   8.393  0.0292 -0.1271  0.8502
   75CHL1    C3 7957   1.652   6.037   6.791  0.9108 -0.0882 -0.1506
   75CHL1    H3 7958   1.749   5.984   6.798  0.9109  0.1979  2.9012
   75CHL1    O3 7959   1.627   6.044   6.652  0.2318  0.4792  0.3930
   75CHL1   H3' 7960   1.628   5.953   6.621 -0.3714  0.3722  0.6818
   75CHL1    C4 7961   1.542   5.964   6.859 -0.1171 -0.2488  0.1020
   75CHL1   H4A 7962   1.442   6.003   6.830 -0.4445 -1.7045 -0.7379
   75CHL1   H4B 7963   1.530   5.871   6.800 -0.3300  1.1113 -2.0695
   75CHL1    C5 7964   1.561   5.950   7.008 -0.5067  0.6225 -0.2420
   75CHL1    C6 7965   1.553   5.833   7.068  0.2461 -0.8856  0.5820
   75CHL1    H6 7966   1.558   5.745   7.003  0.7636 -0.7905  0.4962
   75CHL1    C7 7967   1.574   5.799   7.217  0.3238 -0.1727 -0.1202
   75CHL1   H7A 7968   1.510   5.720   7.260 -0.5396  0.1124 -0.8569
   75CHL1   H7B 7969   1.676   5.755   7.226  0.3968  0.0002 -0.0967
   75CHL1    C8 7970   1.575   5.935   7.300 -0.6138  0.4647 -0.2951
   75CHL1    H8 7971   1.466   5.953   7.317 -1.1040 -1.3441 -1.4103
   75CHL1   C14 7972   1.640   5.917   7.442  0.1770  0.0140 -0.5859
   75CHL1   H14 7973   1.749   5.904   7.422  0.7392  0.0035  2.2363
   75CHL1   C15 7974   1.591   5.795   7.532  0.3070 -0.1830 -1.1250
   75CHL1  H15A 7975   1.480   5.792   7.520  0.2155 -3.4323  0.0410
   75CHL1  H15B 7976   1.625   5.697   7.492  0.9418  0.3594 -1.9385
   75CHL1   C16 7977   1.631   5.845   7.675  0.5993 -0.6721  0.0487
   75CHL1  H16A 7978   1.541   5.829   7.738  0.7218 -0.5411  0.2555
   75CHL1  H16B 7979   1.716   5.783   7.711  0.4798 -0.7488  0.1983
   75CHL1   C17 7980   1.699   5.983   7.659  0.6955 -0.0731 -0.2352
   75CHL1   H17 7981   1.805   5.958   7.639  0.6346 -0.9248  0.4907
   75CHL1   C13 7982   1.639   6.043   7.526  0.4579  0.6242 -0.5582
   75CHL1   C18 7983   1.491   6.094   7.552 -0.5184 -0.2347 -0.7931
   75CHL1  H18A 7984   1.477   6.177   7.625  0.8760 -0.6046 -0.0833
   75CHL1  H18B 7985   1.441   6.130   7.459  0.0977  1.9847 -0.3114
   75CHL1  H18C 7986   1.432   6.009   7.592 -0.0250  0.9840  2.6676
   75CHL1   C12 7987   1.719   6.153   7.451 -0.0077 -0.3998  1.1485
   75CHL1  H12A 7988   1.728   6.244   7.515  2.9533 -0.7156  1.2365
   75CHL1  H12B 7989   1.823   6.123   7.424  0.2477  1.7667 -0.3914
   75CHL1   C11 7990   1.660   6.181   7.309 -0.2326 -0.2874  1.0026
   75CHL1  H11A 7991   1.562   6.232   7.316  0.0826  0.2942  1.2223
   75CHL1  H11B 7992   1.722   6.260   7.261 -1.6869 -0.0143 -0.4309
   75CHL1    C9 7993   1.639   6.052   7.222  0.0079  0.5004 -0.2259
   75CHL1    H9 7994   1.744   6.021   7.209  0.7645  2.4722  1.0263
   75CHL1   C10 7995   1.585   6.083   7.082  0.3368  0.1443  0.4139
   75CHL1   C19 7996   1.448   6.143   7.093  0.0701  0.0717 -0.3347
   75CHL1  H19A 7997   1.372   6.074   7.136 -1.3235 -0.3655 -3.4161
   75CHL1  H19B 7998   1.449   6.232   7.160  1.5995 -1.1016  1.2619
   75CHL1  H19C 7999   1.408   6.171   6.994 -0.3003 -0.8487 -0.4456
   75CHL1    C1 8000   1.687   6.170   7.011 -0.1337 -0.0658  0.7034
   75CHL1   H1A 8001   1.660   6.272   7.046 -0.9029  0.1430 -0.4687
   75CHL1   H1B 8002   1.793   6.156   7.043 -0.0313  0.6481  0.6756
   75CHL1    C2 8003   1.674   6.175   6.859  0.3649 -0.4797  0.0749
   75CHL1   H2A 8004   1.763   6.230   6.820  0.4376  1.0244  2.2959
   75CHL1   H2B 8005   1.589   6.241   6.833  0.4526  0.1517  1.3848
   75CHL1   C20 8006   1.688   6.064   7.791  0.2355 -0.0847  0.2728
   75CHL1   H20 8007   1.582   6.076   7.821  0.4581  1.1285  0.6088
   75CHL1   C21 8008   1.743   6.205   7.771  0.1831  0.4369  0.7007
   75CHL1  H21A 8009   1.766   6.256   7.867  2.7416 -0.4201  0.5914
   75CHL1  H21B 8010   1.680   6.269   7.706 -1.6956 -1.9928  0.0598
   75CHL1  H21C 8011   1.842   6.209   7.720 -0.6420  0.3120 -0.9397
   75CHL1   C22 8012   1.764   5.998   7.901  0.5620 -0.4650 -0.1696
   75CHL1  H22A 8013   1.754   5.887   7.897 -1.3067 -0.3455  0.5591
   75CHL1  H22B 8014   1.874   6.008   7.894  0.3452  2.9083  0.4870
   75CHL1   C23 8015   1.721   6.043   8.047  0.7476 -0.4465 -0.3938
   75CHL1  H23A 8016   1.718   6.153   8.063  0.9161 -0.4910 -0.0790
   75CHL1  H23B 8017   1.616   6.013   8.070  0.0408  0.8077 -1.7998
   75CHL1   C24 8018   1.798   5.964   8.146  0.1169 -0.6145  0.2785
   75CHL1  H24A 8019   1.776   5.857   8.123 -0.7224  0.2138 -2.9221
   75CHL1  H24B 8020   1.905   5.993   8.135 -0.0451 -0.0385  0.2334
   75CHL1   C25 8021   1.760   5.982   8.296  1.0022  0.4119 -0.2584
   75CHL1   H25 8022   1.649   5.984   8.300  1.0223 -0.7991  1.6041
   75CHL1   C26 8023   1.824   5.868   8.380 -0.1551 -0.0161  0.6657
   75CHL1  H26A 8024   1.811   5.882   8.489  0.9425  0.8485  0.6948
   75CHL1  H26B 8025   1.780   5.775   8.338  0.4732  0.3526 -0.8494
   75CHL1  H26C 8026   1.935   5.866   8.367 -0.3007  0.1377 -0.7039
   75CHL1   C27 8027   1.811   6.122   8.333 -0.7266  0.5861 -0.5897
   75CHL1  H27A 8028   1.806   6.141   8.442 -0.2003  2.5391 -0.8767
   75CHL1  H27B 8029   1.918   6.134   8.306 -0.7586 -0.5639 -1.2603
   75CHL1  H27C 8030   1.748   6.197   8.279 -0.6923  0.4559 -0.8082
   76CHL1    C3 8031   5.386   1.694   7.298  0.2322 -0.2593  0.2304
   76CHL1    H3 8032   5.438   1.596   7.293  2.4775  1.0141 -2.9153
   76CHL1    O3 8033   5.348   1.731   7.167  0.2136 -0.0390  0.2254
   76CHL1   H3' 8034   5.414   1.693   7.108  1.4898  1.5713  0.5851
   76CHL1    C4 8035   5.268   1.684   7.394 -0.4567 -0.3822 -0.6154
   76CHL1   H4A 8036   5.198   1.770   7.384 -0.4032 -0.3360 -0.5885
   76CHL1   H4B 8037   5.200   1.603   7.360 -1.7174  0.3038  0.1917
   76CHL1    C5 8038   5.316   1.660   7.538 -0.2476  0.4911  0.4691
   76CHL1    C6 8039   5.269   1.556   7.604  0.4718 -0.3792 -0.4692
   76CHL1    H6 8040   5.207   1.489   7.543  0.2749 -1.6451  1.0911
   76CHL1    C7 8041   5.297   1.533   7.751 -1.1421 -0.7377 -0.8189
   76CHL1   H7A 8042   5.203   1.519   7.809 -1.9195  2.0401 -1.3296
   76CHL1   H7B 8043   5.363   1.446   7.770  0.0509 -0.3246 -2.9220
   76CHL1    C8 8044   5.356   1.665   7.813 -0.4485 -0.1481  0.5429
   76CHL1    H8 8045   5.281   1.747   7.818  0.9990  1.2915 -0.6876
   76CHL1   C14 8046   5.399   1.643   7.957  0.3061  0.5971  0.5966
   76CHL1   H14 8047   5.479   1.566   7.945 -0.9698 -0.5678 -0.4993
   76CHL1   C15 8048   5.297   1.582   8.056  0.0982 -0.0941 -0.7020
   76CHL1  H15A 8049   5.200   1.637   8.052  0.0256 -0.1456  0.2641
   76CHL1  H15B 8050   5.282   1.476   8.028  0.8218 -0.6196  0.8812
   76CHL1   C16 8051   5.365   1.605   8.195  0.3461 -0.0117 -0.4526
   76CHL1  H16A 8052   5.283   1.657   8.249 -1.2437 -0.2415 -2.5658
   76CHL1  H16B 8053   5.413   1.519   8.247 -0.1158 -0.4914 -0.8102
   76CHL1   C17 8054   5.480   1.709   8.168 -0.6063  0.7473 -0.2026
   76CHL1   H17 8055   5.570   1.643   8.161 -1.2071  0.1511 -2.7768
   76CHL1   C13 8056   5.460   1.768   8.027 -0.2975  0.6978 -0.0018
   76CHL1   C18 8057   5.353   1.880   8.038  0.3665 -0.1845 -0.1749
   76CHL1  H18A 8058   5.279   1.847   8.113  1.0767 -0.9166  0.2008
   76CHL1  H18B 8059   5.400   1.973   8.075 -1.1661  1.0783 -1.2964
   76CHL1  H18C 8060   5.310   1.916   7.942  0.3569 -1.9359 -0.8361
   76CHL1   C12 8061   5.590   1.814   7.950 -0.3523  0.6968  0.0002
   76CHL1  H12A 8062   5.644   1.901   7.992  2.6948 -2.3534  2.7505
   76CHL1  H12B 8063   5.660   1.728   7.949 -1.1166  0.0741  0.0052
   76CHL1   C11 8064   5.557   1.840   7.805  0.6789 -0.2295  0.4322
   76CHL1  H11A 8065   5.490   1.928   7.803 -0.7292 -1.2852 -2.4117
   76CHL1  H11B 8066   5.648   1.868   7.748 -0.9758  1.4584 -1.4895
   76CHL1    C9 8067   5.478   1.727   7.733 -0.5731  0.5831 -0.1224
   76CHL1    H9 8068   5.547   1.640   7.728 -0.5006  0.6987 -1.3301
   76CHL1   C10 8069   5.421   1.767   7.590  0.0766 -0.1183 -0.1601
   76CHL1   C19 8070   5.346   1.907   7.598 -1.0212  0.2114  0.5126
   76CHL1  H19A 8071   5.418   1.990   7.618 -0.2370 -0.0017 -1.3599
   76CHL1  H19B 8072   5.290   1.934   7.507 -0.4730 -2.3053 -0.6070
   76CHL1  H19C 8073   5.271   1.914   7.679 -1.6834  0.6912 -0.1373
   76CHL1    C1 8074   5.541   1.774   7.489  0.3870 -0.1857  0.2435
   76CHL1   H1A 8075   5.607   1.858   7.519  1.1190 -0.3695 -0.8542
   76CHL1   H1B 8076   5.591   1.675   7.484 -1.5677 -1.2128  0.5928
   76CHL1    C2 8077   5.484   1.803   7.350 -0.3864  0.1227 -0.1387
   76CHL1   H2A 8078   5.569   1.797   7.279  0.3000  1.0750  0.5795
   76CHL1   H2B 8079   5.434   1.901   7.331 -0.0373  0.0443 -1.5249
   76CHL1   C20 8080   5.502   1.794   8.293  0.2561  0.6018 -0.6398
   76CHL1   H20 8081   5.400   1.832   8.316  1.0564  2.4264 -0.0062
   76CHL1   C21 8082   5.607   1.908   8.273  0.7249  0.1592 -0.1296
   76CHL1  H21A 8083   5.583   1.973   8.186  2.2584  0.3908 -0.3899
   76CHL1  H21B 8084   5.701   1.864   8.236  0.2042 -0.7939 -0.3330
   76CHL1  H21C 8085   5.642   1.953   8.368  0.4455 -0.0857  0.0909
   76CHL1   C22 8086   5.524   1.703   8.418  0.3896  0.8451  0.7304
   76CHL1  H22A 8087   5.448   1.622   8.421  0.2810  0.8136 -1.4886
   76CHL1  H22B 8088   5.626   1.658   8.415 -1.0618 -2.6129  0.4209
   76CHL1   C23 8089   5.522   1.786   8.544  1.1793  0.7850 -0.0441
   76CHL1  H23A 8090   5.615   1.846   8.559  0.2194  2.6105 -1.1773
   76CHL1  H23B 8091   5.426   1.840   8.539 -1.1514 -2.9949  1.9001
   76CHL1   C24 8092   5.505   1.687   8.662  0.0809  0.3331  0.0844
   76CHL1  H24A 8093   5.408   1.635   8.649  0.1237  0.1128  0.6224
   76CHL1  H24B 8094   5.587   1.612   8.655 -0.2605  0.1411 -2.3760
   76CHL1   C25 8095   5.513   1.755   8.801  0.2954  0.0152  0.1612
   76CHL1   H25 8096   5.589   1.835   8.807  1.4437 -0.8692 -1.8062
   76CHL1   C26 8097   5.384   1.817   8.840  0.0483 -0.4056  0.5919
   76CHL1  H26A 8098   5.384   1.867   8.939  0.3357  1.7113 -0.4346
   76CHL1  H26B 8099   5.354   1.892   8.764 -3.9666 -2.2545  0.2225
   76CHL1  H26C 8100   5.306   1.740   8.821 -0.3850 -0.0112  0.7648
   76CHL1   C27 8101   5.539   1.638   8.902  0.1600  0.0700 -0.2444
   76CHL1  H27A 8102   5.648   1.614   8.893 -0.4700 -2.7425 -0.7478
   76CHL1  H27B 8103   5.527   1.667   9.008 -0.5611 -1.2418  0.0411
   76CHL1  H27C 8104   5.473   1.552   8.877  1.0595 -0.7291  0.0965
   77CHL1    C3 8105   6.023   6.112   6.813  0.2213  0.2748  0.3801
   77CHL1    H3 8106   5.962   6.194   6.857  0.7280  0.0406  1.5248
   77CHL1    O3 8107   5.980   6.099   6.675  0.0606  0.3020  0.0371
   77CHL1   H3' 8108   5.996   6.179   6.625 -1.1599  0.3774 -0.2453
   77CHL1    C4 8109   6.175   6.156   6.805  0.2213  0.0021  0.2069
   77CHL1   H4A 8110   6.240   6.078   6.759 -1.2304 -1.8176  1.1860
   77CHL1   H4B 8111   6.185   6.250   6.747 -0.7827  0.3804  0.6375
   77CHL1    C5 8112   6.226   6.186   6.947  0.4634 -0.2188 -0.0071
   77CHL1    C6 8113   6.277   6.305   6.963 -0.6833 -0.0821  0.2211
   77CHL1    H6 8114   6.298   6.369   6.876 -0.1085  1.0961  1.1978
   77CHL1    C7 8115   6.330   6.355   7.098  0.6143 -0.3612 -0.0747
   77CHL1   H7A 8116   6.423   6.413   7.080 -0.2569  0.6528 -1.4140
   77CHL1   H7B 8117   6.256   6.426   7.140 -1.0150 -2.8586  1.4247
   77CHL1    C8 8118   6.339   6.244   7.203  0.0583  0.1066 -0.4658
   77CHL1    H8 8119   6.432   6.184   7.191 -0.7927 -1.3939  0.3570
   77CHL1   C14 8120   6.348   6.303   7.336 -0.6396  0.4445 -0.1689
   77CHL1   H14 8121   6.256   6.359   7.361 -1.6349 -0.4237 -1.8231
   77CHL1   C15 8122   6.458   6.408   7.354 -0.3991  0.2457  0.0092
   77CHL1  H15A 8123   6.549   6.383   7.297  0.4634  1.1145  0.9944
   77CHL1  H15B 8124   6.431   6.508   7.313 -0.9128 -0.0496 -0.3765
   77CHL1   C16 8125   6.485   6.411   7.504 -0.4502 -1.0516  0.0180
   77CHL1  H16A 8126   6.589   6.414   7.542 -0.2100  0.1300 -0.7134
   77CHL1  H16B 8127   6.439   6.503   7.544 -0.1859 -1.4405  1.2394
   77CHL1   C17 8128   6.393   6.297   7.564 -0.1561  0.1365 -0.3421
   77CHL1   H17 8129   6.299   6.348   7.594 -0.7863 -0.7161 -0.8528
   77CHL1   C13 8130   6.358   6.200   7.449 -0.0099  0.1372  0.2934
   77CHL1   C18 8131   6.479   6.105   7.431  0.1356  0.0452  0.1753
   77CHL1  H18A 8132   6.577   6.158   7.434 -0.7536  1.9809 -2.9050
   77CHL1  H18B 8133   6.483   6.029   7.513  0.1014 -1.7628 -1.4776
   77CHL1  H18C 8134   6.479   6.057   7.331 -0.0712  1.0622 -0.3095
   77CHL1   C12 8135   6.221   6.126   7.457 -0.5804 -0.3516  0.5185
   77CHL1  H12A 8136   6.220   6.058   7.546  2.1007  0.8438  1.4928
   77CHL1  H12B 8137   6.137   6.199   7.463 -0.0772  0.3570 -0.9634
   77CHL1   C11 8138   6.209   6.046   7.324 -0.8610 -0.0848  0.2657
   77CHL1  H11A 8139   6.288   5.968   7.322 -0.5604  0.1293  2.3735
   77CHL1  H11B 8140   6.110   5.997   7.322 -1.0849  0.3383  0.7636
   77CHL1    C9 8141   6.221   6.147   7.203 -0.7850  0.1604  0.2743
   77CHL1    H9 8142   6.143   6.226   7.216 -0.1196  1.0595 -0.9952
   77CHL1   C10 8143   6.201   6.083   7.063  0.0876  0.6110 -0.1916
   77CHL1   C19 8144   6.297   5.963   7.050 -0.3686  0.2396  0.0337
   77CHL1  H19A 8145   6.401   6.001   7.062 -0.8712  0.9263  2.4606
   77CHL1  H19B 8146   6.271   5.898   7.135  0.1646 -2.2966 -1.6725
   77CHL1  H19C 8147   6.295   5.914   6.950 -0.6452  1.0523 -0.3647
   77CHL1    C1 8148   6.057   6.020   7.041  0.4852 -0.1413 -0.0490
   77CHL1   H1A 8149   6.057   5.922   7.092 -0.0153  0.0871  0.3927
   77CHL1   H1B 8150   5.981   6.087   7.087  2.1943  1.8473 -0.0257
   77CHL1    C2 8151   6.018   5.984   6.894  0.2207  0.4174  0.4415
   77CHL1   H2A 8152   5.920   5.932   6.889 -0.8728  2.3577  1.4163
   77CHL1   H2B 8153   6.101   5.934   6.839  0.6164  0.3387  1.1114
   77CHL1   C20 8154   6.430   6.233   7.697 -0.1695  0.3461 -0.4111
   77CHL1   H20 8155   6.490   6.140   7.691 -0.1050  0.2777  1.0279
   77CHL1   C21 8156   6.300   6.207   7.773  0.1108 -0.1308 -0.4465
   77CHL1  H21A 8157   6.230   6.142   7.717  1.6940 -0.6273 -1.8751
   77CHL1  H21B 8158   6.251   6.305   7.796  2.4556  0.7855  0.8683
   77CHL1  H21C 8159   6.317   6.159   7.872  0.4819  1.5955  0.3490
   77CHL1   C22 8160   6.520   6.326   7.786  0.0605  0.5303  0.3050
   77CHL1  H22A 8161   6.621   6.330   7.740 -0.2573  1.8935 -0.2935
   77CHL1  H22B 8162   6.484   6.431   7.786 -0.8140  0.2427  0.7915
   77CHL1   C23 8163   6.545   6.287   7.936  0.1658 -0.1619  0.0859
   77CHL1  H23A 8164   6.454   6.265   7.995  0.1460  2.5201  1.1091
   77CHL1  H23B 8165   6.604   6.193   7.932 -1.0743 -0.9453  0.0279
   77CHL1   C24 8166   6.619   6.408   8.007  0.2560  0.1866 -0.4978
   77CHL1  H24A 8167   6.710   6.419   7.943  0.7512  0.4388  0.2438
   77CHL1  H24B 8168   6.552   6.496   7.994  1.9406  1.4796 -0.6376
   77CHL1   C25 8169   6.655   6.399   8.159  0.7922  0.3306  0.1827
   77CHL1   H25 8170   6.555   6.406   8.206  0.8524 -0.6074  0.4680
   77CHL1   C26 8171   6.733   6.273   8.200  0.3260 -0.4512 -0.8115
   77CHL1  H26A 8172   6.690   6.233   8.294  1.4274 -0.7320 -0.4130
   77CHL1  H26B 8173   6.711   6.189   8.131  0.9131  0.1344 -1.7279
   77CHL1  H26C 8174   6.843   6.292   8.209  0.2034  0.0788 -0.4005
   77CHL1   C27 8175   6.721   6.525   8.202  0.2578 -0.6958 -0.8414
   77CHL1  H27A 8176   6.755   6.510   8.307  0.7004  1.4272 -0.6555
   77CHL1  H27B 8177   6.811   6.550   8.142 -0.4531 -0.6754 -1.9122
   77CHL1  H27C 8178   6.655   6.614   8.206 -0.3446 -1.2061  1.4150
   78CHL1    C3 8179   1.465   0.925   6.806  1.2276 -0.4680  0.6360
   78CHL1    H3 8180   1.412   0.833   6.839  3.3463 -2.0640 -0.2907
   78CHL1    O3 8181   1.459   0.929   6.666 -0.0413  0.1591 -0.4352
   78CHL1   H3' 8182   1.545   0.963   6.640  1.1528 -2.9429 -0.7330
   78CHL1    C4 8183   1.396   1.044   6.877  0.5109 -0.0664 -0.4422
   78CHL1   H4A 8184   1.445   1.136   6.837 -1.1460  3.1554  4.4853
   78CHL1   H4B 8185   1.295   1.035   6.832  0.5249  0.6384 -0.6171
   78CHL1    C5 8186   1.401   1.034   7.028 -0.0663 -0.6419  0.1456
   78CHL1    C6 8187   1.292   1.036   7.090  0.5886  0.0274  0.1451
   78CHL1    H6 8188   1.199   1.061   7.038  1.0370 -0.0903 -0.7226
   78CHL1    C7 8189   1.273   1.014   7.239 -0.2053  0.3589  0.0844
   78CHL1   H7A 8190   1.215   1.102   7.275  0.7183  1.2290 -0.5322
   78CHL1   H7B 8191   1.219   0.921   7.265  2.2749 -0.6432  1.7706
   78CHL1    C8 8192   1.410   1.019   7.313 -0.2213  0.1095  0.3913
   78CHL1    H8 8193   1.437   1.125   7.330  0.5066 -0.2822  1.7330
   78CHL1   C14 8194   1.396   0.944   7.441 -0.5083  0.2195 -0.6772
   78CHL1   H14 8195   1.397   0.837   7.411  0.2843 -0.5249  1.9346
   78CHL1   C15 8196   1.271   0.958   7.538 -1.0236 -0.0916 -0.1685
   78CHL1  H15A 8197   1.252   1.065   7.559 -0.1203 -0.1910  1.1435
   78CHL1  H15B 8198   1.176   0.918   7.497 -2.1016  2.1629  0.0253
   78CHL1   C16 8199   1.328   0.924   7.675 -0.0414  0.3800  0.2368
   78CHL1  H16A 8200   1.330   1.021   7.728  0.1566  0.4602  0.0801
   78CHL1  H16B 8201   1.249   0.864   7.725 -1.3021  2.9572  1.3977
   78CHL1   C17 8202   1.473   0.877   7.657 -0.3148 -0.2000 -0.6619
   78CHL1   H17 8203   1.472   0.771   7.623 -1.9268  0.3910 -2.5389
   78CHL1   C13 8204   1.522   0.954   7.528  0.3934  0.6776  0.4890
   78CHL1   C18 8205   1.558   1.097   7.567  0.5365  0.2541  0.3191
   78CHL1  H18A 8206   1.473   1.148   7.617  0.6629  0.4823  0.3020
   78CHL1  H18B 8207   1.630   1.110   7.650 -0.5559 -2.9644  1.8518
   78CHL1  H18C 8208   1.587   1.173   7.491 -1.0809  1.2950  0.7260
   78CHL1   C12 8209   1.639   0.896   7.448  0.7788  0.3239 -0.3804
   78CHL1  H12A 8210   1.729   0.910   7.512 -0.1930 -0.6134  1.2562
   78CHL1  H12B 8211   1.620   0.787   7.443  0.5020  0.4268 -1.6062
   78CHL1   C11 8212   1.660   0.961   7.315  0.2113 -0.0389  0.7254
   78CHL1  H11A 8213   1.701   1.064   7.322  1.0560 -0.2500 -0.8895
   78CHL1  H11B 8214   1.734   0.913   7.248  1.5940  1.6921  0.9527
   78CHL1    C9 8215   1.527   0.960   7.231  0.4370 -0.3494 -0.0773
   78CHL1    H9 8216   1.507   0.851   7.216  0.0294 -0.3141  0.1910
   78CHL1   C10 8217   1.544   1.014   7.085  0.2306  0.0844  0.3381
   78CHL1   C19 8218   1.621   1.152   7.081 -0.4666 -0.5625 -0.0176
   78CHL1  H19A 8219   1.728   1.126   7.097 -0.0800  0.3931 -0.9455
   78CHL1  H19B 8220   1.620   1.190   6.976 -0.9775 -0.9149 -0.1448
   78CHL1  H19C 8221   1.600   1.219   7.167  0.7493 -0.3769  0.1358
   78CHL1    C1 8222   1.617   0.904   7.002 -0.1201 -0.0418  0.1453
   78CHL1   H1A 8223   1.719   0.905   7.047 -0.5300 -2.6176  1.1980
   78CHL1   H1B 8224   1.583   0.800   7.021  3.4500 -1.2958 -0.0656
   78CHL1    C2 8225   1.607   0.924   6.851  1.0155 -0.0817 -0.6426
   78CHL1   H2A 8226   1.666   0.844   6.801 -0.1000 -1.2020 -0.2086
   78CHL1   H2B 8227   1.663   1.016   6.825 -0.0198  1.2487  1.6331
   78CHL1   C20 8228   1.564   0.874   7.778  0.0062  0.7114 -0.6795
   78CHL1   H20 8229   1.672   0.884   7.754 -0.0823 -0.1533 -1.4485
   78CHL1   C21 8230   1.553   0.729   7.839  0.7134  0.8815 -0.2103
   78CHL1  H21A 8231   1.614   0.663   7.775  0.5566 -0.6471  1.1796
   78CHL1  H21B 8232   1.447   0.696   7.833  0.8686  0.3886 -0.2792
   78CHL1  H21C 8233   1.586   0.728   7.945  0.1059  0.5458 -0.0204
   78CHL1   C22 8234   1.543   0.968   7.897 -0.0073  0.6244  0.6808
   78CHL1  H22A 8235   1.492   1.062   7.870 -0.6048 -0.3276 -1.6501
   78CHL1  H22B 8236   1.474   0.919   7.970  3.5268 -2.7892  1.9484
   78CHL1   C23 8237   1.673   0.986   7.969 -0.3259 -0.8396 -0.0591
   78CHL1  H23A 8238   1.706   0.882   7.989  0.1442 -1.0306 -1.7577
   78CHL1  H23B 8239   1.751   1.035   7.907 -1.9607  0.1721 -1.3369
   78CHL1   C24 8240   1.659   1.053   8.102 -1.0503  0.0597 -0.1255
   78CHL1  H24A 8241   1.642   1.160   8.080 -3.0464 -0.9778 -4.0789
   78CHL1  H24B 8242   1.578   1.001   8.157 -1.3813 -0.1160 -0.7710
   78CHL1   C25 8243   1.779   1.025   8.193  0.1665  0.3226  0.1866
   78CHL1   H25 8244   1.879   1.028   8.144  0.4462 -0.7784  0.6851
   78CHL1   C26 8245   1.784   1.131   8.304  0.2132  0.0088 -0.2719
   78CHL1  H26A 8246   1.792   1.236   8.269  1.3974 -0.4052 -1.2706
   78CHL1  H26B 8247   1.694   1.141   8.369 -1.5500 -0.6839 -2.5232
   78CHL1  H26C 8248   1.867   1.114   8.375 -0.7107 -1.6333  0.4505
   78CHL1   C27 8249   1.767   0.890   8.262 -0.8774 -0.1259 -0.2411
   78CHL1  H27A 8250   1.745   0.823   8.176 -2.2844 -1.6450  1.2713
   78CHL1  H27B 8251   1.868   0.872   8.307 -0.9856  0.9481  0.4604
   78CHL1  H27C 8252   1.681   0.883   8.332 -0.5560 -0.7012  0.0985
   79CHL1    C3 8253   6.729   1.080   7.205  0.0089 -0.0914  0.1261
   79CHL1    H3 8254   6.682   0.983   7.233 -0.4316  0.1996  0.3866
   79CHL1    O3 8255   6.726   1.093   7.062 -0.1315 -0.6216  0.4895
   79CHL1   H3' 8256   6.638   1.078   7.025 -0.1161 -1.8655  0.9412
   79CHL1    C4 8257   6.643   1.201   7.257 -0.0302 -0.3577 -0.0062
   79CHL1   H4A 8258   6.687   1.291   7.209 -0.0482 -0.8320 -0.9255
   79CHL1   H4B 8259   6.541   1.182   7.216 -1.8536 -1.5512  4.8160
   79CHL1    C5 8260   6.651   1.207   7.410  0.4009  1.0767 -0.3122
   79CHL1    C6 8261   6.543   1.214   7.485 -0.3143  0.4378 -0.2450
   79CHL1    H6 8262   6.446   1.224   7.433 -0.2997 -0.9178 -0.5566
   79CHL1    C7 8263   6.543   1.213   7.637  1.0928  0.2123  0.2692
   79CHL1   H7A 8264   6.457   1.273   7.674  1.3531  0.4862  0.4420
   79CHL1   H7B 8265   6.511   1.113   7.673 -1.7117  0.1042 -2.3562
   79CHL1    C8 8266   6.680   1.256   7.696 -0.1813  0.0784  0.1185
   79CHL1    H8 8267   6.679   1.366   7.677 -1.3894 -0.1156 -0.9890
   79CHL1   C14 8268   6.681   1.220   7.839  0.3239 -0.5513  0.1575
   79CHL1   H14 8269   6.666   1.111   7.856 -3.0688 -0.4293 -1.5435
   79CHL1   C15 8270   6.563   1.283   7.927  0.1413  0.2866 -0.4524
   79CHL1  H15A 8271   6.550   1.385   7.886  2.2642  1.6065  2.0231
   79CHL1  H15B 8272   6.472   1.219   7.920 -0.0280  0.0899  2.7594
   79CHL1   C16 8273   6.624   1.295   8.066  0.3580 -0.4347 -0.6027
   79CHL1  H16A 8274   6.616   1.401   8.099  3.3244 -0.7611  1.3518
   79CHL1  H16B 8275   6.575   1.235   8.145  2.5661 -2.0889 -0.4291
   79CHL1   C17 8276   6.784   1.249   8.052 -1.1208 -0.2171 -0.6800
   79CHL1   H17 8277   6.784   1.141   8.079 -1.0227  0.0660  0.4938
   79CHL1   C13 8278   6.813   1.262   7.901 -0.6561 -0.4189  0.3617
   79CHL1   C18 8279   6.848   1.413   7.876 -0.3484 -0.2576  0.2447
   79CHL1  H18A 8280   6.764   1.482   7.900  1.7499  1.5652  2.6234
   79CHL1  H18B 8281   6.937   1.439   7.937 -0.6534  2.1480 -0.2798
   79CHL1  H18C 8282   6.887   1.424   7.773 -1.1469 -1.1476 -0.1616
   79CHL1   C12 8283   6.917   1.166   7.846 -0.2177  0.3122  0.2577
   79CHL1  H12A 8284   7.021   1.179   7.885  0.1621 -0.6155 -0.4209
   79CHL1  H12B 8285   6.886   1.063   7.876  0.9016 -0.1363 -0.0805
   79CHL1   C11 8286   6.929   1.186   7.693 -0.8841 -0.4824  0.2059
   79CHL1  H11A 8287   6.988   1.279   7.676 -2.4501  0.9576  2.3226
   79CHL1  H11B 8288   6.991   1.105   7.651 -0.1640  0.2168 -0.0949
   79CHL1    C9 8289   6.794   1.179   7.621  0.5164  0.1154 -0.7185
   79CHL1    H9 8290   6.778   1.069   7.630 -0.0471  0.3272  1.1843
   79CHL1   C10 8291   6.791   1.195   7.463 -0.0906  0.4029  0.1654
   79CHL1   C19 8292   6.854   1.334   7.444 -0.2991  0.0627 -0.6777
   79CHL1  H19A 8293   6.863   1.354   7.335  1.7493  1.2244 -0.3129
   79CHL1  H19B 8294   6.795   1.421   7.479 -0.1128 -0.1348  0.1483
   79CHL1  H19C 8295   6.954   1.343   7.491 -0.6525  1.0775 -0.1109
   79CHL1    C1 8296   6.878   1.081   7.409 -0.7280  0.3683 -0.4253
   79CHL1   H1A 8297   6.986   1.089   7.431 -0.6694  1.2692 -0.9965
   79CHL1   H1B 8298   6.842   0.983   7.447  0.3212 -0.3621 -1.2867
   79CHL1    C2 8299   6.875   1.082   7.251 -0.1836 -0.2003  0.0157
   79CHL1   H2A 8300   6.931   0.989   7.230 -0.8619 -0.1147 -2.3195
   79CHL1   H2B 8301   6.930   1.170   7.213  0.0027 -1.0104 -1.6424
   79CHL1   C20 8302   6.873   1.310   8.161 -0.4672 -0.4664 -0.7884
   79CHL1   H20 8303   6.883   1.420   8.150  0.9428 -0.6658 -1.6096
   79CHL1   C21 8304   7.017   1.243   8.155 -0.0157  0.4022  0.7474
   79CHL1  H21A 8305   7.066   1.261   8.057  1.0321 -4.9580  0.1358
   79CHL1  H21B 8306   7.010   1.133   8.175  0.9462  0.1309 -0.3418
   79CHL1  H21C 8307   7.082   1.289   8.232  0.7601 -1.0344  0.9714
   79CHL1   C22 8308   6.816   1.293   8.305  1.0189 -0.0250  0.6710
   79CHL1  H22A 8309   6.884   1.343   8.378  1.2055 -0.1274  0.5690
   79CHL1  H22B 8310   6.722   1.348   8.325  2.1223  2.0951  0.2006
   79CHL1   C23 8311   6.784   1.143   8.352  0.3787  0.6326  0.1637
   79CHL1  H23A 8312   6.697   1.100   8.297 -0.5714  1.2077  1.2085
   79CHL1  H23B 8313   6.871   1.075   8.340 -0.8121 -0.8404 -0.3969
   79CHL1   C24 8314   6.757   1.139   8.503  0.2958 -0.4704  0.3082
   79CHL1  H24A 8315   6.672   1.211   8.515 -1.4830 -2.5713  0.6948
   79CHL1  H24B 8316   6.724   1.034   8.515 -1.5395 -0.0349 -0.6450
   79CHL1   C25 8317   6.878   1.163   8.600 -0.5159  0.0100 -0.1615
   79CHL1   H25 8318   6.931   1.247   8.551 -0.5429  0.9136  1.2997
   79CHL1   C26 8319   6.839   1.220   8.737 -0.0225  0.4657 -0.0647
   79CHL1  H26A 8320   6.774   1.145   8.787  1.1715 -0.1204  0.6254
   79CHL1  H26B 8321   6.931   1.242   8.794  0.0285 -0.1040  0.0700
   79CHL1  H26C 8322   6.790   1.319   8.718 -0.4444  0.3463  0.3712
   79CHL1   C27 8323   6.968   1.036   8.610 -0.0601 -0.3263 -0.1670
   79CHL1  H27A 8324   6.914   0.959   8.668 -1.7534 -0.3059 -1.6824
   79CHL1  H27B 8325   7.000   0.996   8.512 -0.8915 -3.3833  0.7664
   79CHL1  H27C 8326   7.058   1.064   8.670 -0.3827 -1.5045  0.8919
   80CHL1    C3 8327   4.801   5.384   7.107  0.0076 -0.7959 -0.0969
   80CHL1    H3 8328   4.692   5.361   7.106 -0.0902 -0.4577 -2.8429
   80CHL1    O3 8329   4.840   5.390   6.972 -0.2274  0.9023  0.1796
   80CHL1   H3' 8330   4.924   5.438   6.970 -1.4350  3.2736  2.8518
   80CHL1    C4 8331   4.820   5.524   7.175  0.7370  1.1293  0.0845
   80CHL1   H4A 8332   4.929   5.542   7.164  0.9499  0.1607  0.6509
   80CHL1   H4B 8333   4.764   5.596   7.111  2.1521  0.6338 -1.7855
   80CHL1    C5 8334   4.778   5.519   7.317  0.3969 -0.7492 -0.9634
   80CHL1    C6 8335   4.680   5.597   7.372  0.4410 -0.1438 -0.2352
   80CHL1    H6 8336   4.633   5.665   7.299  1.8938  2.5629  1.2816
   80CHL1    C7 8337   4.641   5.613   7.516  0.0533 -0.4918 -0.0445
   80CHL1   H7A 8338   4.649   5.720   7.543 -0.4029 -0.9098  1.8141
   80CHL1   H7B 8339   4.539   5.581   7.545 -0.2973  0.1674 -0.5388
   80CHL1    C8 8340   4.742   5.543   7.611 -0.8126 -0.9840  0.0890
   80CHL1    H8 8341   4.824   5.617   7.620 -0.1810 -1.7098  0.3194
   80CHL1   C14 8342   4.683   5.524   7.747 -0.9274  0.2243 -0.3176
   80CHL1   H14 8343   4.615   5.436   7.737 -0.4453  0.1770 -3.8350
   80CHL1   C15 8344   4.615   5.650   7.806  1.0654 -0.5236 -0.8135
   80CHL1  H15A 8345   4.675   5.743   7.796  0.5923 -0.2612 -1.2860
   80CHL1  H15B 8346   4.512   5.676   7.774  0.1175  0.6711  2.9747
   80CHL1   C16 8347   4.601   5.603   7.956 -0.2858 -0.7177  0.2714
   80CHL1  H16A 8348   4.611   5.699   8.011  0.2328  0.5034 -1.8732
   80CHL1  H16B 8349   4.501   5.555   7.961 -0.5997  0.1129  2.0124
   80CHL1   C17 8350   4.705   5.492   7.973  0.5421  0.4234 -0.0815
   80CHL1   H17 8351   4.641   5.402   7.976 -1.7357  1.9501 -1.1762
   80CHL1   C13 8352   4.790   5.477   7.846 -0.4854  0.1663  0.1923
   80CHL1   C18 8353   4.911   5.576   7.858 -0.7721 -0.2506 -0.3889
   80CHL1  H18A 8354   4.978   5.583   7.770  0.2537 -0.3348  0.3598
   80CHL1  H18B 8355   4.864   5.675   7.877 -2.2889 -0.9053 -0.7067
   80CHL1  H18C 8356   4.973   5.552   7.947 -3.6969 -1.9388  1.2779
   80CHL1   C12 8357   4.833   5.339   7.810  0.4555  0.3452 -0.0474
   80CHL1  H12A 8358   4.919   5.310   7.874  0.2705 -0.2469 -0.0613
   80CHL1  H12B 8359   4.761   5.257   7.829  0.0407  0.8658  0.6255
   80CHL1   C11 8360   4.879   5.329   7.655 -0.7257 -0.3906 -0.0875
   80CHL1  H11A 8361   4.979   5.376   7.664 -1.6128  1.7685 -1.2601
   80CHL1  H11B 8362   4.888   5.222   7.626 -0.1662  0.2367 -2.3575
   80CHL1    C9 8363   4.785   5.407   7.553  0.1093 -0.3492  0.3822
   80CHL1    H9 8364   4.695   5.342   7.543  0.2054 -0.3694 -0.3959
   80CHL1   C10 8365   4.848   5.419   7.411  0.1292 -0.0962  0.3476
   80CHL1   C19 8366   4.994   5.471   7.427 -0.4947 -0.2124 -0.1572
   80CHL1  H19A 8367   5.052   5.396   7.485 -0.4909  0.5823  0.8734
   80CHL1  H19B 8368   5.050   5.456   7.333 -1.0497 -1.7418 -0.2618
   80CHL1  H19C 8369   5.017   5.573   7.464 -0.3478  0.6701 -2.6183
   80CHL1    C1 8370   4.837   5.278   7.343 -1.0557 -0.2641 -0.2434
   80CHL1   H1A 8371   4.897   5.203   7.400 -1.4142 -0.8745 -0.6656
   80CHL1   H1B 8372   4.735   5.235   7.350 -0.9071 -0.4975  0.6422
   80CHL1    C2 8373   4.873   5.280   7.191 -0.9486 -0.8000  1.2427
   80CHL1   H2A 8374   4.867   5.177   7.149  2.5735  0.0345 -1.4359
   80CHL1   H2B 8375   4.980   5.309   7.189 -1.0703 -0.3094  1.7346
   80CHL1   C20 8376   4.777   5.496   8.105  1.2784  0.0136  0.3578
   80CHL1   H20 8377   4.841   5.587   8.107 -0.9196  1.6686 -1.3278
   80CHL1   C21 8378   4.870   5.375   8.126 -0.6846  0.1116 -0.0064
   80CHL1  H21A 8379   4.957   5.380   8.058 -0.5291  0.0760  0.1898
   80CHL1  H21B 8380   4.809   5.282   8.127  1.1768 -1.1455 -0.9773
   80CHL1  H21C 8381   4.920   5.395   8.223 -2.3111  2.3707  0.4047
   80CHL1   C22 8382   4.680   5.520   8.232  0.0100  1.0185 -0.3812
   80CHL1  H22A 8383   4.746   5.497   8.318  0.9409  0.7116 -1.1626
   80CHL1  H22B 8384   4.646   5.626   8.237  1.5918  1.5690 -0.9789
   80CHL1   C23 8385   4.554   5.427   8.232  0.1595 -0.6340  0.0059
   80CHL1  H23A 8386   4.487   5.459   8.149  1.7973 -1.0041 -1.4972
   80CHL1  H23B 8387   4.602   5.328   8.213  3.4428  1.1174 -1.3431
   80CHL1   C24 8388   4.479   5.424   8.372  0.1672  1.1474 -0.4060
   80CHL1  H24A 8389   4.553   5.419   8.455  0.2116  1.0276 -0.4525
   80CHL1  H24B 8390   4.425   5.520   8.387  0.6634  1.4325 -0.4511
   80CHL1   C25 8391   4.390   5.303   8.382  0.3560  0.0481 -0.4236
   80CHL1   H25 8392   4.459   5.223   8.348  1.8351  1.5734 -1.1394
   80CHL1   C26 8393   4.348   5.276   8.526  0.2588  0.0316 -0.3275
   80CHL1  H26A 8394   4.266   5.202   8.527 -1.1071  1.5306  0.1559
   80CHL1  H26B 8395   4.436   5.251   8.589  0.3650 -1.6127 -1.0943
   80CHL1  H26C 8396   4.296   5.362   8.574 -0.6095 -0.6579 -0.0301
   80CHL1   C27 8397   4.269   5.299   8.282  0.5921  0.3471  0.0925
   80CHL1  H27A 8398   4.186   5.362   8.318 -0.0709 -0.7399  0.4976
   80CHL1  H27B 8399   4.287   5.346   8.183  0.7674 -1.7719 -0.9231
   80CHL1  H27C 8400   4.240   5.194   8.259 -1.6978  1.6486 -3.3590
   81CHL1    C3 8401   2.978   5.305   6.823 -0.5067  0.1331  0.7110
   81CHL1    H3 8402   2.878   5.301   6.775 -1.0234  2.9563  1.4737
   81CHL1    O3 8403   3.061   5.322   6.707 -0.0641  0.9313 -0.3172
   81CHL1   H3' 8404   3.151   5.320   6.742  0.4212 -0.1159 -1.6176
   81CHL1    C4 8405   2.977   5.424   6.916 -0.9072 -0.4509  0.2111
   81CHL1   H4A 8406   3.079   5.436   6.957 -0.8512  2.1444 -0.5586
   81CHL1   H4B 8407   2.956   5.517   6.859 -0.7405  2.3442  4.4896
   81CHL1    C5 8408   2.894   5.395   7.031 -0.3882  0.3236 -0.2712
   81CHL1    C6 8409   2.801   5.491   7.061  0.2396  0.0555  0.4291
   81CHL1    H6 8410   2.781   5.578   6.997 -2.5085 -0.4526  0.5544
   81CHL1    C7 8411   2.707   5.487   7.177 -0.2552  0.8024  0.1925
   81CHL1   H7A 8412   2.715   5.581   7.235 -1.9621  1.1449 -0.1044
   81CHL1   H7B 8413   2.608   5.462   7.135  0.5405  0.7930 -1.7588
   81CHL1    C8 8414   2.740   5.372   7.274  0.2061 -0.4866 -0.3716
   81CHL1    H8 8415   2.818   5.409   7.343 -1.5385  1.9628  0.3266
   81CHL1   C14 8416   2.623   5.330   7.365 -0.1939  0.4091 -0.4364
   81CHL1   H14 8417   2.551   5.278   7.298 -2.2443  1.1619  1.1602
   81CHL1   C15 8418   2.532   5.447   7.419 -0.2242  0.2054 -0.0953
   81CHL1  H15A 8419   2.599   5.525   7.460 -0.3677  1.2027 -1.7148
   81CHL1  H15B 8420   2.475   5.483   7.331 -0.3664  1.2332  0.4156
   81CHL1   C16 8421   2.448   5.382   7.536  0.5007  0.7847  0.2263
   81CHL1  H16A 8422   2.442   5.441   7.629 -1.2643 -0.4950  0.9586
   81CHL1  H16B 8423   2.345   5.379   7.493  0.2336  0.5359  0.8718
   81CHL1   C17 8424   2.508   5.236   7.548 -0.9135  0.5540 -0.0771
   81CHL1   H17 8425   2.456   5.174   7.472  0.6054  2.0714 -2.3925
   81CHL1   C13 8426   2.651   5.233   7.488 -0.6876 -0.2881  0.5666
   81CHL1   C18 8427   2.755   5.300   7.580  0.9940 -0.0660  0.2122
   81CHL1  H18A 8428   2.718   5.403   7.602  2.4804  0.2383  1.3254
   81CHL1  H18B 8429   2.773   5.238   7.670 -1.6534 -1.8545 -0.4514
   81CHL1  H18C 8430   2.851   5.320   7.528  0.3904  0.6308 -0.6455
   81CHL1   C12 8431   2.712   5.104   7.422 -0.4006  0.7278 -0.5291
   81CHL1  H12A 8432   2.764   5.039   7.496 -0.2533  2.8889  1.3525
   81CHL1  H12B 8433   2.630   5.052   7.367  1.0311 -0.7957 -1.2595
   81CHL1   C11 8434   2.823   5.129   7.318  0.5663  0.0850 -0.7960
   81CHL1  H11A 8435   2.918   5.136   7.375  0.8184  0.0478 -1.2119
   81CHL1  H11B 8436   2.860   5.039   7.263  0.6346 -1.4898  1.7325
   81CHL1    C9 8437   2.795   5.243   7.209 -0.3269  0.3111 -0.1049
   81CHL1    H9 8438   2.709   5.203   7.152 -0.3018 -0.0656  0.1175
   81CHL1   C10 8439   2.920   5.268   7.116 -0.1607 -0.3074  0.8136
   81CHL1   C19 8440   3.051   5.287   7.191 -0.0765 -0.3200  0.3830
   81CHL1  H19A 8441   3.035   5.345   7.284  0.2572  0.0767  0.1936
   81CHL1  H19B 8442   3.104   5.193   7.218 -0.2225 -0.4755  0.1248
   81CHL1  H19C 8443   3.123   5.335   7.121  0.4085 -1.5945 -0.0165
   81CHL1    C1 8444   2.933   5.151   7.011 -0.0040  0.1663 -0.4122
   81CHL1   H1A 8445   2.987   5.079   7.076  2.5670  1.6224 -0.8630
   81CHL1   H1B 8446   2.834   5.116   6.977  0.2753 -1.0129 -0.0526
   81CHL1    C2 8447   3.022   5.178   6.890 -0.4792 -0.6820  0.6731
   81CHL1   H2A 8448   3.021   5.094   6.818 -0.9850 -1.0509  1.1007
   81CHL1   H2B 8449   3.128   5.188   6.922  0.5013 -1.4108 -2.2436
   81CHL1   C20 8450   2.483   5.172   7.686  0.0653 -0.1226  0.2500
   81CHL1   H20 8451   2.531   5.247   7.753  1.0225 -2.0817  1.8116
   81CHL1   C21 8452   2.555   5.035   7.701 -0.1769 -0.5971  0.3885
   81CHL1  H21A 8453   2.545   4.982   7.799  1.3120 -1.3411  0.1525
   81CHL1  H21B 8454   2.663   5.059   7.703 -0.1882 -0.5103  3.3939
   81CHL1  H21C 8455   2.529   4.958   7.626  2.1699 -0.5028 -0.5456
   81CHL1   C22 8456   2.338   5.160   7.731  0.5860  0.5677 -0.5514
   81CHL1  H22A 8457   2.272   5.245   7.702  0.4817  0.3859 -0.8569
   81CHL1  H22B 8458   2.303   5.067   7.682 -1.7680  0.5651  1.0841
   81CHL1   C23 8459   2.324   5.140   7.885 -0.4296 -0.5317 -0.0495
   81CHL1  H23A 8460   2.364   5.039   7.907 -0.7173 -0.7011 -0.3047
   81CHL1  H23B 8461   2.379   5.216   7.944  0.0139  0.6086 -1.8688
   81CHL1   C24 8462   2.180   5.143   7.936  0.3005 -0.8855  0.1207
   81CHL1  H24A 8463   2.130   5.219   7.873 -0.5448 -1.7335 -0.2454
   81CHL1  H24B 8464   2.139   5.040   7.925 -0.7165 -0.7210  2.1214
   81CHL1   C25 8465   2.169   5.195   8.085  0.2803 -0.5461 -0.1089
   81CHL1   H25 8466   2.230   5.288   8.084  0.0694 -0.4011 -2.5151
   81CHL1   C26 8467   2.029   5.242   8.131 -0.1567  0.1244 -0.0272
   81CHL1  H26A 8468   1.958   5.158   8.150  0.6097 -0.6153 -0.3997
   81CHL1  H26B 8469   2.042   5.304   8.222 -0.4548  1.8776 -1.1671
   81CHL1  H26C 8470   1.987   5.310   8.055 -1.0066 -0.0091  0.3216
   81CHL1   C27 8471   2.234   5.105   8.191 -0.2673  0.5126 -0.5011
   81CHL1  H27A 8472   2.241   5.155   8.290  0.9858 -2.4272  0.9338
   81CHL1  H27B 8473   2.175   5.011   8.192 -0.8120  0.8606  0.5840
   81CHL1  H27C 8474   2.337   5.092   8.151 -0.9986 -2.9251 -1.4095
   82CHL1    C3 8475   3.651   6.157   7.043 -0.8161  0.6974  0.1832
   82CHL1    H3 8476   3.663   6.256   7.093 -0.2325  0.5995  0.2378
   82CHL1    O3 8477   3.716   6.162   6.914  0.3004  0.0197 -0.0610
   82CHL1   H3' 8478   3.719   6.068   6.897  1.6891 -0.1781  1.1650
   82CHL1    C4 8479   3.721   6.045   7.132 -0.3404 -0.2367  0.1539
   82CHL1   H4A 8480   3.713   5.943   7.089 -0.0249 -0.7907  1.3740
   82CHL1   H4B 8481   3.826   6.081   7.138 -0.7281  0.6509  2.0434
   82CHL1    C5 8482   3.652   6.060   7.272  0.0107 -0.3433  0.0047
   82CHL1    C6 8483   3.732   6.099   7.374 -0.2105  0.4517  0.2015
   82CHL1    H6 8484   3.841   6.109   7.360 -0.5207  3.4725 -0.4866
   82CHL1    C7 8485   3.675   6.109   7.514 -0.2554 -0.6208  0.3011
   82CHL1   H7A 8486   3.744   6.053   7.580 -0.6776 -2.8881 -1.1510
   82CHL1   H7B 8487   3.669   6.218   7.535  1.7187 -0.5054  0.3517
   82CHL1    C8 8488   3.543   6.035   7.531  0.6202 -0.5718 -0.0676
   82CHL1    H8 8489   3.550   5.924   7.533  5.0483 -0.4059 -0.6890
   82CHL1   C14 8490   3.486   6.065   7.665 -0.1837 -0.1479  0.6506
   82CHL1   H14 8491   3.474   6.175   7.679  0.9495 -0.2099  2.2945
   82CHL1   C15 8492   3.566   6.034   7.791 -0.0578  0.1341 -0.5477
   82CHL1  H15A 8493   3.613   5.936   7.770  0.3593  0.5243 -1.4428
   82CHL1  H15B 8494   3.648   6.102   7.823  0.3738 -0.1778 -0.9938
   82CHL1   C16 8495   3.467   6.032   7.908  0.1891  0.0979  0.7651
   82CHL1  H16A 8496   3.488   5.938   7.962 -1.3177 -1.6804 -1.6338
   82CHL1  H16B 8497   3.475   6.121   7.974  2.7246 -0.0989  0.7797
   82CHL1   C17 8498   3.328   6.053   7.839 -0.3530 -0.3628  0.2557
   82CHL1   H17 8499   3.302   6.161   7.837  0.2219 -0.2476 -1.7801
   82CHL1   C13 8500   3.347   6.007   7.691 -0.6225 -0.5109 -0.3006
   82CHL1   C18 8501   3.332   5.856   7.698 -0.2713 -0.5098 -0.0672
   82CHL1  H18A 8502   3.225   5.828   7.706 -0.6746  1.0833  0.2518
   82CHL1  H18B 8503   3.376   5.804   7.610 -2.5721 -3.4058  0.3851
   82CHL1  H18C 8504   3.382   5.816   7.789  2.3232  3.4135  0.3691
   82CHL1   C12 8505   3.255   6.067   7.587  0.3578 -0.4718  0.5780
   82CHL1  H12A 8506   3.155   6.019   7.594  0.4872 -1.3028 -2.5401
   82CHL1  H12B 8507   3.243   6.177   7.602 -1.6096 -0.5522 -0.1568
   82CHL1   C11 8508   3.304   6.043   7.441  0.4698  0.1914  0.4297
   82CHL1  H11A 8509   3.286   5.933   7.441  0.7067  0.1544  0.6764
   82CHL1  H11B 8510   3.243   6.098   7.365 -0.0620 -2.2662 -0.9792
   82CHL1    C9 8511   3.450   6.081   7.414  0.5015  0.5880 -0.2756
   82CHL1    H9 8512   3.446   6.192   7.419 -1.1400  0.5816 -1.3974
   82CHL1   C10 8513   3.499   6.037   7.275  0.1804 -0.8853 -1.1791
   82CHL1   C19 8514   3.479   5.887   7.248 -0.0005 -0.1710  0.0436
   82CHL1  H19A 8515   3.520   5.851   7.151 -1.4240  0.8868 -0.9720
   82CHL1  H19B 8516   3.533   5.825   7.322 -2.2032 -2.1253  0.0725
   82CHL1  H19C 8517   3.370   5.869   7.263 -0.7219  2.5062 -1.6723
   82CHL1    C1 8518   3.433   6.131   7.171  0.0111 -0.4407 -0.0278
   82CHL1   H1A 8519   3.325   6.109   7.155  0.6641 -3.9845  0.0836
   82CHL1   H1B 8520   3.447   6.230   7.218 -0.9863 -0.1554 -0.3079
   82CHL1    C2 8521   3.503   6.132   7.034 -0.1880  0.7377  0.6843
   82CHL1   H2A 8522   3.459   6.221   6.983  0.8770  0.6157 -0.4561
   82CHL1   H2B 8523   3.478   6.045   6.969 -0.4283  0.0393  1.6999
   82CHL1   C20 8524   3.208   5.989   7.926 -0.5078  0.1953 -0.4772
   82CHL1   H20 8525   3.197   5.879   7.919 -1.2976  0.2783 -0.6142
   82CHL1   C21 8526   3.069   6.043   7.875  0.3774  0.4719 -0.6917
   82CHL1  H21A 8527   3.049   6.023   7.768 -3.2406 -2.1019  0.3593
   82CHL1  H21B 8528   3.061   6.150   7.903 -0.4163  0.6802 -1.6656
   82CHL1  H21C 8529   2.982   5.990   7.919 -0.5394  0.6961 -2.1899
   82CHL1   C22 8530   3.230   6.017   8.079 -0.2425 -0.9808  0.3857
   82CHL1  H22A 8531   3.332   5.987   8.114 -0.0528  0.5971  1.2178
   82CHL1  H22B 8532   3.223   6.127   8.087 -1.2996 -0.9226 -1.1053
   82CHL1   C23 8533   3.128   5.951   8.182  0.2008 -0.0195  0.1602
   82CHL1  H23A 8534   3.029   5.951   8.132  0.4519 -0.9338 -0.3576
   82CHL1  H23B 8535   3.157   5.844   8.178  1.1611  0.2307  0.1788
   82CHL1   C24 8536   3.148   6.000   8.327  0.0399  0.6881  0.4288
   82CHL1  H24A 8537   3.252   5.967   8.345 -0.3352 -0.1208  1.1639
   82CHL1  H24B 8538   3.129   6.108   8.345  0.6446  0.9456 -0.4469
   82CHL1   C25 8539   3.053   5.938   8.441  0.2491 -0.2545  0.1095
   82CHL1   H25 8540   3.044   5.828   8.432  0.6646 -0.5042  2.4277
   82CHL1   C26 8541   3.111   5.970   8.582  0.4930  0.1708 -0.1896
   82CHL1  H26A 8542   3.127   6.080   8.583  2.5764 -0.0731 -2.5232
   82CHL1  H26B 8543   3.049   5.939   8.669  1.3298 -0.7531  0.0824
   82CHL1  H26C 8544   3.211   5.923   8.589  1.3265  1.8825 -0.5107
   82CHL1   C27 8545   2.914   5.996   8.426  0.4532  0.0003 -0.2008
   82CHL1  H27A 8546   2.927   6.107   8.427  1.8000 -0.1447  0.1747
   82CHL1  H27B 8547   2.881   5.954   8.329  0.7632  0.8556 -0.6893
   82CHL1  H27C 8548   2.842   5.975   8.508 -0.5969 -0.6863 -1.2953
   83CHL1    C3 8549   6.593   0.495   6.770  0.2440  0.1425 -0.5330
   83CHL1    H3 8550   6.589   0.605   6.782 -0.1518  0.1523 -0.7381
   83CHL1    O3 8551   6.584   0.470   6.631  0.7220 -0.1756 -0.5674
   83CHL1   H3' 8552   6.629   0.389   6.606 -0.1780 -0.9930  0.4466
   83CHL1    C4 8553   6.728   0.437   6.821  0.0876 -1.0473 -0.1847
   83CHL1   H4A 8554   6.703   0.329   6.815 -0.8464 -0.7796 -1.3368
   83CHL1   H4B 8555   6.812   0.463   6.753  1.1551  1.7828  2.1052
   83CHL1    C5 8556   6.753   0.484   6.961 -0.0770 -0.4991  0.1095
   83CHL1    C6 8557   6.866   0.558   6.987 -0.0794 -0.1478  0.0118
   83CHL1    H6 8558   6.946   0.571   6.913 -0.9936  2.9503 -0.5088
   83CHL1    C7 8559   6.890   0.632   7.114  0.9055  0.3977 -0.4095
   83CHL1   H7A 8560   6.997   0.626   7.146  1.7238  3.5778 -2.3638
   83CHL1   H7B 8561   6.862   0.739   7.101 -1.5765 -0.1247  0.3489
   83CHL1    C8 8562   6.810   0.564   7.231 -0.1658  0.2440  0.3264
   83CHL1    H8 8563   6.858   0.467   7.255 -0.7097  0.2913  1.6252
   83CHL1   C14 8564   6.815   0.641   7.362  0.1320  0.3868  0.6156
   83CHL1   H14 8565   6.763   0.738   7.348  0.1821  0.1502 -1.4189
   83CHL1   C15 8566   6.960   0.680   7.405 -0.4154  0.0041 -0.5121
   83CHL1  H15A 8567   7.025   0.592   7.388 -0.3896 -0.4244  1.5776
   83CHL1  H15B 8568   6.994   0.772   7.353 -0.4189  0.2497 -0.0840
   83CHL1   C16 8569   6.939   0.714   7.556  0.2221  0.0154 -0.0808
   83CHL1  H16A 8570   7.008   0.661   7.625  0.1573 -1.1249 -0.8648
   83CHL1  H16B 8571   6.948   0.823   7.572  0.3016  0.0490 -0.3463
   83CHL1   C17 8572   6.793   0.667   7.599 -0.2482  0.0210 -0.8998
   83CHL1   H17 8573   6.735   0.762   7.593 -2.8125 -1.5384 -1.5640
   83CHL1   C13 8574   6.754   0.566   7.487 -0.2023  0.5542 -0.0711
   83CHL1   C18 8575   6.829   0.431   7.514 -0.1561  0.7140  0.3804
   83CHL1  H18A 8576   6.784   0.370   7.595  0.3049 -1.9906 -1.3263
   83CHL1  H18B 8577   6.832   0.357   7.431  3.5931 -0.3967  1.4297
   83CHL1  H18C 8578   6.934   0.445   7.547  0.7081 -1.8963 -1.0949
   83CHL1   C12 8579   6.606   0.542   7.453  0.2052 -0.3441  0.6433
   83CHL1  H12A 8580   6.542   0.498   7.532 -2.5918 -2.3840 -2.5900
   83CHL1  H12B 8581   6.572   0.646   7.433  0.1501  0.1515  3.2069
   83CHL1   C11 8582   6.582   0.476   7.314 -0.9797 -0.2835 -0.4692
   83CHL1  H11A 8583   6.594   0.367   7.332 -0.6486  0.0429  1.2960
   83CHL1  H11B 8584   6.473   0.490   7.296 -1.3810 -2.7770 -0.1819
   83CHL1    C9 8585   6.668   0.531   7.199  0.0122 -0.4692 -0.0878
   83CHL1    H9 8586   6.620   0.631   7.188  2.8208  1.3837  3.5815
   83CHL1   C10 8587   6.640   0.454   7.065  0.2968  0.1927 -0.3738
   83CHL1   C19 8588   6.655   0.302   7.095 -0.5707  0.3853 -0.1727
   83CHL1  H19A 8589   6.560   0.264   7.139  0.7443 -1.9100  0.7946
   83CHL1  H19B 8590   6.677   0.244   7.003  0.0345 -0.5179  0.5435
   83CHL1  H19C 8591   6.741   0.291   7.165  0.0640 -0.3234 -1.0452
   83CHL1    C1 8592   6.502   0.483   7.009 -0.3776  0.0663  0.1522
   83CHL1   H1A 8593   6.417   0.444   7.068  0.2575  0.5845  1.4239
   83CHL1   H1B 8594   6.505   0.594   7.015 -4.0791  0.1990  1.0461
   83CHL1    C2 8595   6.483   0.442   6.860  0.1153  0.3835 -0.2106
   83CHL1   H2A 8596   6.393   0.490   6.818 -0.0708  0.3019  0.0969
   83CHL1   H2B 8597   6.470   0.333   6.844  1.1768  0.1598  0.3686
   83CHL1   C20 8598   6.793   0.615   7.750 -0.1959 -1.1130 -0.0055
   83CHL1   H20 8599   6.851   0.521   7.760  0.3526 -0.6967  0.7471
   83CHL1   C21 8600   6.648   0.582   7.794  0.4170  0.2459 -0.7953
   83CHL1  H21A 8601   6.609   0.492   7.741 -0.2983 -0.5142  1.0090
   83CHL1  H21B 8602   6.592   0.675   7.772 -1.0559 -0.4845 -0.2345
   83CHL1  H21C 8603   6.636   0.570   7.903  1.1350  0.6063 -0.6771
   83CHL1   C22 8604   6.856   0.716   7.851 -0.1461 -0.3360  0.5605
   83CHL1  H22A 8605   6.946   0.767   7.811 -1.4265  1.4717 -0.0961
   83CHL1  H22B 8606   6.781   0.795   7.875 -2.1499 -1.1643 -2.6504
   83CHL1   C23 8607   6.911   0.644   7.973  0.4892 -0.0546  0.0757
   83CHL1  H23A 8608   6.833   0.592   8.031 -1.0531  2.2470  0.1364
   83CHL1  H23B 8609   6.994   0.576   7.946 -1.7083 -2.8510  0.1987
   83CHL1   C24 8610   6.961   0.758   8.066 -0.0414 -0.3176  0.6445
   83CHL1  H24A 8611   7.050   0.794   8.011 -1.4214 -1.5921 -2.5475
   83CHL1  H24B 8612   6.890   0.844   8.068  0.3713  0.0149  1.1196
   83CHL1   C25 8613   7.010   0.716   8.205  0.4583  0.6979  0.3845
   83CHL1   H25 8614   7.073   0.625   8.201 -1.4982 -0.7653  1.8789
   83CHL1   C26 8615   7.107   0.815   8.270 -0.1027  0.4437 -0.7387
   83CHL1  H26A 8616   7.060   0.915   8.278  1.4776  1.3943 -2.7936
   83CHL1  H26B 8617   7.132   0.769   8.368 -0.9325 -2.1588 -1.6826
   83CHL1  H26C 8618   7.199   0.826   8.208  1.0027 -3.7216 -0.0223
   83CHL1   C27 8619   6.892   0.687   8.296 -0.5687 -0.1655  0.2643
   83CHL1  H27A 8620   6.849   0.785   8.326  0.5638  0.7887 -1.2107
   83CHL1  H27B 8621   6.815   0.630   8.239 -0.2992  1.0529 -1.3300
   83CHL1  H27C 8622   6.918   0.612   8.375 -0.4938 -2.2219 -1.6652
   84CHL1    C3 8623   2.064   3.497   6.709  1.0761  0.0914  0.4808
   84CHL1    H3 8624   2.038   3.604   6.724 -1.6128 -0.0604 -2.5079
   84CHL1    O3 8625   2.015   3.472   6.581  0.0165  0.0609  0.4702
   84CHL1   H3' 8626   1.969   3.388   6.585  0.5841 -0.2488  0.5665
   84CHL1    C4 8627   2.220   3.468   6.715 -0.3368  0.0327  0.3828
   84CHL1   H4A 8628   2.240   3.372   6.663 -1.0786  0.4063 -0.5913
   84CHL1   H4B 8629   2.269   3.547   6.654  0.5622  1.1812  2.5084
   84CHL1    C5 8630   2.274   3.466   6.858 -0.5999  1.2047 -0.0466
   84CHL1    C6 8631   2.393   3.520   6.888  0.3386 -0.1263  0.2328
   84CHL1    H6 8632   2.441   3.572   6.803 -0.6260  1.9984  0.9541
   84CHL1    C7 8633   2.458   3.512   7.027 -0.7499  0.3958 -0.3560
   84CHL1   H7A 8634   2.567   3.497   7.013 -1.0448 -0.9343 -1.3593
   84CHL1   H7B 8635   2.457   3.611   7.078  2.5435  0.0608  0.4771
   84CHL1    C8 8636   2.394   3.403   7.124 -0.0451 -0.9249 -0.1660
   84CHL1    H8 8637   2.456   3.315   7.100  1.2832 -0.1557  0.3860
   84CHL1   C14 8638   2.432   3.436   7.272  0.7324  0.6902  0.4634
   84CHL1   H14 8639   2.375   3.530   7.291 -0.5289 -0.2020  1.1280
   84CHL1   C15 8640   2.580   3.449   7.296 -0.4976  0.0847  0.1509
   84CHL1  H15A 8641   2.643   3.361   7.270  3.1876  1.9977  2.3686
   84CHL1  H15B 8642   2.634   3.535   7.253  1.0152 -0.0714  1.6765
   84CHL1   C16 8643   2.585   3.441   7.449  0.7460 -0.1147 -0.2743
   84CHL1  H16A 8644   2.677   3.389   7.483  2.9574  3.6484 -0.3000
   84CHL1  H16B 8645   2.598   3.541   7.494  0.1804 -0.7335  1.2873
   84CHL1   C17 8646   2.441   3.394   7.502 -0.6975  0.3312 -0.2208
   84CHL1   H17 8647   2.379   3.480   7.536 -1.0202  0.2063 -0.4878
   84CHL1   C13 8648   2.375   3.331   7.373 -0.1639 -0.1044 -0.0698
   84CHL1   C18 8649   2.430   3.194   7.346  0.5294  0.0032  1.2262
   84CHL1  H18A 8650   2.379   3.121   7.412  0.0834  0.1011  0.9945
   84CHL1  H18B 8651   2.407   3.166   7.240 -1.3691  1.2204  1.2953
   84CHL1  H18C 8652   2.539   3.179   7.357  0.6958 -0.2299 -0.5292
   84CHL1   C12 8653   2.220   3.345   7.355  0.3611 -0.1500 -0.0991
   84CHL1  H12A 8654   2.154   3.285   7.422  0.4618  1.0575  1.0977
   84CHL1  H12B 8655   2.194   3.452   7.371 -0.9926 -0.1454 -2.2683
   84CHL1   C11 8656   2.183   3.306   7.207  0.7734  0.3538  0.5369
   84CHL1  H11A 8657   2.219   3.203   7.190 -0.0792  0.1404 -0.0572
   84CHL1  H11B 8658   2.072   3.307   7.200  0.8814  1.6435 -1.6770
   84CHL1    C9 8659   2.244   3.407   7.102 -0.3040 -0.3256  0.4749
   84CHL1    H9 8660   2.211   3.508   7.133 -1.0931 -0.5620  0.4134
   84CHL1   C10 8661   2.193   3.382   6.957 -0.2248 -0.4270 -0.0387
   84CHL1   C19 8662   2.223   3.237   6.929 -0.4695  0.1293  1.1647
   84CHL1  H19A 8663   2.191   3.208   6.827 -2.1127  1.5167  1.2634
   84CHL1  H19B 8664   2.331   3.215   6.945 -0.4723  0.7675  2.1336
   84CHL1  H19C 8665   2.160   3.172   6.993  0.2421 -1.3925  0.3312
   84CHL1    C1 8666   2.041   3.415   6.937  0.3651 -0.0132  0.3019
   84CHL1   H1A 8667   1.982   3.345   7.001 -1.5333  0.9754 -0.3494
   84CHL1   H1B 8668   2.033   3.517   6.979  2.2023  0.3590 -0.2057
   84CHL1    C2 8669   1.990   3.398   6.799 -0.1709 -0.4751  0.4233
   84CHL1   H2A 8670   1.879   3.406   6.795 -0.2001 -0.3557  1.4243
   84CHL1   H2B 8671   2.002   3.290   6.772  1.3391 -1.1286  3.5418
   84CHL1   C20 8672   2.446   3.304   7.628 -0.2946  0.4364  0.8516
   84CHL1   H20 8673   2.478   3.199   7.607 -0.4248  0.8663 -1.6513
   84CHL1   C21 8674   2.298   3.285   7.686  0.0686  0.2948 -0.5405
   84CHL1  H21A 8675   2.296   3.224   7.779  1.9615  1.1036  0.0650
   84CHL1  H21B 8676   2.247   3.228   7.606 -1.2703  0.5201  0.1492
   84CHL1  H21C 8677   2.247   3.382   7.705 -1.2065 -0.7147  1.3258
   84CHL1   C22 8678   2.546   3.374   7.733 -0.1462  0.2688  0.1955
   84CHL1  H22A 8679   2.654   3.363   7.708 -0.9194 -1.6607 -2.4943
   84CHL1  H22B 8680   2.525   3.484   7.734 -0.1412  0.3527 -3.0677
   84CHL1   C23 8681   2.530   3.323   7.875 -0.0195 -0.2366  0.2899
   84CHL1  H23A 8682   2.457   3.389   7.926  1.6403  0.3192  1.9952
   84CHL1  H23B 8683   2.480   3.225   7.862  0.1014 -0.2747  0.1127
   84CHL1   C24 8684   2.648   3.314   7.976  0.4443 -0.0748 -0.0975
   84CHL1  H24A 8685   2.718   3.234   7.943  1.2609  0.8916 -0.7373
   84CHL1  H24B 8686   2.712   3.404   7.964  0.6466  0.2355  3.0042
   84CHL1   C25 8687   2.612   3.295   8.123  0.4437  0.1340  0.2702
   84CHL1   H25 8688   2.710   3.280   8.173  0.1123 -0.4939  0.7296
   84CHL1   C26 8689   2.537   3.420   8.177 -0.0096  0.0714  0.5843
   84CHL1  H26A 8690   2.536   3.414   8.288  1.0538 -0.9569  0.5357
   84CHL1  H26B 8691   2.585   3.518   8.156  2.0178 -0.8117  0.9973
   84CHL1  H26C 8692   2.431   3.431   8.146  0.1932  0.9611  0.1866
   84CHL1   C27 8693   2.534   3.169   8.153 -0.8950  0.2005  0.2960
   84CHL1  H27A 8694   2.512   3.166   8.262 -0.6208 -1.2564  0.3320
   84CHL1  H27B 8695   2.434   3.161   8.106 -0.8611  0.5909  0.1572
   84CHL1  H27C 8696   2.586   3.073   8.130  0.9505  1.4296 -0.7145
   85CHL1    C3 8697   1.614   0.426   6.804 -0.4742  0.0443 -0.0353
   85CHL1    H3 8698   1.539   0.355   6.762  0.4120 -0.2735 -1.1115
   85CHL1    O3 8699   1.654   0.494   6.683 -0.0671 -0.2354  0.1584
   85CHL1   H3' 8700   1.577   0.544   6.654 -1.4203 -2.1824  0.2518
   85CHL1    C4 8701   1.551   0.533   6.893  0.5622  0.2591 -0.1340
   85CHL1   H4A 8702   1.623   0.617   6.902 -0.8876  1.4631  0.3488
   85CHL1   H4B 8703   1.466   0.577   6.837 -0.1737 -0.3210  0.5163
   85CHL1    C5 8704   1.511   0.490   7.034 -0.2361  1.1988  0.5851
   85CHL1    C6 8705   1.394   0.524   7.091  0.2138  0.3836 -0.4766
   85CHL1    H6 8706   1.325   0.593   7.040  0.8172  0.3656 -1.3398
   85CHL1    C7 8707   1.353   0.487   7.231  1.0657 -0.7011 -0.3327
   85CHL1   H7A 8708   1.293   0.566   7.280  1.0785 -2.1375  2.0948
   85CHL1   H7B 8709   1.276   0.408   7.232 -1.1551  1.4121 -0.3112
   85CHL1    C8 8710   1.466   0.431   7.327  0.4072 -0.0035 -1.1761
   85CHL1    H8 8711   1.516   0.529   7.343 -0.3573  0.2599 -0.3279
   85CHL1   C14 8712   1.422   0.371   7.455 -0.4659 -0.4122 -0.1072
   85CHL1   H14 8713   1.359   0.283   7.429  0.6050 -1.8349  1.9391
   85CHL1   C15 8714   1.355   0.465   7.553  1.0283 -0.5905 -0.3577
   85CHL1  H15A 8715   1.401   0.566   7.560 -1.8830  0.7666  0.0534
   85CHL1  H15B 8716   1.245   0.460   7.536  1.2238 -1.2465 -1.4855
   85CHL1   C16 8717   1.388   0.410   7.696 -0.4210 -0.6971 -0.0414
   85CHL1  H16A 8718   1.443   0.488   7.752 -1.1551  0.3730 -0.7933
   85CHL1  H16B 8719   1.299   0.390   7.758 -2.1531  2.4951 -1.4139
   85CHL1   C17 8720   1.475   0.284   7.672  0.7237 -0.4512  0.3325
   85CHL1   H17 8721   1.403   0.203   7.647 -0.3519  0.8437 -0.8326
   85CHL1   C13 8722   1.541   0.322   7.536  0.1677 -0.0241 -0.0078
   85CHL1   C18 8723   1.647   0.434   7.563  0.1368  0.3884 -0.4898
   85CHL1  H18A 8724   1.715   0.398   7.643  2.2216  0.7526 -2.0886
   85CHL1  H18B 8725   1.711   0.463   7.478  2.0643 -3.6306 -0.4975
   85CHL1  H18C 8726   1.591   0.523   7.601 -0.9463 -0.3896 -0.2315
   85CHL1   C12 8727   1.593   0.203   7.454  0.4127 -0.0139 -0.1265
   85CHL1  H12A 8728   1.678   0.145   7.497  1.1246 -0.5479 -2.1910
   85CHL1  H12B 8729   1.514   0.129   7.431 -2.0810  2.1342  1.3701
   85CHL1   C11 8730   1.659   0.247   7.324  0.0772 -0.1978 -0.4037
   85CHL1  H11A 8731   1.754   0.298   7.348  0.8995 -1.8113 -0.1514
   85CHL1  H11B 8732   1.692   0.156   7.268  0.4918 -0.5618  0.4318
   85CHL1    C9 8733   1.559   0.341   7.237 -0.4570  0.8834  0.3116
   85CHL1    H9 8734   1.499   0.256   7.197 -1.8312  1.2490  1.5472
   85CHL1   C10 8735   1.608   0.408   7.115 -0.0085 -0.7856  0.1436
   85CHL1   C19 8736   1.718   0.504   7.152  0.0878 -0.3389 -0.2316
   85CHL1  H19A 8737   1.808   0.449   7.187  0.8971  2.3866  2.2267
   85CHL1  H19B 8738   1.761   0.566   7.071  1.8759 -0.5290  0.5374
   85CHL1  H19C 8739   1.681   0.567   7.236  2.0342 -2.2847  2.1607
   85CHL1    C1 8740   1.669   0.299   7.014  0.0727  0.0577  0.5445
   85CHL1   H1A 8741   1.748   0.241   7.067  2.1243  2.8334  0.6980
   85CHL1   H1B 8742   1.585   0.229   6.996  3.0451 -3.3824 -0.6161
   85CHL1    C2 8743   1.721   0.349   6.876  0.2203 -0.6268 -0.7269
   85CHL1   H2A 8744   1.768   0.263   6.824  2.6820 -0.2801  0.8583
   85CHL1   H2B 8745   1.805   0.418   6.899 -1.1428  0.7858  0.1051
   85CHL1   C20 8746   1.549   0.232   7.795 -0.3628 -0.0774 -0.0049
   85CHL1   H20 8747   1.647   0.283   7.800 -0.1478 -0.5276  0.3736
   85CHL1   C21 8748   1.589   0.083   7.786 -0.1827 -0.8186  0.1725
   85CHL1  H21A 8749   1.665   0.048   7.859 -0.6273  2.1713  2.1619
   85CHL1  H21B 8750   1.646   0.072   7.691  0.7785  0.6713  0.5644
   85CHL1  H21C 8751   1.499   0.017   7.779 -1.6219  1.2333 -1.2142
   85CHL1   C22 8752   1.478   0.275   7.929  0.0429  0.1190 -0.4639
   85CHL1  H22A 8753   1.468   0.385   7.935 -1.1565 -0.0739  2.0020
   85CHL1  H22B 8754   1.376   0.231   7.932  0.0034  0.0947 -1.8457
   85CHL1   C23 8755   1.551   0.226   8.056 -0.2270  0.4153  0.8531
   85CHL1  H23A 8756   1.575   0.119   8.040  1.0649  1.1343 -2.3854
   85CHL1  H23B 8757   1.653   0.271   8.051  0.1476 -0.2573  2.1450
   85CHL1   C24 8758   1.488   0.241   8.198 -0.5666 -0.6156 -0.2561
   85CHL1  H24A 8759   1.479   0.350   8.219  0.4767 -1.0341  2.6215
   85CHL1  H24B 8760   1.389   0.192   8.211  0.8464 -3.3999  0.4178
   85CHL1   C25 8761   1.587   0.175   8.301 -0.5809  0.0912  0.5988
   85CHL1   H25 8762   1.683   0.231   8.295 -0.4387 -0.1343  0.7645
   85CHL1   C26 8763   1.546   0.213   8.449 -0.2595  0.2954  0.6087
   85CHL1  H26A 8764   1.446   0.172   8.476  0.0240 -2.3894 -2.1490
   85CHL1  H26B 8765   1.626   0.171   8.513  0.3040 -0.6415 -0.6877
   85CHL1  H26C 8766   1.539   0.323   8.465 -0.8027  0.5844 -1.4471
   85CHL1   C27 8767   1.609   0.028   8.296 -0.0884 -0.1755  0.6006
   85CHL1  H27A 8768   1.661  -0.012   8.386  1.1359 -0.5357 -0.2473
   85CHL1  H27B 8769   1.515  -0.032   8.289  1.1575 -2.2666  1.2161
   85CHL1  H27C 8770   1.671   0.007   8.206  1.1072  2.0519  0.8934
   86CHL1    C3 8771   4.020   5.085   6.885 -0.0022 -0.0021 -0.1836
   86CHL1    H3 8772   3.922   5.103   6.835  0.4138 -0.4225 -1.1657
   86CHL1    O3 8773   4.119   5.092   6.783 -0.7161  0.0738 -0.2269
   86CHL1   H3' 8774   4.124   5.184   6.758 -0.5186  0.8665  2.6233
   86CHL1    C4 8775   4.042   5.192   6.993  0.2050  0.3353  0.3261
   86CHL1   H4A 8776   4.147   5.178   7.026  0.4578 -1.9172 -1.2857
   86CHL1   H4B 8777   4.053   5.300   6.968 -1.1762  0.8780  2.0041
   86CHL1    C5 8778   3.944   5.172   7.109 -0.3519 -0.6403  0.2689
   86CHL1    C6 8779   3.861   5.267   7.157  0.3302  0.0712  0.9361
   86CHL1    H6 8780   3.865   5.368   7.113 -0.4947  0.8063  2.5475
   86CHL1    C7 8781   3.775   5.252   7.279  0.2759  0.0924  0.2939
   86CHL1   H7A 8782   3.786   5.344   7.340  2.7112  0.5395 -0.7270
   86CHL1   H7B 8783   3.668   5.252   7.250  0.6093 -1.3177 -1.0427
   86CHL1    C8 8784   3.817   5.133   7.365  0.6590  0.5348  0.1228
   86CHL1    H8 8785   3.914   5.150   7.415  0.4483  0.3784  0.5874
   86CHL1   C14 8786   3.713   5.114   7.480 -0.1929  0.1666  0.6122
   86CHL1   H14 8787   3.617   5.087   7.433  0.0142  0.2804  0.1198
   86CHL1   C15 8788   3.681   5.233   7.572  0.4955  0.7128  0.2826
   86CHL1  H15A 8789   3.776   5.284   7.594  1.0623  0.1106 -0.7157
   86CHL1  H15B 8790   3.596   5.292   7.531  0.4377  0.6938  0.3748
   86CHL1   C16 8791   3.627   5.156   7.701 -1.2659 -0.3610  0.1121
   86CHL1  H16A 8792   3.690   5.197   7.784 -2.6857  0.1138  0.9654
   86CHL1  H16B 8793   3.522   5.184   7.719 -1.0122  1.1109 -0.6245
   86CHL1   C17 8794   3.644   5.001   7.683 -1.1544 -0.2426  0.2927
   86CHL1   H17 8795   3.556   4.968   7.624 -0.0593  0.4723 -1.8038
   86CHL1   C13 8796   3.750   4.995   7.569 -0.0493  1.0200  0.8257
   86CHL1   C18 8797   3.884   5.027   7.634  0.1718 -0.0791 -0.5700
   86CHL1  H18A 8798   3.970   5.039   7.565  0.2574 -1.7689 -0.7709
   86CHL1  H18B 8799   3.878   5.112   7.705 -1.8739 -1.3823  0.8618
   86CHL1  H18C 8800   3.901   4.944   7.706  0.2262  0.7762  0.4151
   86CHL1   C12 8801   3.761   4.864   7.488 -0.4304  0.0581  0.7772
   86CHL1  H12A 8802   3.801   4.781   7.549  2.4860  0.3230 -0.6684
   86CHL1  H12B 8803   3.662   4.843   7.441  0.0156 -1.5620  0.5267
   86CHL1   C11 8804   3.854   4.875   7.366 -0.2270 -0.1089 -0.0985
   86CHL1  H11A 8805   3.957   4.883   7.405 -0.2186  1.4211 -0.4328
   86CHL1  H11B 8806   3.859   4.784   7.302  1.3049  1.0139 -1.5937
   86CHL1    C9 8807   3.837   5.003   7.282  0.2020 -0.3908  0.0046
   86CHL1    H9 8808   3.739   4.998   7.231  0.3084  1.5303 -0.4397
   86CHL1   C10 8809   3.951   5.025   7.169  0.0141  0.1117 -0.0521
   86CHL1   C19 8810   4.097   5.016   7.234 -0.0325 -0.1627 -0.5264
   86CHL1  H19A 8811   4.101   5.069   7.332 -1.4311 -0.8680 -0.0838
   86CHL1  H19B 8812   4.112   4.908   7.257  1.6886  0.2761  0.5874
   86CHL1  H19C 8813   4.179   5.054   7.169  2.2573 -1.7438  1.3062
   86CHL1    C1 8814   3.937   4.915   7.059 -0.1710 -0.3883  0.2239
   86CHL1   H1A 8815   3.949   4.810   7.096  0.2361 -0.5649 -0.3987
   86CHL1   H1B 8816   3.831   4.923   7.029 -0.2341 -0.3777  0.4465
   86CHL1    C2 8817   4.031   4.936   6.941  0.7645  0.0767  0.2815
   86CHL1   H2A 8818   3.985   4.870   6.865  0.9042  1.4100 -0.9857
   86CHL1   H2B 8819   4.131   4.898   6.972  2.1582  2.5715 -0.9396
   86CHL1   C20 8820   3.647   4.922   7.814 -1.0453  0.8174  0.1850
   86CHL1   H20 8821   3.748   4.929   7.858 -0.9681  1.7339 -0.1353
   86CHL1   C21 8822   3.617   4.783   7.789  0.3766 -0.1539  0.0289
   86CHL1  H21A 8823   3.678   4.725   7.715  0.0932 -1.5504  0.8657
   86CHL1  H21B 8824   3.512   4.782   7.750  1.2466 -2.8455 -2.5115
   86CHL1  H21C 8825   3.615   4.727   7.885  0.7075  0.6582  0.5063
   86CHL1   C22 8826   3.550   4.983   7.918  1.1304 -0.1015  0.4347
   86CHL1  H22A 8827   3.574   5.088   7.946 -1.3766  0.1819  1.6266
   86CHL1  H22B 8828   3.450   4.990   7.870  1.5542  3.7735 -0.0454
   86CHL1   C23 8829   3.538   4.900   8.046  1.0603  0.0397  0.7247
   86CHL1  H23A 8830   3.480   4.810   8.015  0.5330 -0.2761  2.5488
   86CHL1  H23B 8831   3.641   4.880   8.082  0.9809 -0.4481  0.6850
   86CHL1   C24 8832   3.462   4.971   8.164  0.3634 -0.2798  0.1725
   86CHL1  H24A 8833   3.538   5.049   8.185 -0.2142  0.2926  0.1303
   86CHL1  H24B 8834   3.359   5.009   8.149  0.3823 -0.8685 -1.5101
   86CHL1   C25 8835   3.464   4.881   8.294 -0.1537 -0.0475  0.1653
   86CHL1   H25 8836   3.568   4.853   8.318 -0.4874 -0.3943  1.2067
   86CHL1   C26 8837   3.405   4.954   8.414 -0.6677  0.5099 -0.0374
   86CHL1  H26A 8838   3.295   4.969   8.406 -0.1100  3.8929 -2.6225
   86CHL1  H26B 8839   3.433   4.891   8.501  0.3946  0.3799 -0.4736
   86CHL1  H26C 8840   3.456   5.053   8.421 -2.0822  1.2529  0.1062
   86CHL1   C27 8841   3.380   4.757   8.267  0.1041  0.0519  0.6959
   86CHL1  H27A 8842   3.365   4.691   8.355  1.3922  0.6164  1.3514
   86CHL1  H27B 8843   3.276   4.778   8.232  0.3885  0.1191 -0.1126
   86CHL1  H27C 8844   3.429   4.696   8.189 -0.8781 -1.2563  1.0871
   87CHL1    C3 8845   4.452   3.439   6.999  0.0818  0.8786 -0.2899
   87CHL1    H3 8846   4.411   3.343   7.035  1.7096  1.0752  2.1668
   87CHL1    O3 8847   4.492   3.430   6.867  0.3514 -0.4859  0.1803
   87CHL1   H3' 8848   4.422   3.381   6.824 -1.0616  1.4180  0.2825
   87CHL1    C4 8849   4.329   3.539   7.009 -0.4589  0.3967  0.0535
   87CHL1   H4A 8850   4.355   3.635   6.958 -2.0382  1.2964  0.9099
   87CHL1   H4B 8851   4.242   3.484   6.968 -0.2964 -0.0825  0.3527
   87CHL1    C5 8852   4.298   3.576   7.151  0.7440 -0.0885 -0.0705
   87CHL1    C6 8853   4.168   3.568   7.196 -0.3174  0.1069  0.0004
   87CHL1    H6 8854   4.090   3.538   7.124  0.9430 -1.7969 -0.6271
   87CHL1    C7 8855   4.131   3.607   7.335  0.2823 -0.0306  0.3666
   87CHL1   H7A 8856   4.028   3.648   7.336  0.3331  0.0818  1.2310
   87CHL1   H7B 8857   4.116   3.513   7.392  2.0851 -1.4535 -1.4358
   87CHL1    C8 8858   4.233   3.689   7.403 -0.0984  0.1172 -0.4773
   87CHL1    H8 8859   4.234   3.793   7.365 -0.0646  0.0242 -0.7296
   87CHL1   C14 8860   4.203   3.692   7.553  0.1129 -0.5904  1.0774
   87CHL1   H14 8861   4.217   3.588   7.591 -2.8697 -1.1363  0.7577
   87CHL1   C15 8862   4.061   3.725   7.603 -0.3208 -0.0553 -0.2247
   87CHL1  H15A 8863   4.014   3.809   7.549  1.1948  0.3036 -1.0007
   87CHL1  H15B 8864   3.986   3.644   7.592  1.1078 -1.1963 -1.8526
   87CHL1   C16 8865   4.071   3.773   7.753 -0.3764 -0.6150  0.2748
   87CHL1  H16A 8866   4.022   3.872   7.759  0.4959 -0.3118  2.6947
   87CHL1  H16B 8867   4.026   3.708   7.831  2.9506 -2.9068  0.4045
   87CHL1   C17 8868   4.231   3.784   7.777 -0.7049 -0.6322 -0.0087
   87CHL1   H17 8869   4.250   3.681   7.814 -0.6181 -0.5560  0.1604
   87CHL1   C13 8870   4.297   3.778   7.640 -0.2778  0.8545  0.7263
   87CHL1   C18 8871   4.299   3.919   7.579  0.0676  0.8931  0.1239
   87CHL1  H18A 8872   4.330   3.918   7.472 -1.3001  0.3243 -0.2769
   87CHL1  H18B 8873   4.196   3.962   7.586  0.4442  2.0762 -1.2358
   87CHL1  H18C 8874   4.357   3.995   7.636 -1.3849  2.2481 -0.1510
   87CHL1   C12 8875   4.438   3.707   7.629  0.0368  0.1361 -0.2843
   87CHL1  H12A 8876   4.520   3.765   7.677 -0.4701  0.0499  0.6958
   87CHL1  H12B 8877   4.437   3.604   7.670 -1.1524  0.4516  0.5083
   87CHL1   C11 8878   4.479   3.701   7.475 -0.1052 -0.1332  0.5007
   87CHL1  H11A 8879   4.496   3.801   7.432  0.6943 -0.4453  0.0741
   87CHL1  H11B 8880   4.569   3.635   7.474 -0.6253 -0.8548 -0.5007
   87CHL1    C9 8881   4.370   3.627   7.383  0.7028 -0.4231  0.5296
   87CHL1    H9 8882   4.371   3.523   7.422  1.3900 -0.4260  0.5206
   87CHL1   C10 8883   4.413   3.612   7.237  0.2039  0.0143  0.0661
   87CHL1   C19 8884   4.469   3.744   7.182 -0.1760 -0.0559 -0.6453
   87CHL1  H19A 8885   4.559   3.760   7.244 -1.0436  1.0388  0.3565
   87CHL1  H19B 8886   4.501   3.740   7.076  1.7871  1.8051 -0.1516
   87CHL1  H19C 8887   4.398   3.828   7.200 -1.5224 -1.1245 -0.8532
   87CHL1    C1 8888   4.515   3.497   7.223 -0.2340 -0.0187 -0.2747
   87CHL1   H1A 8889   4.598   3.526   7.291 -0.9803 -0.4097  0.8156
   87CHL1   H1B 8890   4.474   3.400   7.258 -1.8295  0.9331  0.5791
   87CHL1    C2 8891   4.570   3.478   7.076 -0.1585 -0.2546 -0.0866
   87CHL1   H2A 8892   4.643   3.395   7.063 -0.1291 -0.5796  1.9379
   87CHL1   H2B 8893   4.611   3.576   7.042 -0.2096 -0.7323 -1.5174
   87CHL1   C20 8894   4.272   3.893   7.883  0.4414 -0.0172 -0.1401
   87CHL1   H20 8895   4.270   3.996   7.843 -0.2189 -0.3373 -0.9570
   87CHL1   C21 8896   4.420   3.867   7.918 -0.7095 -0.0591 -0.3652
   87CHL1  H21A 8897   4.431   3.925   8.012 -2.2559  1.4405 -1.0775
   87CHL1  H21B 8898   4.493   3.904   7.844 -2.8881  0.5392 -2.2724
   87CHL1  H21C 8899   4.445   3.759   7.927 -1.3299 -0.3856 -2.2652
   87CHL1   C22 8900   4.180   3.901   8.005 -0.0032  0.4095 -0.1614
   87CHL1  H22A 8901   4.075   3.916   7.971  0.2684  0.5641 -0.9548
   87CHL1  H22B 8902   4.197   3.800   8.047 -1.9442  0.1135 -0.0845
   87CHL1   C23 8903   4.206   4.024   8.092  0.4050 -0.3484 -0.0067
   87CHL1  H23A 8904   4.309   4.022   8.134  0.2844  1.1344  0.4054
   87CHL1  H23B 8905   4.171   4.114   8.037  0.3536 -0.6355 -0.4410
   87CHL1   C24 8906   4.113   4.015   8.219  0.0581  0.2816  0.4215
   87CHL1  H24A 8907   4.012   3.994   8.178  0.5975  1.3267 -1.4591
   87CHL1  H24B 8908   4.149   3.926   8.276 -1.1238 -0.7395 -0.4146
   87CHL1   C25 8909   4.116   4.137   8.303  0.4876 -0.3215 -0.3088
   87CHL1   H25 8910   4.121   4.217   8.226 -0.6382 -2.2581 -2.4628
   87CHL1   C26 8911   3.996   4.137   8.405  0.4886  0.2336  0.3344
   87CHL1  H26A 8912   3.981   4.230   8.464 -0.5523  0.9073 -0.9766
   87CHL1  H26B 8913   3.902   4.107   8.355  0.9751 -0.0289 -0.4208
   87CHL1  H26C 8914   4.018   4.062   8.483  1.1203  0.0502 -0.0180
   87CHL1   C27 8915   4.250   4.144   8.383 -0.8303  0.8929  0.2474
   87CHL1  H27A 8916   4.258   4.238   8.441  0.9109  0.0509  1.3866
   87CHL1  H27B 8917   4.241   4.060   8.456  0.6965  1.0556  0.6367
   87CHL1  H27C 8918   4.342   4.126   8.324 -1.7204  0.9975 -1.2102
   88CHL1    C3 8919   1.483   1.575   6.960 -0.5410 -0.3578  0.4025
   88CHL1    H3 8920   1.587   1.546   6.989 -0.2128 -0.3489 -0.7509
   88CHL1    O3 8921   1.486   1.580   6.816 -0.5095  0.6197 -0.0607
   88CHL1   H3' 8922   1.393   1.588   6.793 -0.2866  0.2596 -1.1220
   88CHL1    C4 8923   1.369   1.486   7.006  0.5430 -0.1455  0.1564
   88CHL1   H4A 8924   1.274   1.518   6.959  0.9680 -1.1615 -1.4307
   88CHL1   H4B 8925   1.372   1.380   6.971  1.1058  0.2734 -1.1115
   88CHL1    C5 8926   1.351   1.499   7.155 -0.1760 -1.0270  0.3741
   88CHL1    C6 8927   1.375   1.392   7.229 -0.4659 -0.0769  0.1762
   88CHL1    H6 8928   1.399   1.292   7.189 -0.6891  0.5992 -1.6599
   88CHL1    C7 8929   1.364   1.400   7.377  0.1285  0.0218  0.7396
   88CHL1   H7A 8930   1.320   1.308   7.419  0.5931 -0.6418 -0.2134
   88CHL1   H7B 8931   1.462   1.420   7.425 -0.5349  1.4574  1.5360
   88CHL1    C8 8932   1.290   1.518   7.431 -0.2927  0.1950  0.4014
   88CHL1    H8 8933   1.185   1.493   7.406  1.4007 -4.9177 -2.2817
   88CHL1   C14 8934   1.317   1.538   7.578 -0.8611  0.0602  0.0267
   88CHL1   H14 8935   1.423   1.572   7.577 -0.5421 -0.9124  0.1193
   88CHL1   C15 8936   1.324   1.419   7.667  0.4899 -0.7215  0.2759
   88CHL1  H15A 8937   1.236   1.354   7.650 -0.2581  0.0457  1.1593
   88CHL1  H15B 8938   1.414   1.353   7.658  0.7214 -0.2201 -1.1641
   88CHL1   C16 8939   1.317   1.477   7.815  0.1768  0.3497  0.9997
   88CHL1  H16A 8940   1.224   1.435   7.858 -1.2550  0.7762 -1.5907
   88CHL1  H16B 8941   1.404   1.452   7.880 -0.0384  1.1760  1.6085
   88CHL1   C17 8942   1.294   1.629   7.794 -0.0410  0.3104 -0.4286
   88CHL1   H17 8943   1.391   1.683   7.797 -0.2122  0.6165 -0.3649
   88CHL1   C13 8944   1.243   1.647   7.649  0.5580 -0.2324 -0.0020
   88CHL1   C18 8945   1.089   1.613   7.641 -0.6034  0.1488  0.0122
   88CHL1  H18A 8946   1.059   1.585   7.537  1.8023  2.3235 -1.3219
   88CHL1  H18B 8947   1.068   1.527   7.708 -0.3214  0.7444  0.8713
   88CHL1  H18C 8948   1.020   1.695   7.671  0.1471  0.9018 -0.3085
   88CHL1   C12 8949   1.269   1.783   7.582 -0.0870 -0.2409 -0.7735
   88CHL1  H12A 8950   1.180   1.844   7.608 -0.3412 -0.7324 -0.4718
   88CHL1  H12B 8951   1.368   1.822   7.614 -0.4994  0.6498 -0.5871
   88CHL1   C11 8952   1.250   1.767   7.432  0.1586 -0.6686 -0.8585
   88CHL1  H11A 8953   1.142   1.752   7.415 -0.6766  0.1534  3.1841
   88CHL1  H11B 8954   1.277   1.864   7.384  2.2024 -0.5166  0.5297
   88CHL1    C9 8955   1.329   1.650   7.366 -0.4927  0.4220 -0.1863
   88CHL1    H9 8956   1.437   1.667   7.384 -0.6643  0.9948  0.3196
   88CHL1   C10 8957   1.314   1.641   7.208  0.1022 -0.3396 -0.0439
   88CHL1   C19 8958   1.175   1.692   7.165 -0.1402 -0.1149  0.1052
   88CHL1  H19A 8959   1.159   1.676   7.056 -2.0938 -0.1831  0.3749
   88CHL1  H19B 8960   1.090   1.645   7.220 -0.2095  2.4327  2.2542
   88CHL1  H19C 8961   1.160   1.800   7.186 -0.5507  0.1216 -1.3423
   88CHL1    C1 8962   1.424   1.747   7.152 -0.4904 -0.6716  0.2992
   88CHL1   H1A 8963   1.383   1.846   7.179 -0.0833 -0.6980  1.0372
   88CHL1   H1B 8964   1.516   1.731   7.213 -1.0906 -0.9907  1.1371
   88CHL1    C2 8965   1.456   1.724   7.002 -0.2878  0.5198  0.6223
   88CHL1   H2A 8966   1.537   1.791   6.966  0.5421  1.0503  3.3369
   88CHL1   H2B 8967   1.364   1.749   6.945  2.2401  0.6654 -3.5651
   88CHL1   C20 8968   1.213   1.698   7.911  0.2206  0.2597 -0.1887
   88CHL1   H20 8969   1.105   1.684   7.889 -0.0698  1.3102  0.5188
   88CHL1   C21 8970   1.242   1.846   7.918 -0.0409 -0.1310 -0.1188
   88CHL1  H21A 8971   1.232   1.889   7.815  0.7324  1.9453  0.6484
   88CHL1  H21B 8972   1.344   1.872   7.953 -0.3327  1.8170 -0.6597
   88CHL1  H21C 8973   1.175   1.900   7.989  0.0596 -1.2170  0.8096
   88CHL1   C22 8974   1.237   1.647   8.056 -0.0823  0.3391  0.1080
   88CHL1  H22A 8975   1.241   1.536   8.064 -0.0497  0.4717  2.2790
   88CHL1  H22B 8976   1.335   1.691   8.085  0.3503 -0.5252 -0.0159
   88CHL1   C23 8977   1.139   1.702   8.164  0.2573 -0.0091  0.4109
   88CHL1  H23A 8978   1.174   1.804   8.193  0.0796  0.0985  0.2514
   88CHL1  H23B 8979   1.035   1.701   8.123  0.1817  1.9645  0.4762
   88CHL1   C24 8980   1.137   1.628   8.301  0.0088 -0.5461  0.1523
   88CHL1  H24A 8981   1.105   1.523   8.288 -0.5512 -0.4532  0.7392
   88CHL1  H24B 8982   1.242   1.617   8.335 -0.2846  1.1127  1.6741
   88CHL1   C25 8983   1.058   1.701   8.417  0.5741 -0.0566  0.9238
   88CHL1   H25 8984   1.067   1.635   8.505 -0.9459  0.1739  1.2809
   88CHL1   C26 8985   1.103   1.842   8.449 -0.5960  0.3964  0.4056
   88CHL1  H26A 8986   1.089   1.865   8.557  2.0472  1.3256  0.5835
   88CHL1  H26B 8987   1.209   1.853   8.421 -0.9347  0.9155 -0.6990
   88CHL1  H26C 8988   1.040   1.919   8.399 -2.3751  0.0489  2.0126
   88CHL1   C27 8989   0.907   1.703   8.387 -0.4755  0.1606  0.1690
   88CHL1  H27A 8990   0.844   1.750   8.466 -3.0943 -1.2881 -0.9909
   88CHL1  H27B 8991   0.886   1.753   8.289 -1.7484 -0.3825  0.1585
   88CHL1  H27C 8992   0.871   1.602   8.358  0.2943  0.0173 -0.3129
   89CHL1    C3 8993   4.584   5.071   7.090 -0.0688 -0.3838  0.0963
   89CHL1    H3 8994   4.658   5.150   7.116 -0.6861  0.3840 -0.4837
   89CHL1    O3 8995   4.563   5.061   6.951  0.0082 -0.1271  0.3350
   89CHL1   H3' 8996   4.510   5.138   6.932  0.1104 -0.2950 -0.6693
   89CHL1    C4 8997   4.618   4.929   7.134  0.0059 -0.0563 -0.3123
   89CHL1   H4A 8998   4.531   4.864   7.111  0.9809 -1.4879 -0.0096
   89CHL1   H4B 8999   4.710   4.908   7.074  1.0092 -0.8085  1.4615
   89CHL1    C5 9000   4.645   4.921   7.284 -0.4574 -0.1979  0.2081
   89CHL1    C6 9001   4.762   4.879   7.338  0.3833  0.3238 -0.5327
   89CHL1    H6 9002   4.839   4.834   7.275 -0.6240  0.0597 -1.5862
   89CHL1    C7 9003   4.797   4.886   7.484 -0.0987 -0.4354  0.0871
   89CHL1   H7A 9004   4.834   4.790   7.527  0.5945 -0.0505  0.3602
   89CHL1   H7B 9005   4.873   4.962   7.512  0.4150 -0.8147 -0.2665
   89CHL1    C8 9006   4.669   4.912   7.575  0.2103  0.8211 -0.2766
   89CHL1    H8 9007   4.613   4.816   7.580 -1.0789  1.6511  1.2887
   89CHL1   C14 9008   4.708   4.942   7.721  0.0792  0.1504 -0.8396
   89CHL1   H14 9009   4.754   5.043   7.717 -1.0559  0.7526  0.8351
   89CHL1   C15 9010   4.806   4.852   7.795 -0.0121 -0.2698  0.0245
   89CHL1  H15A 9011   4.788   4.743   7.806  5.2546 -1.3197 -0.5341
   89CHL1  H15B 9012   4.912   4.862   7.766  0.5662 -1.7356  1.5636
   89CHL1   C16 9013   4.792   4.901   7.941  0.1868  0.1126  0.4365
   89CHL1  H16A 9014   4.770   4.810   8.001 -0.5170  0.7480  1.1455
   89CHL1  H16B 9015   4.871   4.968   7.979 -0.3227 -1.1527  3.9027
   89CHL1   C17 9016   4.663   4.988   7.946 -0.0646 -1.1438  0.7588
   89CHL1   H17 9017   4.713   5.087   7.948 -0.9924 -0.6717  4.2610
   89CHL1   C13 9018   4.588   4.967   7.810 -0.2340 -0.0632  0.2954
   89CHL1   C18 9019   4.496   4.841   7.824  0.8155  0.6195 -0.1939
   89CHL1  H18A 9020   4.400   4.861   7.877  0.6841 -1.3744  0.3593
   89CHL1  H18B 9021   4.487   4.796   7.723  2.8292  1.6647 -0.8728
   89CHL1  H18C 9022   4.544   4.762   7.887  0.4397  0.3672 -0.2229
   89CHL1   C12 9023   4.506   5.080   7.754 -0.2571 -0.2165  0.3041
   89CHL1  H12A 9024   4.413   5.102   7.809  0.0936  0.8633  0.4670
   89CHL1  H12B 9025   4.569   5.170   7.771 -0.5129  0.0510 -0.1641
   89CHL1   C11 9026   4.459   5.052   7.614 -0.1526 -0.2037 -0.1616
   89CHL1  H11A 9027   4.387   4.968   7.603 -1.1157  0.2348  2.5880
   89CHL1  H11B 9028   4.417   5.145   7.568 -1.2789 -1.2982 -1.4294
   89CHL1    C9 9029   4.574   5.008   7.514 -0.4819 -0.0350 -0.3613
   89CHL1    H9 9030   4.632   5.103   7.511  1.1191 -0.7447  4.0188
   89CHL1   C10 9031   4.533   4.987   7.366  0.7619 -1.1993 -0.3343
   89CHL1   C19 9032   4.412   4.884   7.364 -0.3357  0.6667 -0.0862
   89CHL1  H19A 9033   4.433   4.794   7.426  4.4902  3.1626  2.1823
   89CHL1  H19B 9034   4.323   4.930   7.411 -0.6454 -1.5319  1.5249
   89CHL1  H19C 9035   4.376   4.850   7.264  1.3240  0.4925 -0.6489
   89CHL1    C1 9036   4.464   5.117   7.310 -0.2145  0.2994  0.3617
   89CHL1   H1A 9037   4.366   5.135   7.358 -1.2664 -2.4648 -0.6444
   89CHL1   H1B 9038   4.520   5.207   7.345 -0.2421 -0.0244  1.2500
   89CHL1    C2 9039   4.450   5.120   7.160 -0.0857  0.3235 -0.5177
   89CHL1   H2A 9040   4.433   5.224   7.124  2.5130  1.0122  0.0937
   89CHL1   H2B 9041   4.373   5.047   7.127 -0.5408 -0.2035  1.6033
   89CHL1   C20 9042   4.589   4.973   8.079 -0.1628 -0.2339  0.1725
   89CHL1   H20 9043   4.549   4.869   8.085  2.1344 -1.1791 -0.2021
   89CHL1   C21 9044   4.470   5.066   8.087 -0.4680 -0.1603 -0.4102
   89CHL1  H21A 9045   4.402   5.039   8.004 -0.0046 -0.4034 -0.7153
   89CHL1  H21B 9046   4.495   5.172   8.065 -2.2017  0.5373  0.8327
   89CHL1  H21C 9047   4.410   5.057   8.180 -1.7107  0.4425 -1.1430
   89CHL1   C22 9048   4.679   4.991   8.201  0.0266  0.2495  0.8193
   89CHL1  H22A 9049   4.764   4.920   8.192 -0.8734 -0.6966 -0.4888
   89CHL1  H22B 9050   4.708   5.098   8.209 -1.7288  0.7539  0.5516
   89CHL1   C23 9051   4.612   4.965   8.333 -0.2654  0.0417  0.0200
   89CHL1  H23A 9052   4.530   5.038   8.347 -2.4144 -2.0336 -1.2056
   89CHL1  H23B 9053   4.564   4.865   8.318  0.5053 -0.1459 -1.3078
   89CHL1   C24 9054   4.701   4.953   8.457 -0.0473  0.4080 -0.0530
   89CHL1  H24A 9055   4.791   4.890   8.441 -0.6236 -0.2836 -0.5569
   89CHL1  H24B 9056   4.727   5.056   8.489 -0.6245 -0.1544  2.3505
   89CHL1   C25 9057   4.632   4.884   8.570  0.0972 -0.6216 -0.3232
   89CHL1   H25 9058   4.522   4.879   8.552  0.2070 -0.2203 -1.1257
   89CHL1   C26 9059   4.668   4.735   8.599 -0.3184  0.5895  0.5862
   89CHL1  H26A 9060   4.777   4.719   8.614  0.1005  0.1864 -2.5615
   89CHL1  H26B 9061   4.605   4.700   8.684  1.5094 -0.1069  1.6919
   89CHL1  H26C 9062   4.638   4.669   8.515  1.9657 -1.4683  1.3129
   89CHL1   C27 9063   4.665   4.959   8.704 -0.3531 -1.0307 -0.5161
   89CHL1  H27A 9064   4.608   5.054   8.690 -1.8940 -1.9104 -0.2583
   89CHL1  H27B 9065   4.636   4.912   8.800 -0.7559  0.3384  0.0494
   89CHL1  H27C 9066   4.774   4.984   8.705 -0.6498  0.5901 -2.8269
   90CHL1    C3 9067   4.369   0.192   6.880  0.1229 -0.0224  0.2929
   90CHL1    H3 9068   4.406   0.088   6.895  1.1495  0.1883 -0.6908
   90CHL1    O3 9069   4.355   0.207   6.740  0.3674 -0.2453 -0.0781
   90CHL1   H3' 9070   4.354   0.302   6.728 -2.7643 -0.0565  1.3611
   90CHL1    C4 9071   4.241   0.227   6.944 -0.1510  0.7448  0.6641
   90CHL1   H4A 9072   4.211   0.329   6.913  0.0176  1.3560  2.4365
   90CHL1   H4B 9073   4.156   0.163   6.912 -0.1964  0.3312  1.6032
   90CHL1    C5 9074   4.250   0.232   7.090  0.5219  0.6911  0.2819
   90CHL1    C6 9075   4.164   0.163   7.166  0.4360  0.2048  0.8415
   90CHL1    H6 9076   4.082   0.111   7.115  0.1993  0.0822  1.3485
   90CHL1    C7 9077   4.179   0.160   7.320 -0.1797  0.1934 -0.7512
   90CHL1   H7A 9078   4.079   0.176   7.365  1.0887  1.0927  1.8500
   90CHL1   H7B 9079   4.227   0.066   7.354  0.4387  0.5054 -0.7523
   90CHL1    C8 9080   4.260   0.281   7.380 -0.0913  0.9117 -0.4145
   90CHL1    H8 9081   4.206   0.378   7.379  1.4600  1.7946 -0.8277
   90CHL1   C14 9082   4.291   0.245   7.526  0.5011 -0.2707  0.0423
   90CHL1   H14 9083   4.349   0.150   7.528  1.4405  0.2697 -0.8006
   90CHL1   C15 9084   4.170   0.223   7.621  0.2320 -0.4675 -0.6341
   90CHL1  H15A 9085   4.097   0.306   7.606  1.5036  1.1689  1.7770
   90CHL1  H15B 9086   4.114   0.127   7.619 -0.3241 -0.1286 -2.9908
   90CHL1   C16 9087   4.237   0.241   7.759 -0.2711  0.0492 -0.2661
   90CHL1  H16A 9088   4.172   0.323   7.798 -0.7264 -0.1771 -0.5419
   90CHL1  H16B 9089   4.224   0.152   7.823 -0.3744  0.3084  0.0778
   90CHL1   C17 9090   4.384   0.282   7.741  0.2610 -0.2772 -0.8605
   90CHL1   H17 9091   4.449   0.194   7.720  1.2080 -0.2001  1.6029
   90CHL1   C13 9092   4.378   0.351   7.595 -0.3870 -0.1924 -0.1898
   90CHL1   C18 9093   4.304   0.480   7.615 -0.7629  0.6009 -0.1158
   90CHL1  H18A 9094   4.208   0.466   7.668  0.5962  0.0262  2.3038
   90CHL1  H18B 9095   4.370   0.556   7.663  1.6960 -0.8590 -1.0679
   90CHL1  H18C 9096   4.286   0.520   7.513  0.1575  2.4388  0.4128
   90CHL1   C12 9097   4.507   0.376   7.521  0.0933 -0.2771  0.6647
   90CHL1  H12A 9098   4.560   0.468   7.555 -1.3187  1.0717 -0.6511
   90CHL1  H12B 9099   4.571   0.287   7.538 -1.3239 -1.2371  1.0387
   90CHL1   C11 9100   4.487   0.395   7.372  0.0157 -0.7408 -0.0061
   90CHL1  H11A 9101   4.425   0.488   7.372 -1.0982 -1.4647 -0.7544
   90CHL1  H11B 9102   4.586   0.414   7.327 -0.2135  0.5066 -0.0184
   90CHL1    C9 9103   4.393   0.285   7.304 -0.2382 -0.2091  0.0030
   90CHL1    H9 9104   4.448   0.189   7.311 -0.1283 -0.2421 -1.2044
   90CHL1   C10 9105   4.366   0.312   7.153 -0.4035  1.3283 -0.1035
   90CHL1   C19 9106   4.337   0.460   7.134 -0.3215 -0.2795 -0.1556
   90CHL1  H19A 9107   4.294   0.483   7.034  0.8000 -1.2231 -0.8659
   90CHL1  H19B 9108   4.271   0.497   7.216  1.0825  1.2117  0.3435
   90CHL1  H19C 9109   4.428   0.525   7.135 -1.0951  0.8353 -0.9783
   90CHL1    C1 9110   4.501   0.271   7.088 -0.4385  0.0535  0.5778
   90CHL1   H1A 9111   4.596   0.325   7.113  0.8609 -1.5305 -0.8015
   90CHL1   H1B 9112   4.527   0.164   7.103  1.3304 -0.2072 -3.5831
   90CHL1    C2 9113   4.488   0.277   6.934  0.1180  0.0746  0.5120
   90CHL1   H2A 9114   4.586   0.237   6.900 -0.4288 -3.2052  2.5992
   90CHL1   H2B 9115   4.487   0.382   6.896  3.3020  0.6994  1.9604
   90CHL1   C20 9116   4.444   0.365   7.861 -0.6267  0.0962 -0.2580
   90CHL1   H20 9117   4.388   0.461   7.858 -0.6437  0.0569 -1.2026
   90CHL1   C21 9118   4.600   0.393   7.844  0.3226 -0.1175 -0.0771
   90CHL1  H21A 9119   4.615   0.468   7.763  0.1323 -1.1766 -1.1060
   90CHL1  H21B 9120   4.648   0.295   7.824  1.1470  0.4442 -0.8768
   90CHL1  H21C 9121   4.634   0.446   7.936  1.1582 -2.1284  0.7982
   90CHL1   C22 9122   4.414   0.291   7.995 -0.3124  0.1929 -0.1735
   90CHL1  H22A 9123   4.308   0.301   8.026  0.3833  0.4149  2.2468
   90CHL1  H22B 9124   4.439   0.185   7.976  0.4604  0.3719 -0.2049
   90CHL1   C23 9125   4.489   0.356   8.112 -0.3602  0.2184  0.1454
   90CHL1  H23A 9126   4.600   0.345   8.108 -0.4852 -0.5994 -1.6249
   90CHL1  H23B 9127   4.463   0.463   8.125 -2.8607 -0.3911  0.2990
   90CHL1   C24 9128   4.454   0.276   8.240 -0.1959 -0.3161  0.3689
   90CHL1  H24A 9129   4.350   0.236   8.244 -1.3320  2.7088  2.4278
   90CHL1  H24B 9130   4.526   0.191   8.239 -0.3159 -0.4224  0.8534
   90CHL1   C25 9131   4.493   0.367   8.366 -0.2239 -0.5893  0.2598
   90CHL1   H25 9132   4.430   0.458   8.366  1.0804  0.3323 -1.4434
   90CHL1   C26 9133   4.459   0.299   8.500  0.2840 -0.6468  0.0214
   90CHL1  H26A 9134   4.522   0.208   8.500  0.8168 -0.3023 -2.1644
   90CHL1  H26B 9135   4.485   0.363   8.587  1.1785 -0.5045 -0.3454
   90CHL1  H26C 9136   4.354   0.265   8.486  0.0418  0.8503 -1.9851
   90CHL1   C27 9137   4.644   0.414   8.369  0.3162  0.3446  0.5073
   90CHL1  H27A 9138   4.679   0.470   8.279  0.0646  0.4911  0.4999
   90CHL1  H27B 9139   4.675   0.483   8.450  1.8605  1.3378 -0.8857
   90CHL1  H27C 9140   4.716   0.331   8.385 -0.5054 -1.2309 -3.3997
   91CHL1    C3 9141   6.037   1.224   7.216  0.6313  0.9711  0.5773
   91CHL1    H3 9142   5.960   1.144   7.219  2.9082 -1.2668  1.0805
   91CHL1    O3 9143   6.096   1.242   7.092 -0.1030 -0.1755 -0.2813
   91CHL1   H3' 9144   6.035   1.296   7.041 -0.0978  0.0820 -0.0123
   91CHL1    C4 9145   5.972   1.354   7.269 -0.0799 -0.1885  0.4984
   91CHL1   H4A 9146   6.046   1.436   7.256  1.3442 -1.2920  1.4295
   91CHL1   H4B 9147   5.891   1.370   7.196  0.6456  0.6369 -0.1289
   91CHL1    C5 9148   5.929   1.334   7.409  0.9231 -0.0304 -0.4746
   91CHL1    C6 9149   5.808   1.366   7.448  0.6920  0.4036 -0.0626
   91CHL1    H6 9150   5.730   1.399   7.378 -0.3924  0.3717  1.1184
   91CHL1    C7 9151   5.763   1.358   7.590 -0.5818 -0.0410  0.2201
   91CHL1   H7A 9152   5.710   1.452   7.614  0.5864  0.6039  0.3373
   91CHL1   H7B 9153   5.693   1.272   7.595 -0.3036 -0.3948 -1.6384
   91CHL1    C8 9154   5.875   1.336   7.697 -0.5794 -0.0862 -0.2823
   91CHL1    H8 9155   5.918   1.438   7.712 -3.2916  1.1229 -0.2854
   91CHL1   C14 9156   5.816   1.288   7.831 -0.0971  0.1822 -0.3127
   91CHL1   H14 9157   5.775   1.187   7.812  0.9924 -0.1381 -0.9767
   91CHL1   C15 9158   5.707   1.373   7.898 -0.1238  0.6067 -1.2885
   91CHL1  H15A 9159   5.737   1.480   7.891 -2.2563  1.1423 -2.7422
   91CHL1  H15B 9160   5.607   1.354   7.853 -2.0815  0.3300  2.8649
   91CHL1   C16 9161   5.703   1.315   8.048 -0.0153  0.4898  0.9827
   91CHL1  H16A 9162   5.714   1.409   8.106 -0.1551  1.7766 -1.0046
   91CHL1  H16B 9163   5.603   1.268   8.059 -0.3590  1.2408  1.0968
   91CHL1   C17 9164   5.831   1.228   8.058  0.1364  0.1572 -0.1730
   91CHL1   H17 9165   5.805   1.124   8.029  0.7113 -0.0787  0.1358
   91CHL1   C13 9166   5.921   1.271   7.940 -0.8830 -0.4498 -0.2303
   91CHL1   C18 9167   5.998   1.404   7.964  0.2735 -0.4169  0.4586
   91CHL1  H18A 9168   5.937   1.490   7.997 -2.5956 -2.7930  1.5812
   91CHL1  H18B 9169   6.071   1.380   8.044 -1.3634 -0.0728  2.0806
   91CHL1  H18C 9170   6.058   1.443   7.879 -1.9515  1.4662 -0.2962
   91CHL1   C12 9171   6.020   1.165   7.892  0.3080 -0.0674  0.1564
   91CHL1  H12A 9172   6.098   1.140   7.966 -0.4303 -0.8198  0.6938
   91CHL1  H12B 9173   5.967   1.069   7.873  2.1488 -0.5159 -3.1158
   91CHL1   C11 9174   6.088   1.202   7.757 -0.9712 -0.9841 -0.1283
   91CHL1  H11A 9175   6.164   1.283   7.758 -1.0716 -0.7971 -3.1863
   91CHL1  H11B 9176   6.147   1.115   7.721  2.6195  1.8620 -1.3989
   91CHL1    C9 9177   5.978   1.239   7.647 -0.3341 -0.6751 -0.0983
   91CHL1    H9 9178   5.924   1.143   7.631 -0.4666 -0.8511  1.3636
   91CHL1   C10 9179   6.031   1.288   7.508  0.0006  0.4150 -0.8950
   91CHL1   C19 9180   6.128   1.410   7.523  0.3795 -0.4088  0.0508
   91CHL1  H19A 9181   6.074   1.495   7.570 -1.0082  0.5086 -3.1012
   91CHL1  H19B 9182   6.214   1.390   7.590  0.6358  2.0583  0.4932
   91CHL1  H19C 9183   6.177   1.454   7.434  0.8724 -0.9962  0.0286
   91CHL1    C1 9184   6.111   1.169   7.446 -0.2986  0.1811  0.0538
   91CHL1   H1A 9185   6.205   1.151   7.501  1.1906 -0.6880 -2.6905
   91CHL1   H1B 9186   6.050   1.076   7.451 -2.2940  1.2699 -2.5803
   91CHL1    C2 9187   6.153   1.195   7.307  0.0340 -0.0371  0.0177
   91CHL1   H2A 9188   6.214   1.111   7.268 -1.4454 -1.5322  0.8620
   91CHL1   H2B 9189   6.225   1.279   7.291  0.7275 -0.4156  1.1016
   91CHL1   C20 9190   5.887   1.225   8.207 -0.4660  0.0230  0.5956
   91CHL1   H20 9191   5.922   1.326   8.236  2.1360 -0.3492 -1.0969
   91CHL1   C21 9192   6.016   1.140   8.207 -0.3994 -0.2328 -0.1099
   91CHL1  H21A 9193   6.049   1.095   8.303 -0.8349 -0.6645 -0.1640
   91CHL1  H21B 9194   6.101   1.206   8.177 -2.4191  1.7888 -1.4885
   91CHL1  H21C 9195   6.002   1.052   8.140  1.0113 -0.0820 -0.6230
   91CHL1   C22 9196   5.785   1.161   8.301 -0.1890 -0.4177  0.0410
   91CHL1  H22A 9197   5.686   1.210   8.288 -1.0074 -1.8887  0.6716
   91CHL1  H22B 9198   5.761   1.055   8.281 -0.3306 -0.8078  2.1814
   91CHL1   C23 9199   5.838   1.164   8.447  0.2999 -0.7228  0.1738
   91CHL1  H23A 9200   5.909   1.080   8.463 -0.0623 -0.5987  2.6679
   91CHL1  H23B 9201   5.892   1.261   8.459 -0.5084 -0.3353  0.7647
   91CHL1   C24 9202   5.731   1.155   8.556 -0.7649 -0.4557 -0.1566
   91CHL1  H24A 9203   5.673   1.248   8.570  0.7688  0.6069 -0.7737
   91CHL1  H24B 9204   5.666   1.068   8.531  0.3134 -1.1693 -0.5007
   91CHL1   C25 9205   5.791   1.135   8.696  0.0722  0.7625 -0.2884
   91CHL1   H25 9206   5.879   1.067   8.692  0.4238  1.2962 -2.6053
   91CHL1   C26 9207   5.852   1.267   8.748  0.2188  0.7472  0.0683
   91CHL1  H26A 9208   5.784   1.355   8.751 -0.8429 -0.0101 -1.1058
   91CHL1  H26B 9209   5.882   1.245   8.852  2.3221 -0.9997 -0.8675
   91CHL1  H26C 9210   5.943   1.293   8.689 -1.1527  0.0666 -2.4182
   91CHL1   C27 9211   5.696   1.081   8.802 -0.4151  0.2123 -0.5128
   91CHL1  H27A 9212   5.602   1.139   8.816  0.7131  2.4594 -1.8521
   91CHL1  H27B 9213   5.661   0.976   8.794  1.7313 -0.4709 -1.2648
   91CHL1  H27C 9214   5.740   1.090   8.903  0.4270  1.9229 -1.0117
   92CHL1    C3 9215   2.505   2.488   6.688 -0.1028 -0.2702 -0.3455
   92CHL1    H3 9216   2.511   2.591   6.728 -0.8764  0.5237 -2.2083
   92CHL1    O3 9217   2.545   2.500   6.552 -0.4139  0.2512 -0.7378
   92CHL1   H3' 9218   2.559   2.410   6.521 -0.1754 -0.1159  0.3981
   92CHL1    C4 9219   2.600   2.390   6.762  0.6744  0.1474 -0.1231
   92CHL1   H4A 9220   2.592   2.287   6.721  2.5765  0.8875 -2.4999
   92CHL1   H4B 9221   2.706   2.410   6.735  1.0249 -2.1188 -0.5465
   92CHL1    C5 9222   2.566   2.389   6.908  0.0493 -0.5585  0.2889
   92CHL1    C6 9223   2.650   2.424   7.003  0.0212 -0.0010  0.5540
   92CHL1    H6 9224   2.755   2.447   6.980  0.9089 -0.9202  3.4425
   92CHL1    C7 9225   2.624   2.415   7.150 -0.1802 -0.3377  0.3911
   92CHL1   H7A 9226   2.703   2.365   7.209 -0.9262 -1.3508  0.5399
   92CHL1   H7B 9227   2.621   2.521   7.185  1.4465 -0.4084  0.7792
   92CHL1    C8 9228   2.490   2.342   7.179 -0.2931  0.0119 -0.1900
   92CHL1    H8 9229   2.511   2.233   7.167 -0.5283 -0.1144  0.5144
   92CHL1   C14 9230   2.433   2.369   7.321 -0.0277  0.3109 -0.2384
   92CHL1   H14 9231   2.404   2.476   7.326  0.1199  0.2813  1.5464
   92CHL1   C15 9232   2.535   2.352   7.436 -0.1635 -0.2113 -0.1275
   92CHL1  H15A 9233   2.585   2.253   7.423 -1.3286 -1.0850  1.7535
   92CHL1  H15B 9234   2.599   2.442   7.449  0.7543 -1.1591  2.3659
   92CHL1   C16 9235   2.444   2.318   7.561 -0.2936  0.0047  0.3144
   92CHL1  H16A 9236   2.472   2.215   7.592  0.6914  0.5312  1.2331
   92CHL1  H16B 9237   2.453   2.396   7.640 -1.3749  2.5077 -1.9595
   92CHL1   C17 9238   2.296   2.315   7.500 -0.5695 -0.2789 -0.0685
   92CHL1   H17 9239   2.260   2.420   7.500  0.9464  0.2716  1.3115
   92CHL1   C13 9240   2.306   2.288   7.354 -0.8559  0.7418 -0.3534
   92CHL1   C18 9241   2.336   2.142   7.328 -0.1696  0.3349 -0.0965
   92CHL1  H18A 9242   2.254   2.079   7.368 -0.0595  0.3702  0.1866
   92CHL1  H18B 9243   2.340   2.112   7.221  2.9890 -0.6288  0.2262
   92CHL1  H18C 9244   2.427   2.112   7.385  0.3606  0.0383 -1.0974
   92CHL1   C12 9245   2.195   2.339   7.264  0.2100  0.0495  0.5126
   92CHL1  H12A 9246   2.098   2.289   7.285 -0.2686  0.2417 -1.1470
   92CHL1  H12B 9247   2.178   2.446   7.287  0.2234  0.3582 -0.8647
   92CHL1   C11 9248   2.232   2.331   7.113 -0.6526  0.0186  0.5908
   92CHL1  H11A 9249   2.214   2.224   7.088 -3.3325  0.6777 -0.4747
   92CHL1  H11B 9250   2.152   2.383   7.058  1.2204  0.2546 -1.9900
   92CHL1    C9 9251   2.379   2.387   7.076 -0.2264 -0.4650  0.3592
   92CHL1    H9 9252   2.371   2.496   7.094 -0.4906 -0.7380  1.9789
   92CHL1   C10 9253   2.420   2.357   6.935 -0.6581  0.1013 -0.0529
   92CHL1   C19 9254   2.402   2.202   6.916  0.4468 -0.4839  0.0356
   92CHL1  H19A 9255   2.429   2.160   6.816 -1.0078 -0.3065 -0.4471
   92CHL1  H19B 9256   2.448   2.134   6.991 -0.8557  0.2369  1.4884
   92CHL1  H19C 9257   2.294   2.180   6.911  0.2014  0.6510  0.2836
   92CHL1    C1 9258   2.325   2.436   6.841 -0.2060  0.2544  0.1191
   92CHL1   H1A 9259   2.221   2.399   6.852  0.4789 -1.6306  0.3663
   92CHL1   H1B 9260   2.322   2.542   6.875 -0.4514 -0.0719  1.1352
   92CHL1    C2 9261   2.365   2.433   6.696  0.1018  0.0508  0.5654
   92CHL1   H2A 9262   2.291   2.482   6.629  0.5805  0.4061  0.2912
   92CHL1   H2B 9263   2.376   2.328   6.661  0.0149 -0.8911  3.2749
   92CHL1   C20 9264   2.195   2.236   7.588  0.5204  0.1745 -0.3244
   92CHL1   H20 9265   2.190   2.128   7.564  0.2732 -0.8925  4.1764
   92CHL1   C21 9266   2.048   2.281   7.551  0.1671 -0.7409  0.2430
   92CHL1  H21A 9267   1.977   2.242   7.627 -0.7519  0.8505  0.2243
   92CHL1  H21B 9268   2.016   2.238   7.454  0.1841  1.2845 -0.6871
   92CHL1  H21C 9269   2.036   2.392   7.554  0.3367 -0.7426  1.1568
   92CHL1   C22 9270   2.216   2.241   7.743 -0.1670 -0.2097  0.2149
   92CHL1  H22A 9271   2.151   2.164   7.789 -0.8074 -0.4298 -1.0429
   92CHL1  H22B 9272   2.322   2.212   7.760 -0.1585 -0.3042 -0.0079
   92CHL1   C23 9273   2.191   2.376   7.813  0.4625  0.0293 -0.1982
   92CHL1  H23A 9274   2.254   2.453   7.764  1.0548 -1.5877 -2.0395
   92CHL1  H23B 9275   2.091   2.415   7.782  0.9033  2.0112  0.7872
   92CHL1   C24 9276   2.206   2.369   7.965  0.3665 -0.6300  0.3064
   92CHL1  H24A 9277   2.197   2.475   7.996  2.1000 -0.1537 -0.7589
   92CHL1  H24B 9278   2.123   2.309   8.008 -0.5841  1.1620  1.0268
   92CHL1   C25 9279   2.329   2.303   8.014  1.1389  0.1604  0.4740
   92CHL1   H25 9280   2.335   2.199   7.976  0.3069  0.7521 -1.2998
   92CHL1   C26 9281   2.461   2.362   7.977 -0.6883 -0.3366 -0.0632
   92CHL1  H26A 9282   2.549   2.295   7.989 -1.5233 -1.1459  1.7412
   92CHL1  H26B 9283   2.462   2.391   7.870 -0.2909  0.1036  0.0594
   92CHL1  H26C 9284   2.480   2.446   8.047  3.6338 -0.3599 -1.0685
   92CHL1   C27 9285   2.321   2.268   8.169  0.3328 -0.1048 -0.9959
   92CHL1  H27A 9286   2.425   2.236   8.193  0.4037  1.6309  1.1202
   92CHL1  H27B 9287   2.304   2.355   8.235 -0.2105 -0.0443 -1.2140
   92CHL1  H27C 9288   2.247   2.190   8.197  1.0353 -0.4106  0.0193
   93CHL1    C3 9289   0.535   0.290   6.938 -0.1634  0.1431 -0.1761
   93CHL1    H3 9290   0.541   0.179   6.944  1.1908  0.1183 -1.5297
   93CHL1    O3 9291   0.521   0.316   6.797 -0.0740  0.1317 -0.1002
   93CHL1   H3' 9292   0.610   0.303   6.764 -0.0993 -1.6000  0.4583
   93CHL1    C4 9293   0.411   0.342   7.012  0.2809  0.5336  0.0424
   93CHL1   H4A 9294   0.408   0.450   6.989  0.9120  0.8975  1.6152
   93CHL1   H4B 9295   0.322   0.291   6.970 -0.1052 -0.5472  2.0662
   93CHL1    C5 9296   0.425   0.325   7.163 -0.7725  0.1321  0.3761
   93CHL1    C6 9297   0.335   0.256   7.233 -0.0168 -0.7542  0.2388
   93CHL1    H6 9298   0.242   0.221   7.185 -0.0153  0.6547 -0.8272
   93CHL1    C7 9299   0.333   0.246   7.385  0.4323  1.0071  0.4071
   93CHL1   H7A 9300   0.233   0.266   7.427 -0.3961 -0.2761 -0.8993
   93CHL1   H7B 9301   0.354   0.143   7.421 -1.2214 -0.1390 -1.7971
   93CHL1    C8 9302   0.434   0.337   7.455 -0.5453  0.2714 -0.8289
   93CHL1    H8 9303   0.384   0.435   7.444 -1.3855 -0.0596  0.0192
   93CHL1   C14 9304   0.457   0.302   7.603  1.1322  0.3070 -0.7907
   93CHL1   H14 9305   0.515   0.208   7.604 -0.3352 -0.6095 -0.0842
   93CHL1   C15 9306   0.334   0.264   7.693 -0.2787  0.2708  0.2601
   93CHL1  H15A 9307   0.238   0.317   7.675 -0.4225 -0.5090 -1.3276
   93CHL1  H15B 9308   0.316   0.157   7.670  0.4015  0.5579 -1.7318
   93CHL1   C16 9309   0.373   0.291   7.841 -0.0360 -0.2595  0.1472
   93CHL1  H16A 9310   0.327   0.387   7.873  4.2618  1.6900  0.8333
   93CHL1  H16B 9311   0.340   0.205   7.903 -2.0403 -0.8464 -1.6482
   93CHL1   C17 9312   0.524   0.323   7.838  0.1360 -0.5085 -0.1664
   93CHL1   H17 9313   0.581   0.228   7.838 -0.6910 -1.0332  1.4911
   93CHL1   C13 9314   0.547   0.390   7.690  0.1437  0.8245 -1.6464
   93CHL1   C18 9315   0.489   0.534   7.685  0.1742  0.1863  0.5905
   93CHL1  H18A 9316   0.560   0.599   7.741 -0.6219  0.3075  1.4533
   93CHL1  H18B 9317   0.483   0.564   7.578 -1.8424 -0.3241  0.5389
   93CHL1  H18C 9318   0.386   0.540   7.724 -0.4205  2.8091 -1.2693
   93CHL1   C12 9319   0.682   0.379   7.621  0.5673  0.6780  0.2402
   93CHL1  H12A 9320   0.755   0.443   7.674  1.8896  1.2158 -2.1485
   93CHL1  H12B 9321   0.728   0.279   7.639  1.9149  1.0568 -1.0210
   93CHL1   C11 9322   0.678   0.413   7.467  0.4333 -0.2679  0.1238
   93CHL1  H11A 9323   0.658   0.523   7.466 -0.9352 -0.5087 -0.7496
   93CHL1  H11B 9324   0.779   0.378   7.436 -0.7489 -1.2625 -2.7952
   93CHL1    C9 9325   0.567   0.334   7.381  0.8486 -0.1788  0.0469
   93CHL1    H9 9326   0.597   0.227   7.378  0.9505 -0.3047  3.5274
   93CHL1   C10 9327   0.553   0.381   7.231  0.8576  0.2266  0.2646
   93CHL1   C19 9328   0.541   0.536   7.226 -0.3707 -0.4354  0.6459
   93CHL1  H19A 9329   0.529   0.572   7.121 -0.9880  1.1632  1.2441
   93CHL1  H19B 9330   0.458   0.580   7.285  1.0794  0.8896  1.7620
   93CHL1  H19C 9331   0.633   0.587   7.262 -0.8973  0.3433  0.9067
   93CHL1    C1 9332   0.667   0.325   7.144  0.1754 -0.2719 -0.0048
   93CHL1   H1A 9333   0.753   0.363   7.204 -0.7712  0.1189  1.1080
   93CHL1   H1B 9334   0.679   0.215   7.156 -1.7862 -0.4143  0.7601
   93CHL1    C2 9335   0.665   0.351   6.996 -0.2094 -1.1947 -0.3601
   93CHL1   H2A 9336   0.758   0.315   6.947  0.9525  0.6771  0.3957
   93CHL1   H2B 9337   0.667   0.461   6.981  0.4775 -1.5582 -3.3357
   93CHL1   C20 9338   0.556   0.408   7.964  0.4213 -0.1025  0.4047
   93CHL1   H20 9339   0.484   0.493   7.967 -0.6140 -0.9209 -0.7444
   93CHL1   C21 9340   0.700   0.467   7.955  0.6501 -0.0417 -0.2434
   93CHL1  H21A 9341   0.738   0.505   8.053  3.1325  0.5019 -1.3763
   93CHL1  H21B 9342   0.696   0.548   7.879 -0.1625  0.0037 -0.1605
   93CHL1  H21C 9343   0.771   0.386   7.929  0.3960 -0.7631  1.2460
   93CHL1   C22 9344   0.531   0.323   8.091 -0.0040  0.0239 -0.2361
   93CHL1  H22A 9345   0.440   0.259   8.089  1.1976 -1.7136 -0.3568
   93CHL1  H22B 9346   0.620   0.257   8.101 -0.8020 -0.9188  0.7949
   93CHL1   C23 9347   0.517   0.412   8.213  0.1001 -0.0728  0.6880
   93CHL1  H23A 9348   0.602   0.483   8.214 -0.3663  0.5155 -0.0767
   93CHL1  H23B 9349   0.428   0.479   8.207 -0.4386 -0.8467 -0.1397
   93CHL1   C24 9350   0.515   0.326   8.340 -0.4561 -0.3637  0.2849
   93CHL1  H24A 9351   0.414   0.280   8.349 -0.6629 -0.0539 -0.3985
   93CHL1  H24B 9352   0.583   0.239   8.334  1.8722  1.4563 -0.2307
   93CHL1   C25 9353   0.551   0.409   8.468 -0.2874 -0.5329  0.3342
   93CHL1   H25 9354   0.497   0.506   8.463  1.1199  0.2244 -0.5606
   93CHL1   C26 9355   0.512   0.328   8.596 -0.5567 -0.4881  0.6228
   93CHL1  H26A 9356   0.412   0.278   8.595 -0.2506 -1.0985  0.2669
   93CHL1  H26B 9357   0.590   0.252   8.617  0.5163 -0.1711 -2.0269
   93CHL1  H26C 9358   0.503   0.399   8.681  5.5637 -0.4989  1.5013
   93CHL1   C27 9359   0.704   0.433   8.465 -0.2022 -0.5777  0.1724
   93CHL1  H27A 9360   0.769   0.344   8.455  2.8039  1.6264 -0.5649
   93CHL1  H27B 9361   0.742   0.495   8.381  0.1121  0.2809  0.9318
   93CHL1  H27C 9362   0.735   0.491   8.555 -0.6945  3.3013 -2.0312
   94CHL1    C3 9363   2.820   4.035   6.955 -0.0487 -0.0864 -0.1251
   94CHL1    H3 9364   2.720   4.068   6.991 -0.5870  0.5631 -2.1467
   94CHL1    O3 9365   2.844   4.061   6.819  0.3668  0.3820 -0.1909
   94CHL1   H3' 9366   2.862   4.154   6.802 -2.2957  0.9523 -0.0718
   94CHL1    C4 9367   2.924   4.121   7.032  0.0563 -0.4177  1.0157
   94CHL1   H4A 9368   3.026   4.106   6.992  0.2432 -0.0904  1.3666
   94CHL1   H4B 9369   2.894   4.225   7.005 -1.2988 -0.6125  1.7039
   94CHL1    C5 9370   2.915   4.096   7.179 -0.9004  0.4750 -0.1866
   94CHL1    C6 9371   2.921   4.196   7.271  0.9244 -0.9282 -0.0532
   94CHL1    H6 9372   2.940   4.300   7.242 -4.0652  0.9162  2.6060
   94CHL1    C7 9373   2.924   4.185   7.422  0.3138 -0.1645  0.9674
   94CHL1   H7A 9374   3.025   4.224   7.448  1.6346 -0.6689 -2.9574
   94CHL1   H7B 9375   2.854   4.249   7.479 -0.4879 -0.4957  0.3590
   94CHL1    C8 9376   2.920   4.042   7.472 -0.6830  0.5595 -0.5203
   94CHL1    H8 9377   3.025   4.007   7.482 -1.2122 -1.3569 -1.4406
   94CHL1   C14 9378   2.863   4.032   7.612 -0.1666 -0.0813  0.7178
   94CHL1   H14 9379   2.758   4.069   7.617 -0.3259 -0.4702  0.2673
   94CHL1   C15 9380   2.925   4.120   7.727 -0.5684 -0.4901  0.2636
   94CHL1  H15A 9381   3.033   4.099   7.734  0.3723  3.6163 -0.4921
   94CHL1  H15B 9382   2.911   4.230   7.712  2.0004 -0.0750  0.8131
   94CHL1   C16 9383   2.856   4.058   7.848 -0.2254 -0.2757 -1.0269
   94CHL1  H16A 9384   2.924   4.049   7.935 -0.6141 -0.2257 -0.7189
   94CHL1  H16B 9385   2.787   4.140   7.878  2.0783  1.2786  0.2219
   94CHL1   C17 9386   2.785   3.926   7.804  0.1728  0.6499 -0.1575
   94CHL1   H17 9387   2.680   3.956   7.781 -0.9866 -1.7438  1.7392
   94CHL1   C13 9388   2.844   3.891   7.667 -0.7931 -0.4205 -0.5856
   94CHL1   C18 9389   2.979   3.829   7.696 -1.3161  0.4191  0.0365
   94CHL1  H18A 9390   3.042   3.828   7.605 -2.7202  1.1781 -0.9671
   94CHL1  H18B 9391   3.029   3.887   7.777 -1.9452 -2.0090  2.2165
   94CHL1  H18C 9392   2.964   3.727   7.736  3.1006 -1.3886 -2.5893
   94CHL1   C12 9393   2.766   3.801   7.565  0.0349  1.0661 -0.3369
   94CHL1  H12A 9394   2.762   3.692   7.584 -0.7453  1.1401 -0.0509
   94CHL1  H12B 9395   2.660   3.832   7.553 -0.1577  0.1871 -0.8914
   94CHL1   C11 9396   2.827   3.803   7.426 -0.2350  0.7544  0.3840
   94CHL1  H11A 9397   2.924   3.749   7.432 -0.0385  0.8239 -1.8366
   94CHL1  H11B 9398   2.751   3.758   7.360 -0.5138  3.7223 -1.3927
   94CHL1    C9 9399   2.850   3.946   7.374  0.0068  0.0092  0.0435
   94CHL1    H9 9400   2.746   3.986   7.372  0.4555  1.1573 -2.0589
   94CHL1   C10 9401   2.894   3.953   7.223 -0.1578  0.1706  0.8337
   94CHL1   C19 9402   3.032   3.892   7.211 -0.4169 -0.0713 -0.0706
   94CHL1  H19A 9403   3.024   3.782   7.227  1.2218 -0.2169 -0.1234
   94CHL1  H19B 9404   3.082   3.909   7.114  1.9565 -1.4617  0.8586
   94CHL1  H19C 9405   3.097   3.919   7.297 -1.7214  0.1001  0.8776
   94CHL1    C1 9406   2.799   3.872   7.130  0.1745  0.1842  0.1396
   94CHL1   H1A 9407   2.809   3.769   7.169  1.0252 -0.4032 -1.5876
   94CHL1   H1B 9408   2.698   3.911   7.155  1.8632  4.0191  1.4470
   94CHL1    C2 9409   2.826   3.884   6.980  0.1459  0.0367  0.3842
   94CHL1   H2A 9410   2.751   3.830   6.919 -1.5882  0.0793  2.4089
   94CHL1   H2B 9411   2.923   3.839   6.953  0.2687  0.8847 -0.6323
   94CHL1   C20 9412   2.763   3.824   7.926 -0.2094  1.1995  0.3401
   94CHL1   H20 9413   2.859   3.791   7.970 -0.5899 -0.9590 -0.3725
   94CHL1   C21 9414   2.689   3.702   7.869  0.1454  0.0923  0.1784
   94CHL1  H21A 9415   2.760   3.631   7.821  2.0095  2.9080 -1.3976
   94CHL1  H21B 9416   2.609   3.725   7.795  0.6363  1.0281 -0.0748
   94CHL1  H21C 9417   2.633   3.655   7.952  0.1369 -1.2972 -0.5952
   94CHL1   C22 9418   2.685   3.899   8.037  0.2531 -0.5122 -0.3945
   94CHL1  H22A 9419   2.699   4.008   8.021 -1.3855 -0.7441 -3.7675
   94CHL1  H22B 9420   2.577   3.883   8.021  0.2007 -1.5459  0.8755
   94CHL1   C23 9421   2.746   3.888   8.190 -0.1733 -0.1954  0.1233
   94CHL1  H23A 9422   2.853   3.918   8.180  0.5858 -2.6825  0.2624
   94CHL1  H23B 9423   2.687   3.963   8.246 -1.5977 -0.9940 -0.2900
   94CHL1   C24 9424   2.718   3.755   8.254  0.0295 -0.9765  0.4095
   94CHL1  H24A 9425   2.611   3.728   8.239  0.4204 -2.6949  0.5944
   94CHL1  H24B 9426   2.784   3.687   8.196  1.3318  0.6666 -0.0808
   94CHL1   C25 9427   2.759   3.756   8.408  0.2617 -0.5366 -0.1825
   94CHL1   H25 9428   2.861   3.800   8.405 -0.3622  1.0622  1.4421
   94CHL1   C26 9429   2.673   3.851   8.498 -1.4060  0.2739 -1.3017
   94CHL1  H26A 9430   2.707   3.954   8.477 -3.3984  0.8502 -1.7711
   94CHL1  H26B 9431   2.564   3.839   8.481 -1.2391 -1.5911 -1.1597
   94CHL1  H26C 9432   2.690   3.819   8.603 -0.5191 -0.5988 -1.6967
   94CHL1   C27 9433   2.768   3.614   8.464 -0.3730 -0.4646  0.0949
   94CHL1  H27A 9434   2.838   3.545   8.412 -0.1982  0.0130 -0.3118
   94CHL1  H27B 9435   2.812   3.627   8.566 -0.8508 -1.7845  0.4843
   94CHL1  H27C 9436   2.666   3.571   8.477 -0.9711  0.3521 -1.7650
   95CHL1    C3 9437   2.841   2.132   6.613  0.2344 -0.3933  0.5081
   95CHL1    H3 9438   2.804   2.232   6.644 -2.1918 -1.1165  0.0370
   95CHL1    O3 9439   2.833   2.134   6.472  0.0580  0.0562  0.4231
   95CHL1   H3' 9440   2.889   2.060   6.447  0.4860  0.4013  0.3488
   95CHL1    C4 9441   2.977   2.113   6.667 -1.0863  0.2707  0.0038
   95CHL1   H4A 9442   3.038   2.026   6.636 -1.5512  0.1499 -0.5708
   95CHL1   H4B 9443   3.031   2.207   6.643 -0.5395  0.0453  0.3281
   95CHL1    C5 9444   2.982   2.116   6.817  0.2481  0.0497 -0.9473
   95CHL1    C6 9445   3.045   2.210   6.884 -0.8500  0.3797  0.0641
   95CHL1    H6 9446   3.109   2.281   6.829  0.9110 -2.1117 -1.2321
   95CHL1    C7 9447   3.050   2.234   7.035 -0.1163 -0.0018  0.2783
   95CHL1   H7A 9448   3.153   2.252   7.072  0.9829  1.5575 -3.2726
   95CHL1   H7B 9449   2.988   2.316   7.076  1.2911 -0.1257  2.7310
   95CHL1    C8 9450   3.011   2.103   7.104 -0.6914  0.3080  0.4599
   95CHL1    H8 9451   3.089   2.024   7.097 -0.8259 -0.0650  2.5921
   95CHL1   C14 9452   3.003   2.119   7.259 -0.3627 -0.2693 -0.8034
   95CHL1   H14 9453   2.928   2.200   7.267  1.1454  1.2830 -1.9958
   95CHL1   C15 9454   3.119   2.182   7.330 -0.2543 -0.5742 -0.5927
   95CHL1  H15A 9455   3.217   2.138   7.302 -0.0248 -0.0684 -0.5974
   95CHL1  H15B 9456   3.105   2.292   7.321 -0.2142 -0.7361 -2.7534
   95CHL1   C16 9457   3.094   2.139   7.480  0.0520  0.7255 -0.6404
   95CHL1  H16A 9458   3.187   2.092   7.519  0.0586  0.5970 -0.8082
   95CHL1  H16B 9459   3.075   2.227   7.545  0.2761  0.3973 -0.1280
   95CHL1   C17 9460   2.969   2.047   7.485 -0.3410  0.5686 -0.1451
   95CHL1   H17 9461   2.875   2.104   7.500  0.0290  0.6810  1.9729
   95CHL1   C13 9462   2.950   2.001   7.339 -0.5553 -0.1900  0.1435
   95CHL1   C18 9463   3.047   1.886   7.314  0.2458  0.9513 -0.6577
   95CHL1  H18A 9464   3.154   1.908   7.336  0.0985  0.7562  0.2443
   95CHL1  H18B 9465   3.021   1.796   7.373  0.8949  2.2325  1.6518
   95CHL1  H18C 9466   3.045   1.849   7.209 -0.8294 -3.1709  0.7387
   95CHL1   C12 9467   2.807   1.976   7.284 -0.5120 -0.0250 -0.0554
   95CHL1  H12A 9468   2.779   1.878   7.329 -0.8389  0.7516  1.4636
   95CHL1  H12B 9469   2.726   2.045   7.316 -0.8788 -0.8433  0.8157
   95CHL1   C11 9470   2.796   1.945   7.135  0.5532  0.7627  0.6188
   95CHL1  H11A 9471   2.841   1.844   7.122  1.7817  1.5065 -1.0669
   95CHL1  H11B 9472   2.688   1.937   7.110  0.9343  0.8633 -1.0728
   95CHL1    C9 9473   2.877   2.050   7.048  0.0339 -0.4357  0.3848
   95CHL1    H9 9474   2.806   2.134   7.061 -2.4348 -2.3890 -0.0251
   95CHL1   C10 9475   2.890   2.021   6.895  0.1430  0.2817 -1.4787
   95CHL1   C19 9476   2.941   1.884   6.875 -0.0668 -0.4579 -0.0089
   95CHL1  H19A 9477   2.860   1.813   6.902  0.7016 -1.0148  0.8675
   95CHL1  H19B 9478   2.948   1.868   6.766  0.5872  0.8108 -0.1627
   95CHL1  H19C 9479   3.027   1.855   6.939 -1.1431 -2.0515  0.7287
   95CHL1    C1 9480   2.748   2.031   6.833  0.5977  0.1016 -0.6563
   95CHL1   H1A 9481   2.679   1.949   6.865  1.9737 -0.2268  1.5525
   95CHL1   H1B 9482   2.703   2.127   6.866  3.3267  1.6430 -1.3460
   95CHL1    C2 9483   2.742   2.029   6.677 -0.2127 -0.5225  0.3717
   95CHL1   H2A 9484   2.641   2.043   6.634 -0.6091 -2.1229  0.7541
   95CHL1   H2B 9485   2.767   1.926   6.642  1.6395 -0.0056  0.0931
   95CHL1   C20 9486   2.978   1.937   7.592 -0.5166  0.0178  0.0481
   95CHL1   H20 9487   3.076   1.886   7.580 -0.8309 -1.2876  2.6225
   95CHL1   C21 9488   2.862   1.844   7.588  0.5398 -0.0167 -0.7698
   95CHL1  H21A 9489   2.868   1.767   7.509  1.6689  1.4490 -2.1410
   95CHL1  H21B 9490   2.762   1.892   7.588  1.8311  2.7470 -0.8354
   95CHL1  H21C 9491   2.875   1.786   7.683 -0.2283  1.3835  0.2131
   95CHL1   C22 9492   2.987   2.013   7.728 -0.0805 -0.0511  0.6763
   95CHL1  H22A 9493   3.068   2.089   7.733 -0.2888  0.1357  1.2099
   95CHL1  H22B 9494   2.890   2.061   7.751 -0.8918 -1.9813  1.4184
   95CHL1   C23 9495   3.028   1.919   7.845  0.2219 -0.1854  1.1931
   95CHL1  H23A 9496   2.947   1.846   7.864  0.7706 -0.6740  1.6887
   95CHL1  H23B 9497   3.119   1.861   7.818 -0.4042 -0.4803 -0.3633
   95CHL1   C24 9498   3.049   1.999   7.973 -0.3143 -0.7341 -0.1727
   95CHL1  H24A 9499   3.142   2.059   7.963 -1.1478  0.4195 -1.1098
   95CHL1  H24B 9500   2.959   2.062   7.986 -0.3390 -0.2466 -2.5491
   95CHL1   C25 9501   3.047   1.913   8.103 -0.1597 -0.1428  0.6853
   95CHL1   H25 9502   2.956   1.849   8.091 -0.7771  0.8645 -0.1042
   95CHL1   C26 9503   3.176   1.846   8.121  0.3407 -0.2637 -1.0985
   95CHL1  H26A 9504   3.200   1.783   8.032  1.6820  1.1264 -1.7330
   95CHL1  H26B 9505   3.256   1.922   8.116  0.0638  0.0320 -1.0204
   95CHL1  H26C 9506   3.171   1.788   8.216 -0.2882 -0.0227 -0.9806
   95CHL1   C27 9507   3.029   1.987   8.244 -0.2117  0.3354  0.3734
   95CHL1  H27A 9508   3.125   2.040   8.257 -0.2199 -0.1389  2.6653
   95CHL1  H27B 9509   2.945   2.060   8.241  0.2222  0.7746 -1.7896
   95CHL1  H27C 9510   3.007   1.916   8.327 -0.8399 -0.1724 -0.2187
   96CHL1    C3 9511   2.983   1.385   6.778 -0.0861  0.4808  0.8031
   96CHL1    H3 9512   2.962   1.279   6.749  0.1875  0.3528  1.0661
   96CHL1    O3 9513   3.044   1.442   6.658 -0.0711  0.4592  0.8922
   96CHL1   H3' 9514   3.008   1.531   6.662 -0.1039  0.6603 -2.3069
   96CHL1    C4 9515   2.844   1.441   6.803 -0.2022  0.1040 -0.3638
   96CHL1   H4A 9516   2.851   1.552   6.801 -2.0703  0.2703  0.7668
   96CHL1   H4B 9517   2.778   1.412   6.719 -0.8183  1.6423 -0.4166
   96CHL1    C5 9518   2.775   1.420   6.933 -0.5689 -0.0223  0.3695
   96CHL1    C6 9519   2.650   1.370   6.948 -0.1335 -0.5043  0.4530
   96CHL1    H6 9520   2.589   1.353   6.858 -1.0811  0.1060  0.9766
   96CHL1    C7 9521   2.584   1.336   7.083  0.6817  0.2148  0.2919
   96CHL1   H7A 9522   2.476   1.361   7.092  0.6778 -0.1853  1.4030
   96CHL1   H7B 9523   2.593   1.226   7.096  0.5495 -0.1796 -2.6503
   96CHL1    C8 9524   2.652   1.417   7.196  0.5948  1.2897  1.2309
   96CHL1    H8 9525   2.615   1.520   7.175 -0.7727  0.3128 -1.3658
   96CHL1   C14 9526   2.595   1.376   7.340 -0.6464  0.2064 -0.7775
   96CHL1   H14 9527   2.636   1.273   7.335  1.7773  1.1727 -1.8893
   96CHL1   C15 9528   2.446   1.375   7.371 -0.0147  0.3848 -0.3426
   96CHL1  H15A 9529   2.404   1.467   7.324 -1.0738 -0.2164 -0.5862
   96CHL1  H15B 9530   2.412   1.282   7.322  0.1077  0.6176 -0.8700
   96CHL1   C16 9531   2.434   1.371   7.526 -0.5770 -0.9802 -0.5979
   96CHL1  H16A 9532   2.366   1.453   7.560 -0.5330 -0.2378 -2.2703
   96CHL1  H16B 9533   2.382   1.281   7.566 -0.8873 -0.4304  0.2606
   96CHL1   C17 9534   2.579   1.381   7.578  0.6137  0.5584 -0.2721
   96CHL1   H17 9535   2.626   1.280   7.575 -0.2476  0.0830  1.5216
   96CHL1   C13 9536   2.661   1.443   7.458 -0.0027 -0.7714  0.1185
   96CHL1   C18 9537   2.628   1.595   7.468  0.2826 -0.6307 -0.0819
   96CHL1  H18A 9538   2.662   1.636   7.370  0.0094 -0.5615 -0.1492
   96CHL1  H18B 9539   2.519   1.618   7.470  1.0088  3.0657  1.2778
   96CHL1  H18C 9540   2.686   1.644   7.549 -1.5316  2.5601 -0.6433
   96CHL1   C12 9541   2.808   1.429   7.456  0.1000 -0.4643  0.3752
   96CHL1  H12A 9542   2.849   1.505   7.526  0.2651  0.7367 -0.9943
   96CHL1  H12B 9543   2.839   1.323   7.467 -1.0251 -0.7710  0.6615
   96CHL1   C11 9544   2.881   1.459   7.319 -0.1546  0.5360 -0.3341
   96CHL1  H11A 9545   2.881   1.570   7.312  0.0618  0.6142  0.7679
   96CHL1  H11B 9546   2.988   1.430   7.324 -0.3272 -0.2131 -0.8269
   96CHL1    C9 9547   2.805   1.402   7.194  0.2274 -0.1470 -0.1075
   96CHL1    H9 9548   2.825   1.293   7.206  2.3030  0.5776  3.6590
   96CHL1   C10 9549   2.871   1.440   7.050  0.2162  0.0891 -0.1615
   96CHL1   C19 9550   2.903   1.593   7.051  0.5840  0.3728  0.3681
   96CHL1  H19A 9551   2.801   1.638   7.053 -0.5256 -2.0265 -0.5211
   96CHL1  H19B 9552   2.962   1.638   7.134  0.5665 -1.4017  1.3609
   96CHL1  H19C 9553   2.950   1.622   6.955 -0.1196 -0.1493 -0.1384
   96CHL1    C1 9554   3.005   1.358   7.032 -0.5798  0.4641  0.1989
   96CHL1   H1A 9555   3.081   1.362   7.112  0.3588 -1.8578 -0.5264
   96CHL1   H1B 9556   2.974   1.251   7.032  2.5832 -0.4758  0.4536
   96CHL1    C2 9557   3.074   1.396   6.898  0.3174  0.0960 -0.1752
   96CHL1   H2A 9558   3.164   1.334   6.882 -0.8179 -1.4000 -0.8276
   96CHL1   H2B 9559   3.115   1.499   6.902  0.3448  0.1907 -2.6730
   96CHL1   C20 9560   2.593   1.424   7.723 -0.1571  0.4263 -0.2091
   96CHL1   H20 9561   2.699   1.456   7.730  0.1222 -0.4771 -0.1344
   96CHL1   C21 9562   2.576   1.292   7.814 -0.5988 -0.1461 -0.9958
   96CHL1  H21A 9563   2.675   1.245   7.834 -1.0897  0.5631  3.4919
   96CHL1  H21B 9564   2.500   1.225   7.767 -0.4386 -0.4919 -0.7667
   96CHL1  H21C 9565   2.540   1.328   7.912 -1.5004 -0.1003 -1.3400
   96CHL1   C22 9566   2.506   1.542   7.765 -0.3677  0.6124 -0.2622
   96CHL1  H22A 9567   2.498   1.619   7.686 -3.2594  1.1505  0.5095
   96CHL1  H22B 9568   2.402   1.504   7.771 -0.8149  2.1346  2.2040
   96CHL1   C23 9569   2.535   1.599   7.906  1.0319  0.2930 -0.4751
   96CHL1  H23A 9570   2.483   1.698   7.914 -1.3628 -1.0522  1.3306
   96CHL1  H23B 9571   2.502   1.537   7.992  2.1493  0.6742  0.2236
   96CHL1   C24 9572   2.675   1.646   7.930 -1.0189  0.3065  0.3866
   96CHL1  H24A 9573   2.731   1.551   7.942 -0.3006  0.4847 -1.4181
   96CHL1  H24B 9574   2.726   1.704   7.850  0.1166 -2.4116 -0.9219
   96CHL1   C25 9575   2.704   1.733   8.058 -0.1376 -0.8068 -0.0073
   96CHL1   H25 9576   2.814   1.731   8.069 -0.0705 -0.5238 -0.6146
   96CHL1   C26 9577   2.656   1.879   8.043 -0.3812 -0.1152  0.5350
   96CHL1  H26A 9578   2.674   1.931   8.139 -0.6795 -0.0203  0.5404
   96CHL1  H26B 9579   2.707   1.929   7.958 -1.9777 -0.8492 -0.9063
   96CHL1  H26C 9580   2.546   1.887   8.028 -0.4914 -3.7091 -1.2343
   96CHL1   C27 9581   2.639   1.671   8.181 -0.2747  0.2207  0.0461
   96CHL1  H27A 9582   2.674   1.566   8.195  1.0042  0.6476  0.1298
   96CHL1  H27B 9583   2.648   1.732   8.274 -0.8292 -2.4225  1.9040
   96CHL1  H27C 9584   2.528   1.664   8.180 -0.3642  1.4853  0.6056
   97OSM      N 9585   0.960   3.001  11.345  0.1663 -0.0827  0.2014
   97OSM    C15 9586   1.039   3.039  11.458  0.3800  0.4073 -0.7128
   97OSM   H15A 9587   1.079   2.957  11.516  0.0297  0.3840 -0.5032
   97OSM   H15B 9588   0.980   3.100  11.525 -1.0877 -0.1435 -1.4958
   97OSM   H15C 9589   1.122   3.104  11.434  0.5978  0.4267  0.0962
   97OSM    C14 9590   0.829   2.936  11.392 -0.4135 -0.4187  0.1941
   97OSM   H14A 9591   0.773   3.018  11.433 -0.9153 -0.7522  0.1786
   97OSM   H14B 9592   0.850   2.854  11.460  1.6383  0.0543  0.1706
   97OSM   H14C 9593   0.769   2.906  11.308  0.3246  0.9046 -0.8257
   97OSM    C13 9594   0.936   3.126  11.269 -0.2366  0.3355 -0.0487
   97OSM   H13A 9595   1.019   3.190  11.240  0.1905  0.0910  0.6305
   97OSM   H13B 9596   0.875   3.196  11.324  1.3522  0.5240  1.5092
   97OSM   H13C 9597   0.887   3.108  11.175 -1.3752  0.6714  0.4728
   97OSM    C12 9598   1.035   2.901  11.259 -1.1906  0.2238  1.0044
   97OSM   H12A 9599   1.040   2.802  11.303  0.1745 -0.3629 -0.4138
   97OSM   H12B 9600   1.135   2.941  11.251 -0.8781 -0.6368  0.5202
   97OSM    C11 9601   0.996   2.869  11.112 -0.1958 -0.0218 -0.1999
   97OSM   H11A 9602   1.054   2.784  11.070 -1.1682 -1.2249  0.8956
   97OSM   H11B 9603   1.031   2.954  11.049 -0.5897 -0.9697 -1.7329
   97OSM      P 9604   0.766   2.903  10.986 -0.6483 -0.0554  0.5229
   97OSM    O13 9605   0.622   2.870  11.013  0.0520 -0.6079 -0.0478
   97OSM    O14 9606   0.794   3.050  10.979  0.9582 -0.5858 -0.4391
   97OSM    O11 9607   0.823   2.829  10.854 -0.3681 -0.1370  0.3959
   97OSM    O12 9608   0.858   2.839  11.099 -0.2294 -0.8385  0.3981
   97OSM    C1S 9609   0.746   2.732  10.782 -0.7554 -0.6524  0.5312
   97OSM    H1S 9610   0.682   2.786  10.710  0.9122 -0.7601 -1.0771
   97OSM    H1T 9611   0.683   2.667  10.847 -1.4212 -2.2116 -1.6266
   97OSM     NF 9612   0.799   2.595  10.564 -0.1819  0.1558  0.3026
   97OSM    HNF 9613   0.758   2.504  10.566 -0.3830  0.2669  1.9768
   97OSM    C2S 9614   0.854   2.647  10.691 -0.0402 -0.6504  0.2325
   97OSM    H2S 9615   0.931   2.724  10.671 -0.4224 -0.1409  0.7067
   97OSM    C3S 9616   0.914   2.539  10.783 -0.4699 -0.0439  0.4260
   97OSM    H3S 9617   0.839   2.460  10.807 -1.0233  0.4333  0.2906
   97OSM     O3 9618   0.956   2.588  10.910  0.0512 -0.1179 -0.1295
   97OSM    HO3 9619   0.908   2.670  10.919  0.3908 -0.1865  2.9737
   97OSM    C4S 9620   1.034   2.483  10.705  0.6469 -1.1268 -0.2085
   97OSM    H4S 9621   1.124   2.547  10.712  0.1373 -0.6291  2.2483
   97OSM    C5S 9622   1.033   2.374  10.631  0.0525  0.0981 -0.0408
   97OSM    H5S 9623   0.933   2.331  10.619 -0.0111 -0.2506  1.5833
   97OSM    C6S 9624   1.141   2.312  10.549 -0.6922 -0.8253  0.0438
   97OSM    H6S 9625   1.195   2.240  10.614  0.0120 -0.2105  0.1443
   97OSM    H6T 9626   1.209   2.396  10.524 -1.0925  0.0772  1.9413
   97OSM    C7S 9627   1.107   2.247  10.409  0.6686  0.3316  0.2956
   97OSM    H7S 9628   1.012   2.190  10.420 -0.4166  2.1309  0.4205
   97OSM    H7T 9629   1.186   2.174  10.381 -0.3931 -1.3836  1.6550
   97OSM    C8S 9630   1.098   2.349  10.296 -0.4179  0.0892 -0.1466
   97OSM    H8S 9631   1.193   2.404  10.281 -0.6785  0.4432 -0.5047
   97OSM    H8T 9632   1.025   2.428  10.325 -2.3850 -1.3155 -1.1246
   97OSM    C9S 9633   1.041   2.282  10.172 -0.0178  0.2839  0.2452
   97OSM    H9S 9634   0.960   2.212  10.203  1.4552 -1.2505  0.7466
   97OSM    H9T 9635   1.114   2.214  10.123 -1.1549 -0.6280 -0.2076
   97OSM   C10S 9636   0.980   2.374  10.061 -0.0177  0.2176 -0.9905
   97OSM   H10S 9637   1.044   2.464  10.053  0.1265  0.1663 -0.4094
   97OSM   H10T 9638   0.883   2.407  10.104 -0.1045 -0.6788 -0.4821
   97OSM   C11S 9639   0.950   2.301   9.926  0.1337 -0.4102 -0.3735
   97OSM   H11S 9640   0.914   2.199   9.950 -3.3531  1.5641  3.4897
   97OSM   H11T 9641   1.041   2.293   9.863  0.2597 -0.7098 -0.1560
   97OSM   C12S 9642   0.836   2.368   9.846  0.0077  0.3194  0.0862
   97OSM   H12S 9643   0.838   2.479   9.837 -0.2717  0.2694 -0.6205
   97OSM   H12T 9644   0.739   2.343   9.895 -1.9047  2.9860 -2.1831
   97OSM   C13S 9645   0.830   2.303   9.706  0.3848  0.2286 -0.2905
   97OSM   H13S 9646   0.806   2.194   9.709 -1.2616  0.5591 -0.8297
   97OSM   H13T 9647   0.920   2.327   9.645 -1.2079  1.6346 -2.1429
   97OSM   C14S 9648   0.710   2.360   9.623 -0.3168 -0.0314  0.0591
   97OSM   H14S 9649   0.616   2.325   9.673 -0.2188  1.7765  1.5485
   97OSM   H14T 9650   0.707   2.302   9.528 -1.1669  0.5383 -0.2664
   97OSM   C15S 9651   0.708   2.509   9.597 -0.8702  0.3532  0.0258
   97OSM   H15S 9652   0.672   2.570   9.682  1.1963 -1.6494  2.3944
   97OSM   H15T 9653   0.625   2.529   9.525 -1.2059 -0.8058  0.0815
   97OSM   C16S 9654   0.839   2.570   9.538  0.0473  0.2494  0.1473
   97OSM   H16S 9655   0.935   2.547   9.587 -0.4678  0.8543  1.4851
   97OSM   H16T 9656   0.833   2.681   9.541  0.2424  0.2715 -0.3488
   97OSM   C17S 9657   0.847   2.532   9.385 -0.5190 -0.2348  0.6540
   97OSM   H17S 9658   0.754   2.564   9.331  1.2643  2.3863 -0.9972
   97OSM   H17T 9659   0.851   2.422   9.380  1.1062 -0.1714  0.3316
   97OSM   C18S 9660   0.963   2.600   9.307 -0.1465  0.4083  0.2068
   97OSM   H18S 9661   1.064   2.555   9.321 -0.4501 -0.7160 -1.1481
   97OSM   H18T 9662   0.977   2.707   9.333  0.2411  0.0905  1.3507
   97OSM   H18U 9663   0.948   2.585   9.198  1.8414 -2.8968  0.2964
   97OSM    C1F 9664   0.763   2.671  10.461 -0.2649 -0.0968  0.1561
   97OSM     OF 9665   0.791   2.793  10.466 -0.0289 -0.4076  0.4333
   97OSM    C2F 9666   0.704   2.594  10.345 -0.4674 -0.1602  0.4711
   97OSM    H2F 9667   0.612   2.540  10.377 -0.2009 -2.3064 -2.2297
   97OSM    H2G 9668   0.775   2.517  10.310 -2.8687 -1.5794 -1.4631
   97OSM    C3F 9669   0.665   2.688  10.231 -0.0554  0.0000 -0.7579
   97OSM    H3F 9670   0.749   2.757  10.209  0.8087 -1.0084 -0.7049
   97OSM    H3G 9671   0.585   2.758  10.262  1.1460  0.7917  0.5596
   97OSM    C4F 9672   0.609   2.613  10.106 -0.2896 -0.3136  1.3455
   97OSM    H4F 9673   0.517   2.556  10.131 -0.9995 -0.5189 -1.5619
   97OSM    H4G 9674   0.688   2.542  10.073  0.4721  0.2046  2.0388
   97OSM    C5F 9675   0.575   2.728   9.999 -0.5700  0.3556  0.2342
   97OSM    H5F 9676   0.503   2.798  10.046 -1.7666 -2.0892  2.1432
   97OSM    H5G 9677   0.519   2.664   9.928 -0.1008  0.8928 -0.6352
   97OSM    C6F 9678   0.700   2.780   9.935 -0.5578 -0.5016  0.2180
   97OSM    H6F 9679   0.758   2.695   9.895 -3.0935 -1.7152 -1.0220
   97OSM    H6G 9680   0.764   2.832  10.009 -0.9384  0.6462 -0.2460
   97OSM    C7F 9681   0.666   2.888   9.838  0.3087 -0.4449 -0.2562
   97OSM    H7F 9682   0.626   2.982   9.883 -1.1606 -0.1852 -2.0307
   97OSM    H7G 9683   0.590   2.835   9.777 -1.7289  0.9750  0.9509
   97OSM    C8F 9684   0.786   2.931   9.758  0.2528  0.3784  0.3930
   97OSM    H8F 9685   0.811   2.846   9.691 -1.4742 -0.0123  0.1985
   97OSM    H8G 9686   0.878   2.953   9.815 -0.4378 -1.2460  2.1800
   97OSM    C9F 9687   0.754   3.057   9.663  0.4638  0.5280  0.6668
   97OSM    H9F 9688   0.769   3.158   9.703  1.9338  0.5705  0.0112
   97OSM   C10F 9689   0.695   3.049   9.545 -0.3832  0.3954  0.7366
   97OSM   H10F 9690   0.680   3.141   9.487  1.3915  0.1555 -0.1486
   97OSM   C11F 9691   0.649   2.925   9.471  0.4608  0.7948 -0.0475
   97OSM   H11F 9692   0.677   2.827   9.515 -0.9198  0.0910 -0.7023
   97OSM   H11G 9693   0.691   2.923   9.368 -0.5864  0.0366 -0.4623
   97OSM   C12F 9694   0.495   2.894   9.460 -0.0578  0.1833  0.3002
   97OSM   H12F 9695   0.451   2.993   9.436  1.0017  0.4094 -0.7963
   97OSM   H12G 9696   0.455   2.856   9.556 -2.6532 -1.6603 -1.4648
   97OSM   C13F 9697   0.454   2.794   9.347  0.2303  0.0157 -0.7054
   97OSM   H13F 9698   0.354   2.754   9.374 -0.3154  1.7907 -0.0229
   97OSM   H13G 9699   0.527   2.710   9.349 -3.7172 -3.6219  1.1007
   97OSM   C14F 9700   0.452   2.856   9.209  0.3592  0.2790  1.1092
   97OSM   H14F 9701   0.528   2.937   9.209  0.8570 -0.1854  0.9653
   97OSM   H14G 9702   0.350   2.897   9.197  1.4697  2.6822 -0.4157
   97OSM   C15F 9703   0.486   2.767   9.089 -0.0358 -0.3310 -0.7114
   97OSM   H15F 9704   0.415   2.682   9.093  0.9945 -1.2456 -1.5104
   97OSM   H15G 9705   0.586   2.722   9.105 -0.4410  0.0089  3.3479
   97OSM   C16F 9706   0.464   2.834   8.953 -0.1251  0.0849 -0.5976
   97OSM   H16F 9707   0.503   2.938   8.956  3.5816 -1.2673  0.7820
   97OSM   H16G 9708   0.355   2.838   8.931 -1.0050  0.4270  3.3891
   97OSM   C17F 9709   0.539   2.766   8.843 -0.2171 -0.0811  0.5832
   97OSM   H17F 9710   0.506   2.660   8.841 -0.9388  0.1538 -0.2499
   97OSM   H17G 9711   0.647   2.783   8.865  0.5068 -1.5216 -1.6354
   97OSM   C18F 9712   0.517   2.836   8.698  0.3774 -0.1535  0.1193
   97OSM   H18F 9713   0.411   2.866   8.681  0.3913 -0.4952 -0.6205
   97OSM   H18G 9714   0.545   2.765   8.617  1.6466 -1.3818  1.6257
   97OSM   H18H 9715   0.588   2.921   8.693  1.6606 -1.1905  0.5277
   98OSM      N 9716   6.670   2.600  11.077 -0.5753  0.4985  0.0721
   98OSM    C15 9717   6.703   2.691  10.963 -0.2303  0.1422 -0.1527
   98OSM   H15A 9718   6.799   2.671  10.917 -0.0617 -0.9795  0.6657
   98OSM   H15B 9719   6.708   2.790  11.006 -0.9008 -0.7102  1.9672
   98OSM   H15C 9720   6.634   2.688  10.880  0.8744 -1.0957 -1.0517
   98OSM    C14 9721   6.601   2.685  11.183  0.3577  0.1669  0.5641
   98OSM   H14A 9722   6.570   2.632  11.271  0.8694 -0.4349  0.3838
   98OSM   H14B 9723   6.513   2.725  11.134  0.2062 -1.8671 -0.9044
   98OSM   H14C 9724   6.651   2.774  11.219 -2.2848  2.7767 -1.8654
   98OSM    C13 9725   6.599   2.480  11.038 -0.3363 -1.1743  0.1390
   98OSM   H13A 9726   6.583   2.413  11.120 -1.1482 -2.2667 -0.9028
   98OSM   H13B 9727   6.656   2.415  10.973 -1.9425 -1.0877 -1.4011
   98OSM   H13C 9728   6.503   2.495  10.992 -0.5896 -1.5063  0.5605
   98OSM    C12 9729   6.800   2.555  11.150 -0.3338  0.4865 -0.2201
   98OSM   H12A 9730   6.765   2.484  11.224  2.2873 -0.3576  0.2783
   98OSM   H12B 9731   6.848   2.641  11.194  0.1277  0.0088  0.2321
   98OSM    C11 9732   6.913   2.489  11.066  0.9657  0.2102  0.7023
   98OSM   H11A 9733   6.859   2.426  10.992 -0.2352 -1.6148  3.0275
   98OSM   H11B 9734   6.981   2.424  11.126  1.6375 -0.6039 -0.9087
   98OSM      P 9735   7.123   2.553  10.921  0.1646 -0.0175  0.2366
   98OSM    O13 9736   7.144   2.666  10.829 -0.4746 -0.2429  0.4990
   98OSM    O14 9737   7.232   2.527  11.020  0.2078  0.5461 -0.2837
   98OSM    O11 9738   7.091   2.422  10.831  0.2705  0.6777  0.0577
   98OSM    O12 9739   6.994   2.588  11.006  0.3362 -1.3098  0.1758
   98OSM    C1S 9740   6.998   2.427  10.723  0.4900  0.3053 -0.8067
   98OSM    H1S 9741   7.003   2.526  10.673  0.2016  0.0114 -1.4202
   98OSM    H1T 9742   6.894   2.406  10.756  0.2263  0.4567 -1.5386
   98OSM     NF 9743   6.969   2.332  10.489  0.0126  0.3409  0.2474
   98OSM    HNF 9744   6.882   2.289  10.464  0.3243 -1.8477  2.6279
   98OSM    C2S 9745   7.017   2.305  10.623 -0.1756 -0.2415 -0.2908
   98OSM    H2S 9746   7.120   2.272  10.597 -0.5818 -0.8095 -1.2339
   98OSM    C3S 9747   6.952   2.181  10.695  0.8979 -0.1799 -0.0876
   98OSM    H3S 9748   6.842   2.188  10.714  0.7254 -2.7110  0.0479
   98OSM     O3 9749   6.997   2.146  10.823 -0.4168 -0.2335 -0.0366
   98OSM    HO3 9750   7.043   2.227  10.848 -0.3330 -0.2539 -0.1222
   98OSM    C4S 9751   6.960   2.061  10.598  0.5424 -0.3595  0.7840
   98OSM    H4S 9752   6.869   2.014  10.558  0.9761 -1.4451  1.0490
   98OSM    C5S 9753   7.079   2.009  10.554  0.4798 -0.1462 -0.5607
   98OSM    H5S 9754   7.177   2.053  10.578 -0.7391  4.9283 -3.8983
   98OSM    C6S 9755   7.109   1.892  10.461  0.2976 -0.6886  0.0092
   98OSM    H6S 9756   7.109   1.798  10.520 -0.5425  0.7901  2.4233
   98OSM    H6T 9757   7.204   1.902  10.405 -0.4265 -0.1370 -1.1446
   98OSM    C7S 9758   6.994   1.870  10.354 -1.1755 -0.4949 -0.9416
   98OSM    H7S 9759   6.897   1.859  10.406 -1.5242 -0.6432 -1.6132
   98OSM    H7T 9760   7.015   1.780  10.293  0.0804 -0.9321  0.1301
   98OSM    C8S 9761   6.958   1.983  10.261 -0.8858  0.2986 -0.1252
   98OSM    H8S 9762   7.049   2.041  10.237 -1.2632  0.6254 -0.7541
   98OSM    H8T 9763   6.903   2.055  10.325  2.8480  1.7498  1.5862
   98OSM    C9S 9764   6.897   1.948  10.123 -0.0525  0.3089  0.1949
   98OSM    H9S 9765   6.803   1.890  10.129  0.2162 -0.4283 -2.2349
   98OSM    H9T 9766   6.964   1.892  10.054 -0.5494 -0.3576  0.2601
   98OSM   C10S 9767   6.864   2.077  10.044  0.3385 -0.4450  0.4557
   98OSM   H10S 9768   6.959   2.133  10.033 -0.2502  0.5416  0.3262
   98OSM   H10T 9769   6.807   2.150  10.105 -1.7199 -0.8674 -0.8812
   98OSM   C11S 9770   6.793   2.068   9.913  0.2882  0.1868 -0.7192
   98OSM   H11S 9771   6.739   2.162   9.887  1.3597  0.8446 -0.5731
   98OSM   H11T 9772   6.715   1.990   9.927  1.2206 -0.6420 -0.1087
   98OSM   C12S 9773   6.893   2.041   9.803  0.1476  0.3276 -0.5765
   98OSM   H12S 9774   6.926   1.934   9.811 -1.4492 -0.2311 -1.3462
   98OSM   H12T 9775   6.984   2.101   9.825 -1.3530  2.4200 -0.0260
   98OSM   C13S 9776   6.837   2.071   9.667 -0.0601 -0.3973  0.2873
   98OSM   H13S 9777   6.852   2.177   9.635  1.0908 -1.1188 -1.6409
   98OSM   H13T 9778   6.728   2.056   9.672 -0.3010  0.7076 -1.1502
   98OSM   C14S 9779   6.880   1.980   9.553  0.2545 -0.5851 -0.5584
   98OSM   H14S 9780   6.868   1.872   9.578 -1.2610 -0.1997  0.4267
   98OSM   H14T 9781   6.983   2.007   9.522 -0.3891  2.1313 -0.4378
   98OSM   C15S 9782   6.790   2.013   9.438 -0.5165 -0.0273 -0.0497
   98OSM   H15S 9783   6.802   2.112   9.388 -2.0632  0.8326  1.2470
   98OSM   H15T 9784   6.683   1.997   9.463 -0.9055 -0.7016 -2.0559
   98OSM   C16S 9785   6.821   1.900   9.326 -0.3296 -0.2389 -0.1798
   98OSM   H16S 9786   6.810   1.805   9.382 -0.6915 -0.2634 -0.2926
   98OSM   H16T 9787   6.922   1.902   9.281  0.5710 -2.6722  1.6102
   98OSM   C17S 9788   6.723   1.923   9.214  0.0263  0.1420 -0.0981
   98OSM   H17S 9789   6.729   2.030   9.185 -1.0185  0.3533  0.4582
   98OSM   H17T 9790   6.618   1.896   9.235  0.0966  1.0432  1.4221
   98OSM   C18S 9791   6.756   1.858   9.078 -0.2816 -0.2847 -0.1190
   98OSM   H18S 9792   6.764   1.748   9.091  1.0664  0.1438  3.0457
   98OSM   H18T 9793   6.854   1.895   9.041  1.1079 -0.5570  3.1571
   98OSM   H18U 9794   6.682   1.874   8.997  0.1600  0.4200 -0.3824
   98OSM    C1F 9795   7.038   2.408  10.401 -0.2396  0.1735 -0.1627
   98OSM     OF 9796   7.147   2.452  10.438 -0.6983  0.3610 -0.1292
   98OSM    C2F 9797   6.983   2.418  10.262 -0.2197 -0.4969  0.2706
   98OSM    H2F 9798   6.886   2.472  10.261 -0.4132 -0.8445 -0.0056
   98OSM    H2G 9799   6.966   2.317  10.219 -2.9762 -0.2387  0.6637
   98OSM    C3F 9800   7.089   2.494  10.179  0.6353  0.1725  0.1837
   98OSM    H3F 9801   7.184   2.437  10.188 -0.8372 -2.6355 -1.5736
   98OSM    H3G 9802   7.097   2.595  10.225  0.7499 -0.3291  1.2843
   98OSM    C4F 9803   7.053   2.501  10.031  0.1186  0.6784  0.6785
   98OSM    H4F 9804   7.072   2.606   9.999  1.2277  0.0713 -0.7367
   98OSM    H4G 9805   6.945   2.489  10.010  0.6773 -4.0917 -0.0139
   98OSM    C5F 9806   7.136   2.400   9.943  0.4804  0.4506 -0.9015
   98OSM    H5F 9807   7.101   2.297   9.968 -1.2944  1.5846  1.4624
   98OSM    H5G 9808   7.244   2.399   9.969  0.1586 -0.4115  0.4463
   98OSM    C6F 9809   7.111   2.404   9.793  0.2781 -0.4441  0.1974
   98OSM    H6F 9810   7.011   2.360   9.775  0.8110 -0.7305 -2.1810
   98OSM    H6G 9811   7.188   2.342   9.743  1.3111  1.3471 -0.5172
   98OSM    C7F 9812   7.108   2.552   9.748  0.2291 -0.2414 -0.0826
   98OSM    H7F 9813   7.197   2.601   9.794  0.5315  1.2550 -2.1886
   98OSM    H7G 9814   7.017   2.603   9.785  1.8715  2.2341  0.7390
   98OSM    C8F 9815   7.119   2.570   9.594  0.2336 -0.3138  0.4440
   98OSM    H8F 9816   7.224   2.550   9.564 -0.4211 -1.7404 -1.0116
   98OSM    H8G 9817   7.115   2.677   9.566 -0.1963 -0.0046  1.6406
   98OSM    C9F 9818   7.028   2.481   9.509 -0.2418 -0.0852 -0.7413
   98OSM    H9F 9819   6.922   2.499   9.536 -1.1910 -2.3055 -2.7618
   98OSM   C10F 9820   7.062   2.385   9.423 -0.1812 -0.1201 -0.1568
   98OSM   H10F 9821   6.982   2.322   9.381  0.2398  0.0507 -1.2498
   98OSM   C11F 9822   7.202   2.338   9.388  0.2989 -0.1262  0.1416
   98OSM   H11F 9823   7.211   2.228   9.405 -0.0273 -0.1044  0.4773
   98OSM   H11G 9824   7.281   2.395   9.440 -0.0103  0.9986 -0.6243
   98OSM   C12F 9825   7.234   2.366   9.239  0.4777  0.1765 -0.0396
   98OSM   H12F 9826   7.204   2.471   9.222 -1.7653 -0.6400 -1.3017
   98OSM   H12G 9827   7.173   2.298   9.176 -0.1016  0.5500  0.1194
   98OSM   C13F 9828   7.377   2.346   9.212 -0.4301 -0.5687  0.7796
   98OSM   H13F 9829   7.421   2.244   9.228  1.4121 -0.2172 -1.6661
   98OSM   H13G 9830   7.439   2.412   9.276 -2.2154  1.2396  0.6637
   98OSM   C14F 9831   7.417   2.378   9.066 -0.0635 -0.1761  0.1781
   98OSM   H14F 9832   7.349   2.458   9.029 -1.0253 -1.4344 -0.8210
   98OSM   H14G 9833   7.399   2.292   8.998  3.4599 -0.8961  0.0397
   98OSM   C15F 9834   7.561   2.408   9.045 -0.4420  0.4701  0.1789
   98OSM   H15F 9835   7.611   2.325   9.099  0.4379  1.2270  0.5358
   98OSM   H15G 9836   7.586   2.503   9.098  1.0220 -0.1946  0.7037
   98OSM   C16F 9837   7.617   2.414   8.899  0.0678 -0.0313  0.6997
   98OSM   H16F 9838   7.726   2.432   8.911  0.2599  1.2062 -2.4951
   98OSM   H16G 9839   7.578   2.507   8.851  0.8050 -0.7832 -1.4055
   98OSM   C17F 9840   7.585   2.307   8.793 -0.8112 -0.4500  0.5491
   98OSM   H17F 9841   7.572   2.204   8.832 -1.2969 -0.1341  1.2445
   98OSM   H17G 9842   7.665   2.327   8.718  0.2517 -0.5396  1.6467
   98OSM   C18F 9843   7.455   2.340   8.713  0.4701 -0.1450  0.8024
   98OSM   H18F 9844   7.450   2.439   8.662  0.4535 -0.6626 -0.1974
   98OSM   H18G 9845   7.369   2.330   8.782  0.3369 -1.2059  0.4775
   98OSM   H18H 9846   7.438   2.262   8.637  0.7528 -0.2867  0.8835
   99OSM      N 9847   2.360   3.474  10.666  0.4571  0.3974  0.1591
   99OSM    C15 9848   2.232   3.425  10.731 -0.0898  0.5589 -0.4901
   99OSM   H15A 9849   2.226   3.317  10.725 -0.8692  0.6420 -1.3285
   99OSM   H15B 9850   2.141   3.470  10.693  0.6138  1.6359 -0.9172
   99OSM   H15C 9851   2.239   3.433  10.838  0.0496  1.4865 -0.5677
   99OSM    C14 9852   2.352   3.437  10.525  0.8476  0.2180  0.5876
   99OSM   H14A 9853   2.334   3.331  10.519  1.3870  0.1577 -0.0498
   99OSM   H14B 9854   2.445   3.460  10.474  0.8191 -2.1905 -0.6083
   99OSM   H14C 9855   2.275   3.492  10.473 -0.3284 -0.6974  1.3432
   99OSM    C13 9856   2.379   3.620  10.669  0.1848 -0.1626 -0.0981
   99OSM   H13A 9857   2.468   3.650  10.616 -1.3225  0.2958 -2.4260
   99OSM   H13B 9858   2.372   3.661  10.769 -0.7050 -1.0939  0.2210
   99OSM   H13C 9859   2.295   3.665  10.619  0.9972  0.9727 -0.4698
   99OSM    C12 9860   2.472   3.399  10.742  0.0049 -0.4328  0.3744
   99OSM   H12A 9861   2.482   3.450  10.837  0.1467  0.1372  0.0535
   99OSM   H12B 9862   2.572   3.415  10.706 -1.1130  0.7923 -2.3486
   99OSM    C11 9863   2.456   3.244  10.762  0.7415  0.0454  0.3274
   99OSM   H11A 9864   2.560   3.209  10.779  0.0456 -2.6460 -0.6373
   99OSM   H11B 9865   2.416   3.213  10.663  3.2781 -1.4476 -0.2871
   99OSM      P 9866   2.358   3.088  10.944  0.1944  0.3786 -0.0537
   99OSM    O13 9867   2.481   3.056  11.015  0.1444  0.3111  0.3469
   99OSM    O14 9868   2.242   3.089  11.032 -0.5563 -0.3242  0.1060
   99OSM    O11 9869   2.344   2.970  10.833 -0.5278 -0.1773  0.1424
   99OSM    O12 9870   2.365   3.227  10.872 -0.0565  0.7809 -0.0385
   99OSM    C1S 9871   2.225   2.968  10.751 -0.1217 -0.3327  0.4160
   99OSM    H1S 9872   2.183   3.071  10.738  2.1033  0.3008 -2.1062
   99OSM    H1T 9873   2.142   2.910  10.798  0.4329  1.6153  4.0135
   99OSM     NF 9874   2.132   2.937  10.526 -0.1026  0.1473  1.3910
   99OSM    HNF 9875   2.062   2.869  10.508 -0.5006  1.5539 -2.7350
   99OSM    C2S 9876   2.247   2.912  10.610  0.1681 -0.2511  0.0463
   99OSM    H2S 9877   2.336   2.959  10.562  0.7741 -1.8067 -0.4225
   99OSM    C3S 9878   2.296   2.768  10.618  0.1395 -0.3078 -0.3074
   99OSM    H3S 9879   2.211   2.696  10.628  0.7260 -1.0245 -0.4353
   99OSM     O3 9880   2.377   2.742  10.729 -0.7157  0.0927 -0.0635
   99OSM    HO3 9881   2.378   2.826  10.775  0.2937  0.2632 -0.3910
   99OSM    C4S 9882   2.364   2.727  10.481  0.8118  0.2043  0.6395
   99OSM    H4S 9883   2.472   2.740  10.470  0.8002 -0.8457 -0.8783
   99OSM    C5S 9884   2.309   2.674  10.374 -0.1063 -0.0041 -0.3826
   99OSM    H5S 9885   2.201   2.653  10.381  0.1011 -1.0761 -0.3187
   99OSM    C6S 9886   2.375   2.640  10.247 -0.7480 -0.1751  0.0030
   99OSM    H6S 9887   2.341   2.703  10.162  0.6115 -0.8781 -1.0957
   99OSM    H6T 9888   2.355   2.533  10.225 -1.3062  0.2497 -1.6504
   99OSM    C7S 9889   2.529   2.667  10.239 -0.0182  0.4966  0.5847
   99OSM    H7S 9890   2.587   2.621  10.321 -0.3995 -1.0026  0.0454
   99OSM    H7T 9891   2.536   2.777  10.240 -5.5979  1.0252 -0.7230
   99OSM    C8S 9892   2.588   2.605  10.119 -0.0994  0.3193 -0.1563
   99OSM    H8S 9893   2.554   2.651  10.024  2.0147 -1.5229 -1.8833
   99OSM    H8T 9894   2.556   2.499  10.118 -1.6266  0.7523 -2.5401
   99OSM    C9S 9895   2.741   2.609  10.102 -0.1899 -0.4436 -0.8015
   99OSM    H9S 9896   2.767   2.565  10.004 -2.7863  0.5934 -2.0069
   99OSM    H9T 9897   2.777   2.542  10.183 -0.3183  0.2807 -0.1287
   99OSM   C10S 9898   2.809   2.750  10.105 -0.2844  0.7353 -0.1217
   99OSM   H10S 9899   2.915   2.741  10.136  0.0833  2.5784 -0.7782
   99OSM   H10T 9900   2.767   2.813  10.186 -0.4697  0.2679  0.1467
   99OSM   C11S 9901   2.805   2.829   9.972  0.4046  0.4773  0.0433
   99OSM   H11S 9902   2.878   2.912   9.982  0.0804  0.8641 -0.7439
   99OSM   H11T 9903   2.699   2.863   9.967  0.0706 -0.0302  2.8746
   99OSM   C12S 9904   2.849   2.747   9.847 -0.4805  0.6097 -0.3297
   99OSM   H12S 9905   2.948   2.701   9.864 -0.5608  1.0075  1.2653
   99OSM   H12T 9906   2.764   2.680   9.822 -2.2452  2.5274  0.2923
   99OSM   C13S 9907   2.857   2.844   9.725 -0.1506 -0.0678  0.0781
   99OSM   H13S 9908   2.933   2.923   9.742  0.4759 -0.1733 -2.0425
   99OSM   H13T 9909   2.765   2.904   9.736 -0.4510 -0.4620 -0.2403
   99OSM   C14S 9910   2.868   2.780   9.583  0.3926 -0.2082 -0.7540
   99OSM   H14S 9911   2.788   2.703   9.581 -0.0225  0.1538  1.4189
   99OSM   H14T 9912   2.962   2.721   9.588  0.0756 -0.8199 -1.8556
   99OSM   C15S 9913   2.866   2.870   9.467 -0.3768 -0.2237  0.4040
   99OSM   H15S 9914   2.955   2.937   9.470 -0.2063 -0.4755  1.1587
   99OSM   H15T 9915   2.781   2.942   9.467 -1.8508 -1.9552  0.2059
   99OSM   C16S 9916   2.853   2.781   9.344  0.1136 -0.0763  0.8682
   99OSM   H16S 9917   2.766   2.712   9.336  0.2093 -0.2011  0.8989
   99OSM   H16T 9918   2.931   2.702   9.334 -1.6050 -1.6646 -0.2720
   99OSM   C17S 9919   2.850   2.864   9.211 -0.5111 -0.1810  0.5259
   99OSM   H17S 9920   2.761   2.929   9.214  0.9798  1.8394  5.2714
   99OSM   H17T 9921   2.835   2.794   9.126  1.0557 -1.6538  1.4217
   99OSM   C18S 9922   2.972   2.957   9.194 -0.2598  0.2245 -0.4733
   99OSM   H18S 9923   2.953   3.016   9.102  1.7117 -0.4454 -1.3474
   99OSM   H18T 9924   3.064   2.895   9.186 -0.0026  0.4711  0.5069
   99OSM   H18U 9925   2.988   3.021   9.283 -1.2997 -1.7321  1.1417
   99OSM    C1F 9926   2.112   3.056  10.474 -0.3036  0.5841 -0.1170
   99OSM     OF 9927   2.201   3.140  10.493 -0.2624 -0.3582 -0.8937
   99OSM    C2F 9928   2.002   3.086  10.387 -0.2368  0.6303  0.2361
   99OSM    H2F 9929   1.939   3.166  10.429 -2.6395 -1.1108  0.0606
   99OSM    H2G 9930   1.945   2.991  10.376  3.2220 -1.4329 -0.7473
   99OSM    C3F 9931   2.057   3.131  10.245  0.1375  0.7870  0.4644
   99OSM    H3F 9932   2.135   3.209  10.260  2.0504 -1.1640  0.7835
   99OSM    H3G 9933   2.101   3.043  10.193 -2.2818 -0.8416  1.1215
   99OSM    C4F 9934   1.954   3.191  10.148  0.2275  0.5153  0.7070
   99OSM    H4F 9935   1.878   3.246  10.208  0.2514  1.5152 -0.1683
   99OSM    H4G 9936   1.897   3.109  10.099 -0.7668  2.0029 -0.6728
   99OSM    C5F 9937   2.018   3.267  10.029 -0.1237  0.7378  0.0407
   99OSM    H5F 9938   2.090   3.197   9.981 -0.6278  0.3608 -0.1789
   99OSM    H5G 9939   2.073   3.349  10.079  0.4985 -1.4479  3.0727
   99OSM    C6F 9940   1.909   3.324   9.936 -0.5473  0.5328 -0.2323
   99OSM    H6F 9941   1.844   3.393   9.994 -1.9283 -1.4803  0.6659
   99OSM    H6G 9942   1.841   3.243   9.902  2.3484 -2.4313  0.7643
   99OSM    C7F 9943   1.979   3.396   9.820 -0.0912 -0.6634 -0.2226
   99OSM    H7F 9944   2.085   3.400   9.853  0.0383 -0.5456 -0.6454
   99OSM    H7G 9945   1.933   3.497   9.816  0.2573 -0.4947 -0.0190
   99OSM    C8F 9946   1.955   3.320   9.691  0.1129  0.7628 -0.0357
   99OSM    H8F 9947   1.845   3.321   9.677 -0.0552 -2.8689  0.4610
   99OSM    H8G 9948   1.991   3.216   9.708 -1.9710  0.3729  2.3047
   99OSM    C9F 9949   2.022   3.383   9.571  0.0273 -0.1515  0.2332
   99OSM    H9F 9950   2.027   3.493   9.573 -1.2513 -0.0813  0.0999
   99OSM   C10F 9951   2.060   3.326   9.458  0.2700  0.2488 -0.3559
   99OSM   H10F 9952   2.116   3.385   9.384  1.7380 -1.1474 -0.3724
   99OSM   C11F 9953   2.065   3.180   9.423 -0.2568 -0.6567  0.3526
   99OSM   H11F 9954   1.995   3.124   9.489  1.3067 -0.1771  2.5100
   99OSM   H11G 9955   2.165   3.138   9.449 -1.0975 -2.1035  1.3179
   99OSM   C12F 9956   2.021   3.144   9.280  0.4247 -0.3591 -0.3549
   99OSM   H12F 9957   2.098   3.148   9.200 -0.1413  0.6535 -0.8580
   99OSM   H12G 9958   1.940   3.214   9.249  0.2647 -0.3276  0.1251
   99OSM   C13F 9959   1.962   3.001   9.275  0.0755  0.1025  0.0938
   99OSM   H13F 9960   1.871   2.992   9.340  0.3299 -0.5710  0.3615
   99OSM   H13G 9961   2.025   2.928   9.330 -0.1266 -0.8534 -0.9458
   99OSM   C14F 9962   1.943   2.954   9.131 -0.4477  0.3205  0.7195
   99OSM   H14F 9963   1.895   2.854   9.118  0.1563  0.0796  0.3233
   99OSM   H14G 9964   2.033   2.969   9.067  1.3961 -0.5080  3.0235
   99OSM   C15F 9965   1.840   3.047   9.059 -0.5089  0.1810 -0.5790
   99OSM   H15F 9966   1.861   3.154   9.077 -1.1840  0.1649  0.3207
   99OSM   H15G 9967   1.744   3.038   9.113 -0.5866  1.4641 -0.4777
   99OSM   C16F 9968   1.819   3.023   8.907  0.7302  0.3793 -0.3349
   99OSM   H16F 9969   1.730   3.081   8.877 -1.0402 -0.7627  2.4761
   99OSM   H16G 9970   1.793   2.920   8.874 -0.9278  1.4052 -2.3300
   99OSM   C17F 9971   1.940   3.064   8.819  0.8365 -0.5765  1.1489
   99OSM   H17F 9972   2.024   3.106   8.879  2.8599  1.6373 -2.9985
   99OSM   H17G 9973   1.905   3.150   8.757  3.3926  0.6486  1.3473
   99OSM   C18F 9974   1.984   2.957   8.719 -0.8490  0.6261  0.3742
   99OSM   H18F 9975   2.008   2.861   8.771 -1.8112  0.8451  1.2382
   99OSM   H18G 9976   2.078   2.984   8.668  0.0134 -1.4264  0.8085
   99OSM   H18H 9977   1.907   2.938   8.641  0.9508 -2.7971 -0.6605
  100OSM      N 9978   4.220   3.603  11.088 -0.0681 -0.4688 -0.3399
  100OSM    C15 9979   4.289   3.680  10.983  0.3877 -0.1674  0.0955
  100OSM   H15A 9980   4.294   3.780  11.025 -0.4796 -0.9321  2.0881
  100OSM   H15B 9981   4.229   3.687  10.893 -1.2982  0.2168  1.2227
  100OSM   H15C 9982   4.386   3.639  10.959 -0.5579 -0.9095 -2.6026
  100OSM    C14 9983   4.304   3.600  11.209 -0.4049 -0.0967 -0.2203
  100OSM   H14A 9984   4.236   3.559  11.283 -2.5698  1.5114 -1.2624
  100OSM   H14B 9985   4.343   3.696  11.239  3.4736 -1.5630 -0.4004
  100OSM   H14C 9986   4.396   3.548  11.187 -0.5104  0.5266 -2.2662
  100OSM    C13 9987   4.093   3.677  11.130 -0.3982 -0.5077  0.0091
  100OSM   H13A 9988   4.123   3.765  11.186 -0.4593  0.7970 -1.9572
  100OSM   H13B 9989   4.026   3.616  11.189 -0.6686 -1.3953 -1.2110
  100OSM   H13C 9990   4.032   3.707  11.046 -0.8474  0.5248  0.6929
  100OSM    C12 9991   4.174   3.469  11.036  0.5249  0.3633  0.5443
  100OSM   H12A 9992   4.121   3.483  10.943  1.4932  2.4564  0.2883
  100OSM   H12B 9993   4.100   3.429  11.105 -0.6118  0.4173 -0.6316
  100OSM    C11 9994   4.283   3.369  11.016  0.7135 -0.4841 -0.3467
  100OSM   H11A 9995   4.316   3.336  11.117 -0.6746 -2.3349 -0.4675
  100OSM   H11B 9996   4.375   3.411  10.970  1.0003  0.0831  0.7221
  100OSM      P 9997   4.234   3.255  10.789 -0.4439 -0.4169  0.1109
  100OSM    O13 9998   4.171   3.130  10.747 -0.8229  0.1315 -0.3511
  100OSM    O14 9999   4.194   3.381  10.736 -0.3926  0.0944  0.7043
  100OSM    O1110000   4.389   3.251  10.764 -0.1129 -0.1457  0.1126
  100OSM    O1210001   4.237   3.250  10.949 -0.6700 -0.7450  0.3087
  100OSM    C1S10002   4.444   3.221  10.638 -1.1558  0.2455  0.1666
  100OSM    H1S10003   4.382   3.154  10.575  0.7983 -2.4407  1.0448
  100OSM    H1T10004   4.541   3.167  10.643 -0.4846  1.2323 -1.4310
  100OSM     NF10005   4.509   3.315  10.425 -0.7066  0.1941  0.0875
  100OSM    HNF10006   4.606   3.326  10.404 -0.8964  0.2543 -0.7926
  100OSM    C2S10007   4.474   3.347  10.557  0.0910 -0.1058 -0.5045
  100OSM    H2S10008   4.381   3.407  10.570 -0.8687 -1.4726 -0.9388
  100OSM    C3S10009   4.589   3.425  10.629 -0.2516 -0.1688  0.5811
  100OSM    H3S10010   4.686   3.370  10.626 -0.4064 -0.4114 -0.6250
  100OSM     O310011   4.574   3.433  10.773  1.0327 -0.3158 -0.2608
  100OSM    HO310012   4.503   3.370  10.789  0.3939  0.1690 -1.2133
  100OSM    C4S10013   4.602   3.563  10.572 -0.3931 -0.5517  0.6063
  100OSM    H4S10014   4.515   3.616  10.613 -1.2615 -0.8678 -0.7957
  100OSM    C5S10015   4.698   3.617  10.494  0.3283  0.5781 -0.6312
  100OSM    H5S10016   4.782   3.549  10.473 -0.4738 -0.3082 -1.0153
  100OSM    C6S10017   4.705   3.757  10.443  0.5101  0.7011  0.1355
  100OSM    H6S10018   4.801   3.801  10.476  0.9116 -1.0172  1.3161
  100OSM    H6T10019   4.620   3.826  10.467  0.3545  0.5971 -0.1153
  100OSM    C7S10020   4.711   3.756  10.284  0.1077  0.1680  0.4075
  100OSM    H7S10021   4.817   3.745  10.253  1.0724 -0.4069  3.7647
  100OSM    H7T10022   4.669   3.856  10.258  0.5987 -0.1097 -1.4769
  100OSM    C8S10023   4.616   3.656  10.216 -0.5609  0.3525  0.2422
  100OSM    H8S10024   4.512   3.696  10.215 -0.8608 -0.3372  1.8858
  100OSM    H8T10025   4.608   3.560  10.272  3.2675  0.0059  0.3427
  100OSM    C9S10026   4.648   3.630  10.069 -0.0615 -0.1795 -0.1562
  100OSM    H9S10027   4.627   3.720  10.007 -0.7845 -0.9149 -0.9885
  100OSM    H9T10028   4.576   3.552  10.039  0.1040 -0.0811 -0.8122
  100OSM   C10S10029   4.786   3.568  10.040 -0.2614 -0.2759 -0.5958
  100OSM   H10S10030   4.797   3.461  10.066  1.2631 -0.3346 -1.4350
  100OSM   H10T10031   4.865   3.615  10.102  0.2774 -1.7450 -0.1380
  100OSM   C11S10032   4.837   3.595   9.893 -0.0551  0.2728 -0.5398
  100OSM   H11S10033   4.947   3.589   9.886 -0.0221  1.8212 -1.7638
  100OSM   H11T10034   4.827   3.704   9.872 -1.6237  0.6455  1.8744
  100OSM   C12S10035   4.775   3.502   9.792  0.1521  0.1311  0.0620
  100OSM   H12S10036   4.666   3.519   9.806  0.0624 -0.0375 -0.4033
  100OSM   H12T10037   4.817   3.405   9.826  2.4860  1.4699  1.1491
  100OSM   C13S10038   4.819   3.533   9.651  0.9556  0.3593  0.0637
  100OSM   H13S10039   4.930   3.535   9.647  0.9147  1.9008 -0.5717
  100OSM   H13T10040   4.800   3.638   9.621  0.3926  0.6810  1.4872
  100OSM   C14S10041   4.758   3.444   9.545  0.0918  0.8912 -0.5270
  100OSM   H14S10042   4.649   3.455   9.562  0.0259  2.9399 -2.2000
  100OSM   H14T10043   4.790   3.339   9.566  0.0019  1.1682  1.0607
  100OSM   C15S10044   4.796   3.497   9.405  0.3074 -0.0118  0.3640
  100OSM   H15S10045   4.900   3.537   9.409  1.3502 -2.7182  1.8935
  100OSM   H15T10046   4.730   3.584   9.388  0.3853  0.4169  2.2036
  100OSM   C16S10047   4.761   3.391   9.301 -0.4419  0.5926 -0.0503
  100OSM   H16S10048   4.652   3.381   9.280 -0.3109  0.0544 -0.4713
  100OSM   H16T10049   4.805   3.296   9.338 -0.9422  0.3369 -0.1050
  100OSM   C17S10050   4.836   3.435   9.173 -0.1828  1.2067  0.0110
  100OSM   H17S10051   4.849   3.334   9.128  0.1862  0.0965  2.5069
  100OSM   H17T10052   4.937   3.465   9.207  0.3596  1.1577 -1.5344
  100OSM   C18S10053   4.764   3.540   9.096  0.6037 -0.2638  0.4278
  100OSM   H18S10054   4.819   3.547   9.000 -1.4932 -0.0197 -0.7877
  100OSM   H18T10055   4.746   3.637   9.149  0.8290 -1.0345  1.9453
  100OSM   H18U10056   4.660   3.505   9.082  0.8671 -0.7639 -0.2876
  100OSM    C1F10057   4.424   3.268  10.340  0.0982 -0.2136  0.2970
  100OSM     OF10058   4.299   3.260  10.355  0.4072  0.4850  0.0257
  100OSM    C2F10059   4.487   3.223  10.216 -0.0608 -0.1360 -0.4550
  100OSM    H2F10060   4.490   3.112  10.209 -1.5275 -0.1238 -1.5488
  100OSM    H2G10061   4.594   3.252  10.207 -0.3924  1.4071  0.3813
  100OSM    C3F10062   4.419   3.271  10.081  1.0594 -0.3918  0.0927
  100OSM    H3F10063   4.406   3.382  10.082  0.2895 -0.4658 -0.7850
  100OSM    H3G10064   4.316   3.230  10.076  0.8320  0.0686  0.9464
  100OSM    C4F10065   4.499   3.233   9.956  0.9553  0.1493 -0.4228
  100OSM    H4F10066   4.521   3.124   9.956  0.9084  0.1194  1.3974
  100OSM    H4G10067   4.596   3.285   9.970 -0.2223  2.0646  0.8543
  100OSM    C5F10068   4.430   3.269   9.829 -0.2028  0.0213  0.1334
  100OSM    H5F10069   4.427   3.380   9.816  0.2748 -0.0596 -0.7192
  100OSM    H5G10070   4.330   3.223   9.812  1.0727 -2.2328 -1.3703
  100OSM    C6F10071   4.523   3.209   9.713  0.5354 -0.4735  0.3875
  100OSM    H6F10072   4.554   3.104   9.733  0.7997 -0.6307 -0.8452
  100OSM    H6G10073   4.618   3.266   9.714 -0.0470  0.4964  0.9376
  100OSM    C7F10074   4.444   3.220   9.581 -0.6808 -0.0321  0.2046
  100OSM    H7F10075   4.433   3.329   9.560  0.8431  0.7873  3.3472
  100OSM    H7G10076   4.343   3.173   9.582  0.9350 -3.6990 -1.8841
  100OSM    C8F10077   4.525   3.165   9.459 -0.5363  0.8476  0.1985
  100OSM    H8F10078   4.543   3.063   9.499 -0.6810  0.1228 -1.5781
  100OSM    H8G10079   4.622   3.217   9.440 -0.8567  1.2227 -0.4265
  100OSM    C9F10080   4.443   3.173   9.338 -0.2394  0.0366  0.0879
  100OSM    H9F10081   4.412   3.274   9.307 -2.8607 -0.7902 -0.0976
  100OSM   C10F10082   4.408   3.067   9.261  0.4646  0.5694 -0.2761
  100OSM   H10F10083   4.338   3.096   9.181  1.8198  2.0020 -0.9681
  100OSM   C11F10084   4.445   2.918   9.271 -0.3585  0.3229 -0.9367
  100OSM   H11F10085   4.373   2.862   9.334  1.8243 -1.6441 -0.0997
  100OSM   H11G10086   4.541   2.902   9.325 -0.0585  1.5739 -1.0881
  100OSM   C12F10087   4.442   2.850   9.129  0.0158  0.1596  0.6034
  100OSM   H12F10088   4.503   2.758   9.138  1.0468  0.8705  0.9069
  100OSM   H12G10089   4.496   2.907   9.051  1.9466 -1.6496  0.5791
  100OSM   C13F10090   4.299   2.818   9.083  0.5124  0.4838  0.2312
  100OSM   H13F10091   4.233   2.907   9.081  0.3840  0.3676 -1.3023
  100OSM   H13G10092   4.254   2.743   9.152 -0.1932 -0.5320 -1.2844
  100OSM   C14F10093   4.293   2.744   8.942  0.2220 -0.0931  0.3573
  100OSM   H14F10094   4.321   2.638   8.960 -2.3250 -0.8996 -0.2099
  100OSM   H14G10095   4.383   2.759   8.880  0.3023 -0.2575  0.4325
  100OSM   C15F10096   4.164   2.751   8.858 -0.1245  0.4597 -0.1067
  100OSM   H15F10097   4.111   2.847   8.879  0.4720  1.1836 -1.8119
  100OSM   H15G10098   4.101   2.663   8.881 -2.0532  1.7964 -0.1156
  100OSM   C16F10099   4.182   2.759   8.707  0.7719 -0.2925 -0.3770
  100OSM   H16F10100   4.229   2.667   8.667  0.4490 -0.5517 -0.1672
  100OSM   H16G10101   4.243   2.844   8.671  0.1955  1.2944  2.2872
  100OSM   C17F10102   4.048   2.775   8.636 -0.0927  0.0060 -0.1207
  100OSM   H17F10103   3.987   2.863   8.666 -0.2199  0.0055 -0.3742
  100OSM   H17G10104   3.983   2.687   8.648 -1.4314  1.0721  0.5888
  100OSM   C18F10105   4.068   2.795   8.484  0.3560  0.2978  0.2795
  100OSM   H18F10106   3.976   2.781   8.423 -0.2431 -0.7010  1.4037
  100OSM   H18G10107   4.136   2.713   8.451  0.0731  0.0178  0.3987
  100OSM   H18H10108   4.116   2.888   8.445 -0.4277  0.4340 -0.3713
  101OSM      N10109   0.160   3.329  11.067 -0.6364  0.6113 -0.0142
  101OSM    C1510110   0.054   3.311  11.169  0.1855  0.1641 -0.1547
  101OSM   H15A10111  -0.022   3.385  11.149  1.3774  0.5404 -3.7079
  101OSM   H15B10112   0.101   3.328  11.265 -0.5472 -1.3823  0.4962
  101OSM   H15C10113   0.023   3.208  11.182 -2.9052  1.0708  0.0150
  101OSM    C1410114   0.243   3.200  11.067  0.1041  0.1045 -0.8616
  101OSM   H14A10115   0.330   3.208  11.004  0.2389 -1.6630 -0.9111
  101OSM   H14B10116   0.169   3.130  11.034 -0.5407 -0.7205  2.1229
  101OSM   H14C10117   0.265   3.163  11.167  2.1209 -0.5817 -1.5362
  101OSM    C1310118   0.095   3.350  10.937 -0.0821 -0.2796  0.5739
  101OSM   H13A10119   0.011   3.416  10.954  0.1914 -0.2794  2.0178
  101OSM   H13B10120   0.053   3.258  10.898 -0.1992 -0.4657  1.1337
  101OSM   H13C10121   0.161   3.387  10.860 -1.6113  0.8434 -0.2300
  101OSM    C1210122   0.244   3.453  11.102 -0.0882 -0.8772  0.0640
  101OSM   H12A10123   0.306   3.424  11.185 -0.3522 -0.9634  0.2291
  101OSM   H12B10124   0.172   3.522  11.143 -0.2207 -0.4905 -0.7929
  101OSM    C1110125   0.331   3.510  10.991  0.1586  0.0745 -0.2845
  101OSM   H11A10126   0.257   3.539  10.913 -0.5284 -0.0867  0.2994
  101OSM   H11B10127   0.409   3.440  10.955  0.8721  1.2238 -0.9947
  101OSM      P10128   0.479   3.702  10.920 -0.5444  0.3430 -0.0299
  101OSM    O1310129   0.505   3.837  10.964 -0.5591  0.9323  0.7135
  101OSM    O1410130   0.595   3.613  10.889  0.1248  0.4244 -0.2163
  101OSM    O1110131   0.378   3.715  10.791  0.4755  0.2076 -0.1648
  101OSM    O1210132   0.395   3.627  11.035 -0.1051  0.6587 -0.1346
  101OSM    C1S10133   0.422   3.784  10.673  0.1179  0.3399  0.3400
  101OSM    H1S10134   0.523   3.830  10.681  1.7909 -2.8979 -0.9643
  101OSM    H1T10135   0.353   3.867  10.646  0.7956  1.1509  1.0969
  101OSM     NF10136   0.465   3.724  10.433 -0.5273 -0.7399 -0.1169
  101OSM    HNF10137   0.394   3.729  10.363 -0.2463 -0.1639 -0.3618
  101OSM    C2S10138   0.430   3.667  10.562 -0.0061 -0.4090  0.5320
  101OSM    H2S10139   0.512   3.600  10.597  0.8631  0.9060  1.0452
  101OSM    C3S10140   0.297   3.584  10.554  0.1959 -0.2076 -0.7538
  101OSM    H3S10141   0.219   3.656  10.521 -0.9050 -0.1354  1.9105
  101OSM     O310142   0.247   3.517  10.671  0.5024 -0.0400 -0.3341
  101OSM    HO310143   0.273   3.582  10.737  0.7569  1.7667 -2.1773
  101OSM    C4S10144   0.308   3.485  10.438  0.1426  0.4909  0.6383
  101OSM    H4S10145   0.280   3.526  10.340 -0.6598 -0.7151  0.3491
  101OSM    C5S10146   0.343   3.354  10.440 -0.4867  0.5706  0.2436
  101OSM    H5S10147   0.372   3.320  10.540 -1.1606 -0.4972  0.0747
  101OSM    C6S10148   0.350   3.246  10.334  0.1289 -0.2337 -0.2819
  101OSM    H6S10149   0.273   3.259  10.254  0.4576 -1.0544 -0.7329
  101OSM    H6T10150   0.318   3.151  10.382  0.8308 -0.5869 -0.5104
  101OSM    C7S10151   0.495   3.229  10.284 -0.8953 -0.0024  0.2561
  101OSM    H7S10152   0.489   3.143  10.214  1.6989  0.1184 -0.1577
  101OSM    H7T10153   0.559   3.205  10.372 -0.6735 -0.4338 -0.0243
  101OSM    C8S10154   0.551   3.346  10.199 -0.2965  0.1828 -0.0556
  101OSM    H8S10155   0.650   3.310  10.163 -1.5057 -2.3101 -0.9707
  101OSM    H8T10156   0.569   3.434  10.266  3.4991  1.4750 -2.5910
  101OSM    C9S10157   0.466   3.390  10.074  1.0163  0.9449 -0.1981
  101OSM    H9S10158   0.365   3.429  10.099  0.5439  0.9494 -2.0591
  101OSM    H9T10159   0.444   3.294  10.023 -3.8005 -0.0529  3.4255
  101OSM   C10S10160   0.528   3.483   9.976 -0.6731  0.3121 -0.1356
  101OSM   H10S10161   0.632   3.447   9.958 -0.8735 -0.1135 -0.4357
  101OSM   H10T10162   0.534   3.579  10.031 -1.9977  0.2246  0.1787
  101OSM   C11S10163   0.460   3.486   9.837 -1.0343 -0.6629 -0.5461
  101OSM   H11S10164   0.357   3.526   9.841 -0.1825  1.4410  2.5194
  101OSM   H11T10165   0.457   3.382   9.798  2.9385 -1.8328  1.9646
  101OSM   C12S10166   0.533   3.585   9.741 -0.4649  0.0718  0.6360
  101OSM   H12S10167   0.637   3.547   9.731 -0.6318 -0.6737  1.6316
  101OSM   H12T10168   0.543   3.684   9.788  2.2420  0.1760 -0.0433
  101OSM   C13S10169   0.465   3.574   9.597  0.0046  0.9005  0.1867
  101OSM   H13S10170   0.376   3.641   9.599 -0.1601  0.6727  0.4408
  101OSM   H13T10171   0.447   3.469   9.569 -0.3197  1.3363 -1.2756
  101OSM   C14S10172   0.577   3.630   9.498 -0.3248  0.0453 -0.3132
  101OSM   H14S10173   0.673   3.574   9.502  0.1576  0.9885  2.7606
  101OSM   H14T10174   0.596   3.735   9.529 -3.1731  0.2173  0.9218
  101OSM   C15S10175   0.521   3.622   9.353 -0.1761  0.0332 -0.4627
  101OSM   H15S10176   0.481   3.519   9.344 -0.5284 -0.0218  1.4894
  101OSM   H15T10177   0.601   3.627   9.277  1.1402 -2.0385  0.7491
  101OSM   C16S10178   0.408   3.717   9.323 -0.0392  0.2978 -0.0647
  101OSM   H16S10179   0.442   3.820   9.347 -1.2744  0.4908  0.9201
  101OSM   H16T10180   0.314   3.690   9.377 -1.3627  0.9158 -2.0153
  101OSM   C17S10181   0.363   3.728   9.174  0.0004  0.8557 -0.1800
  101OSM   H17S10182   0.460   3.751   9.125 -0.2087  0.6361 -0.6895
  101OSM   H17T10183   0.298   3.817   9.159 -1.2490  0.0319  0.2239
  101OSM   C18S10184   0.307   3.596   9.125  0.4681  0.1845  1.2239
  101OSM   H18S10185   0.381   3.516   9.146 -0.0383 -0.9979 -1.3192
  101OSM   H18T10186   0.286   3.590   9.016 -0.8705  1.2823  1.4038
  101OSM   H18U10187   0.203   3.574   9.159  0.3287  0.3225  0.8993
  101OSM    C1F10188   0.583   3.778  10.408  0.4944 -0.4525  0.4325
  101OSM     OF10189   0.660   3.785  10.500  0.3714  0.5203 -0.1465
  101OSM    C2F10190   0.604   3.848  10.275 -0.2403  0.4390  0.3648
  101OSM    H2F10191   0.516   3.911  10.252 -0.2632  0.8359  1.5425
  101OSM    H2G10192   0.618   3.764  10.203  0.8386 -0.8375  2.0350
  101OSM    C3F10193   0.735   3.924  10.276  0.2029 -0.2242  0.4392
  101OSM    H3F10194   0.822   3.855  10.281  1.3530  1.1631 -0.0650
  101OSM    H3G10195   0.743   3.969  10.377  0.7465 -0.5409  0.5379
  101OSM    C4F10196   0.755   4.027  10.166  0.6334  0.0797  0.8536
  101OSM    H4F10197   0.849   4.085  10.175  1.1275 -0.7381  0.9659
  101OSM    H4G10198   0.671   4.100  10.163 -0.0091 -0.7017 -1.2946
  101OSM    C5F10199   0.749   3.946  10.038 -0.3207  0.0429  0.2389
  101OSM    H5F10200   0.649   3.908  10.009  0.0999  0.2329 -1.5551
  101OSM    H5G10201   0.815   3.857  10.045 -1.1278 -0.6857 -1.0874
  101OSM    C6F10202   0.790   4.028   9.912 -0.1998  0.1401 -0.3131
  101OSM    H6F10203   0.738   4.125   9.903 -1.3200 -0.4971 -0.7680
  101OSM    H6G10204   0.898   4.052   9.925 -1.0769  2.7485  2.9196
  101OSM    C7F10205   0.773   3.936   9.793 -0.0148 -0.1592 -0.2179
  101OSM    H7F10206   0.671   3.892   9.788  0.3309 -0.7952 -2.0238
  101OSM    H7G10207   0.838   3.847   9.806  0.3195 -0.2722 -2.5480
  101OSM    C8F10208   0.821   4.009   9.664 -0.2935 -0.3316 -0.5321
  101OSM    H8F10209   0.919   4.052   9.693 -0.5327 -0.1879  0.0816
  101OSM    H8G10210   0.766   4.103   9.645  0.9453  0.4500 -0.3198
  101OSM    C9F10211   0.827   3.915   9.549 -0.0646  0.4200 -0.0359
  101OSM    H9F10212   0.889   3.829   9.576  0.5361  1.0070  0.4581
  101OSM   C10F10213   0.772   3.923   9.427  0.2662 -0.4579 -0.1725
  101OSM   H10F10214   0.804   3.848   9.353  1.4695  0.3561 -0.4795
  101OSM   C11F10215   0.683   4.030   9.372  0.8682 -0.1308 -0.5403
  101OSM   H11F10216   0.654   4.097   9.456  1.6199  0.6905 -0.9323
  101OSM   H11G10217   0.588   3.988   9.332 -0.1260 -1.0949  2.6900
  101OSM   C12F10218   0.758   4.129   9.279 -0.3026 -0.3654  0.1126
  101OSM   H12F10219   0.851   4.174   9.319 -0.2658 -0.2441 -0.1098
  101OSM   H12G10220   0.690   4.215   9.263  1.8405  0.9133 -2.4474
  101OSM   C13F10221   0.788   4.067   9.142  0.9782  0.0979  0.2390
  101OSM   H13F10222   0.694   4.019   9.107  0.6956  0.2720  0.7587
  101OSM   H13G10223   0.858   3.981   9.142  0.0302 -0.6873 -0.3776
  101OSM   C14F10224   0.821   4.175   9.041  0.0283 -0.1918  0.4845
  101OSM   H14F10225   0.869   4.122   8.955 -0.4104  1.3843 -0.7716
  101OSM   H14G10226   0.886   4.245   9.098  1.6720  0.1618 -1.7499
  101OSM   C15F10227   0.702   4.258   8.980 -0.2698 -0.7721 -0.2990
  101OSM   H15F10228   0.643   4.309   9.059 -0.5920 -0.8726 -0.4743
  101OSM   H15G10229   0.624   4.197   8.930 -2.4653  1.3406  0.4796
  101OSM   C16F10230   0.746   4.377   8.893  0.0027  0.5033 -0.8159
  101OSM   H16F10231   0.663   4.406   8.824  0.0920 -0.6365 -1.4098
  101OSM   H16G10232   0.822   4.335   8.825  0.6895 -0.5793  0.6114
  101OSM   C17F10233   0.806   4.503   8.967  0.1877  0.3812  0.7940
  101OSM   H17F10234   0.901   4.484   9.021  0.9836  0.3994 -0.5925
  101OSM   H17G10235   0.722   4.524   9.038  0.8198 -2.1351  2.3478
  101OSM   C18F10236   0.836   4.619   8.876  0.2340 -0.4017  1.1051
  101OSM   H18F10237   0.842   4.714   8.935  0.3288  0.3931 -0.1579
  101OSM   H18G10238   0.750   4.635   8.808 -0.9574 -0.6653  2.5083
  101OSM   H18H10239   0.932   4.618   8.821  0.6169  1.2980  1.6990
  102OSM      N10240   3.344   5.198  11.000  0.1305  0.7001 -0.7949
  102OSM    C1510241   3.477   5.176  11.050 -0.1009  0.5063  0.7614
  102OSM   H15A10242   3.523   5.256  11.107  1.4933 -0.0977  0.3357
  102OSM   H15B10243   3.547   5.150  10.973  0.5071 -0.2491  1.5626
  102OSM   H15C10244   3.471   5.091  11.116 -1.3515 -1.4661 -1.7740
  102OSM    C1410245   3.298   5.066  10.947  0.9970  0.0776  0.6567
  102OSM   H14A10246   3.340   4.988  11.008 -1.8688 -2.0968 -0.0610
  102OSM   H14B10247   3.344   5.053  10.850  0.6170 -0.6271  0.5731
  102OSM   H14C10248   3.191   5.052  10.937  1.3231 -2.0080 -0.0543
  102OSM    C1310249   3.256   5.247  11.111 -0.0428  0.9639 -0.6226
  102OSM   H13A10250   3.262   5.169  11.185  1.1049 -0.4249 -2.1525
  102OSM   H13B10251   3.153   5.256  11.080 -0.7540 -1.3814  0.9920
  102OSM   H13C10252   3.286   5.344  11.150  1.0638  0.2375  0.3621
  102OSM    C1210253   3.345   5.298  10.890  0.3081  0.2918  0.1486
  102OSM   H12A10254   3.415   5.271  10.812  1.2768  0.0410  1.0950
  102OSM   H12B10255   3.389   5.388  10.929  2.2112  0.1825 -1.6843
  102OSM    C1110256   3.211   5.327  10.812 -0.7275 -0.0319  0.6274
  102OSM   H11A10257   3.216   5.416  10.745  2.3126 -0.7554 -0.1681
  102OSM   H11B10258   3.125   5.348  10.880 -1.0227 -0.4273  0.3745
  102OSM      P10259   3.236   5.168  10.597  0.2358 -0.1620 -0.0089
  102OSM    O1310260   3.377   5.148  10.617 -0.9994 -0.0940 -0.9111
  102OSM    O1410261   3.164   5.046  10.549 -0.6508 -0.1409 -0.2004
  102OSM    O1110262   3.208   5.281  10.494 -0.6102 -0.3923 -0.1753
  102OSM    O1210263   3.165   5.215  10.732 -0.1395 -0.9742 -0.3234
  102OSM    C1S10264   3.085   5.361  10.476  0.2086 -0.6327 -0.5302
  102OSM    H1S10265   3.091   5.445  10.549 -0.7455  0.1809 -1.3900
  102OSM    H1T10266   2.999   5.297  10.505 -0.3941  0.5496  0.3023
  102OSM     NF10267   2.956   5.515  10.322 -0.3235 -0.0630 -0.0398
  102OSM    HNF10268   2.876   5.476  10.277  1.7308 -0.9266 -3.0526
  102OSM    C2S10269   3.080   5.434  10.339 -0.5296  0.5506 -0.9597
  102OSM    H2S10270   3.166   5.503  10.349 -0.7857  0.6481  0.7057
  102OSM    C3S10271   3.101   5.338  10.216  0.5783  0.0526 -0.2863
  102OSM    H3S10272   3.019   5.264  10.220  1.0519 -0.3923  1.5391
  102OSM     O310273   3.217   5.251  10.221  0.1215  0.3016  0.3390
  102OSM    HO310274   3.251   5.265  10.310 -1.5932  1.1783  0.8727
  102OSM    C4S10275   3.098   5.416  10.087  0.1613  0.1900 -0.2323
  102OSM    H4S10276   3.001   5.405  10.036 -0.0962  2.9854 -0.4440
  102OSM    C5S10277   3.190   5.496  10.030  0.2550 -0.6873 -0.3045
  102OSM    H5S10278   3.282   5.535  10.076 -1.0856  0.5727  1.3653
  102OSM    C6S10279   3.160   5.546   9.888  0.8295 -0.7434  0.3089
  102OSM    H6S10280   3.237   5.530   9.809  1.3365  0.2306  0.6011
  102OSM    H6T10281   3.162   5.656   9.903  0.8891 -0.8431  1.0497
  102OSM    C7S10282   3.027   5.509   9.813  0.1766  0.0791 -0.2184
  102OSM    H7S10283   2.947   5.532   9.887 -1.3424 -0.4580 -1.6333
  102OSM    H7T10284   3.037   5.400   9.794 -0.6895 -0.5484  2.7087
  102OSM    C8S10285   2.999   5.589   9.691  0.7527  0.2511 -0.4223
  102OSM    H8S10286   3.084   5.588   9.619  0.6596 -0.0024 -0.5267
  102OSM    H8T10287   2.977   5.696   9.712  0.2781 -0.0299  0.5405
  102OSM    C9S10288   2.870   5.549   9.622 -0.2518 -0.1116 -0.4660
  102OSM    H9S10289   2.797   5.572   9.703 -1.1968 -0.6762 -1.1532
  102OSM    H9T10290   2.872   5.438   9.620 -1.4890 -0.1269 -1.0900
  102OSM   C10S10291   2.835   5.618   9.492  0.5038  0.0037 -0.5479
  102OSM   H10S10292   2.906   5.583   9.414  1.3710  1.3580 -0.3839
  102OSM   H10T10293   2.859   5.726   9.502  0.6419 -0.0611 -0.1698
  102OSM   C11S10294   2.689   5.597   9.446 -0.5485  0.0643 -0.5086
  102OSM   H11S10295   2.629   5.635   9.531  0.8397  1.2934 -0.0491
  102OSM   H11T10296   2.668   5.488   9.434 -1.0227  0.1392 -0.3568
  102OSM   C12S10297   2.670   5.659   9.310 -0.2206 -0.1127  0.1953
  102OSM   H12S10298   2.585   5.604   9.266  0.1682 -1.6827  1.3786
  102OSM   H12T10299   2.754   5.637   9.240  0.4006 -0.4662  1.0425
  102OSM   C13S10300   2.659   5.811   9.316 -0.2588 -0.2766  0.1866
  102OSM   H13S10301   2.761   5.852   9.333 -0.5592  0.9495 -0.8419
  102OSM   H13T10302   2.585   5.849   9.389  2.5288  1.7768  2.0364
  102OSM   C14S10303   2.600   5.869   9.186  0.2896 -0.3423  0.5571
  102OSM   H14S10304   2.501   5.822   9.164 -0.4736  0.0409  3.0278
  102OSM   H14T10305   2.669   5.857   9.100 -0.0809 -0.1430  0.2264
  102OSM   C15S10306   2.579   6.027   9.196  0.0236 -0.4237 -0.3700
  102OSM   H15S10307   2.678   6.075   9.189 -0.6860  1.1115 -0.0445
  102OSM   H15T10308   2.532   6.059   9.291  0.4535  3.0164 -1.2776
  102OSM   C16S10309   2.486   6.090   9.084 -0.1410  0.7170 -0.4845
  102OSM   H16S10310   2.383   6.060   9.111  0.7062 -1.2670  0.6508
  102OSM   H16T10311   2.513   6.053   8.983 -0.1108 -2.1691  0.5263
  102OSM   C17S10312   2.504   6.245   9.090  0.2478 -1.2770 -0.3312
  102OSM   H17S10313   2.612   6.267   9.076  0.2005 -1.8755 -1.7699
  102OSM   H17T10314   2.478   6.288   9.189  2.1835 -0.5979 -0.0989
  102OSM   C18S10315   2.422   6.321   8.982 -0.1378 -0.5916 -0.6774
  102OSM   H18S10316   2.418   6.427   9.014 -0.9539 -0.9416  0.4306
  102OSM   H18T10317   2.318   6.281   8.982 -1.1841  1.9785  0.6052
  102OSM   H18U10318   2.459   6.312   8.878  0.5457 -1.6772 -0.3587
  102OSM    C1F10319   2.934   5.618  10.401 -0.3201  0.1792  0.7083
  102OSM     OF10320   3.027   5.660  10.470  0.8331 -0.0009 -0.3935
  102OSM    C2F10321   2.790   5.667  10.382 -0.4659  0.9669 -0.8744
  102OSM    H2F10322   2.720   5.598  10.433  1.7967 -0.8644 -0.1258
  102OSM    H2G10323   2.777   5.663  10.272 -1.3352 -0.7244 -0.7231
  102OSM    C3F10324   2.770   5.822  10.403 -0.0234  0.6998 -0.1303
  102OSM    H3F10325   2.794   5.856  10.506 -2.6151  1.4219  0.2865
  102OSM    H3G10326   2.661   5.842  10.391  0.3378  2.0446 -1.2172
  102OSM    C4F10327   2.849   5.912  10.304 -0.6121  0.5668 -0.3317
  102OSM    H4F10328   2.801   5.918  10.204 -1.6514  0.2664  0.1436
  102OSM    H4G10329   2.951   5.873  10.284  0.3241  2.1396  1.1975
  102OSM    C5F10330   2.863   6.056  10.361  0.0060  0.5618  0.0832
  102OSM    H5F10331   2.967   6.090  10.344  0.7195 -1.9544 -0.7637
  102OSM    H5G10332   2.851   6.063  10.471 -1.1504 -2.7377  0.2237
  102OSM    C6F10333   2.781   6.162  10.280  0.2923  0.1599  0.7506
  102OSM    H6F10334   2.796   6.262  10.325 -2.6341  1.6026 -1.3355
  102OSM    H6G10335   2.675   6.130  10.286 -0.2855  2.2195  2.0376
  102OSM    C7F10336   2.825   6.178  10.134  0.0081 -1.0752 -0.1816
  102OSM    H7F10337   2.803   6.097  10.061 -0.4054  0.0664 -1.3289
  102OSM    H7G10338   2.935   6.195  10.139  0.0067 -1.1011 -0.0493
  102OSM    C8F10339   2.780   6.307  10.063  0.0774  0.5604  0.7790
  102OSM    H8F10340   2.828   6.305   9.963  1.2253  2.0766  1.2698
  102OSM    H8G10341   2.830   6.384  10.127  0.5791  1.4247 -0.6382
  102OSM    C9F10342   2.631   6.338  10.053  0.5640  0.1909 -0.1518
  102OSM    H9F10343   2.567   6.261  10.099  0.1932  0.3741 -0.3593
  102OSM   C10F10344   2.575   6.431   9.974  0.1878  0.3649 -0.7147
  102OSM   H10F10345   2.465   6.431   9.962  0.2416  1.5222 -1.2289
  102OSM   C11F10346   2.663   6.527   9.897 -0.1778 -0.6455  0.1940
  102OSM   H11F10347   2.746   6.572   9.955  0.6411 -0.1625 -1.3385
  102OSM   H11G10348   2.610   6.625   9.890 -0.8534 -0.6786  3.5462
  102OSM   C12F10349   2.704   6.480   9.755  0.1874 -0.4951 -0.0111
  102OSM   H12F10350   2.749   6.379   9.754 -1.6125 -1.3241 -3.6771
  102OSM   H12G10351   2.781   6.555   9.728 -1.1074  0.6796 -0.5090
  102OSM   C13F10352   2.588   6.487   9.654 -1.2595 -0.0333 -0.8124
  102OSM   H13F10353   2.535   6.584   9.658 -2.5921 -0.8013  0.5106
  102OSM   H13G10354   2.517   6.406   9.682 -0.6867  0.1787  1.3103
  102OSM   C14F10355   2.636   6.476   9.509  0.4486  0.0888  0.9832
  102OSM   H14F10356   2.630   6.366   9.495  3.3493 -0.1007  0.8426
  102OSM   H14G10357   2.744   6.497   9.493  0.1156  0.8274 -0.3269
  102OSM   C15F10358   2.552   6.552   9.407 -0.5318 -0.2589 -0.5250
  102OSM   H15F10359   2.601   6.539   9.308  0.6588 -0.0486  0.0300
  102OSM   H15G10360   2.561   6.656   9.445 -0.5878 -0.5608  0.3078
  102OSM   C16F10361   2.407   6.520   9.406 -0.1971 -0.1838  0.4698
  102OSM   H16F10362   2.373   6.490   9.508 -1.8138 -0.4695 -0.1469
  102OSM   H16G10363   2.395   6.434   9.338 -0.5604 -0.6434  1.1116
  102OSM   C17F10364   2.305   6.630   9.372 -0.4939  0.2548  1.2531
  102OSM   H17F10365   2.311   6.716   9.442 -0.2685  0.7956  0.5704
  102OSM   H17G10366   2.203   6.585   9.373 -1.1087  1.2069 -4.1816
  102OSM   C18F10367   2.326   6.690   9.233 -0.0776  0.4733 -0.0126
  102OSM   H18F10368   2.240   6.756   9.207  1.6936  1.5415 -3.5377
  102OSM   H18G10369   2.329   6.610   9.156 -1.5326 -0.0195  0.4309
  102OSM   H18H10370   2.414   6.757   9.220  0.1531  0.3775  1.0848
  103OSM      N10371   2.198   1.511  10.962  0.3145 -0.6842  0.7032
  103OSM    C1510372   2.151   1.616  11.061  0.3541  0.1961 -0.0949
  103OSM   H15A10373   2.195   1.711  11.033 -0.0674  0.8301  1.3460
  103OSM   H15B10374   2.194   1.594  11.157  0.9258  0.3037 -0.3192
  103OSM   H15C10375   2.044   1.626  11.071  0.5192  0.1071  2.0144
  103OSM    C1410376   2.346   1.507  10.953 -0.1972 -0.3054  0.0521
  103OSM   H14A10377   2.399   1.593  10.915  3.5775 -2.8872 -0.7657
  103OSM   H14B10378   2.376   1.418  10.899  1.4344  0.0083  0.4324
  103OSM   H14C10379   2.378   1.490  11.055 -1.8459  2.3319  1.0496
  103OSM    C1310380   2.141   1.380  11.017  0.0020 -0.3430  0.8628
  103OSM   H13A10381   2.190   1.362  11.112  0.3338 -0.9917  0.5749
  103OSM   H13B10382   2.158   1.299  10.947  0.6573 -1.8852  2.7540
  103OSM   H13C10383   2.034   1.381  11.032 -0.2668  2.1562 -0.9722
  103OSM    C1210384   2.128   1.543  10.829  0.0020  0.0511  0.2269
  103OSM   H12A10385   2.166   1.634  10.786  0.0462 -0.4588 -0.8466
  103OSM   H12B10386   2.022   1.549  10.849 -0.5276 -3.1569 -1.2968
  103OSM    C1110387   2.143   1.434  10.719  0.6431  0.5779  0.0739
  103OSM   H11A10388   2.248   1.399  10.704  0.6429 -0.4615  2.2609
  103OSM   H11B10389   2.118   1.478  10.620  0.6073 -0.3339 -0.3292
  103OSM      P10390   1.919   1.298  10.702 -0.0030  0.4230 -0.1809
  103OSM    O1310391   1.923   1.245  10.567 -0.1585  0.6906 -0.0911
  103OSM    O1410392   1.859   1.214  10.812 -0.1612 -0.2178 -0.4342
  103OSM    O1110393   1.851   1.443  10.704  0.8585  0.6105  0.4684
  103OSM    O1210394   2.072   1.314  10.745  0.0853  0.0414 -0.5283
  103OSM    C1S10395   1.865   1.538  10.595 -0.1911  0.3520 -0.0436
  103OSM    H1S10396   1.904   1.490  10.503 -0.5393 -0.2799  0.1364
  103OSM    H1T10397   1.934   1.617  10.630 -0.9856  1.5516 -1.1148
  103OSM     NF10398   1.777   1.750  10.492 -0.1341 -0.0269 -0.0957
  103OSM    HNF10399   1.763   1.831  10.548  0.6947  1.3144 -1.7707
  103OSM    C2S10400   1.738   1.626  10.558  0.5351 -0.1497  0.0941
  103OSM    H2S10401   1.675   1.561  10.494  0.4734 -3.0262  2.9908
  103OSM    C3S10402   1.651   1.659  10.684 -0.0791 -0.7369 -0.0983
  103OSM    H3S10403   1.716   1.724  10.747  1.3905 -1.2867 -1.0265
  103OSM     O310404   1.629   1.558  10.784 -0.4352 -0.4969  0.1456
  103OSM    HO310405   1.685   1.490  10.747 -1.9209 -0.3669 -2.4364
  103OSM    C4S10406   1.524   1.724  10.652  0.0171 -0.4944 -0.3822
  103OSM    H4S10407   1.552   1.814  10.595  1.4849 -1.6817 -1.6089
  103OSM    C5S10408   1.393   1.684  10.663 -0.7236 -0.3748 -0.0391
  103OSM    H5S10409   1.380   1.585  10.709 -2.0593  0.8131  2.1979
  103OSM    C6S10410   1.272   1.763  10.622  0.5770  0.0548 -0.1009
  103OSM    H6S10411   1.225   1.806  10.714 -0.4445 -1.4842  0.1163
  103OSM    H6T10412   1.190   1.702  10.579  0.7749 -0.2087 -0.1089
  103OSM    C7S10413   1.306   1.875  10.512  0.7052 -0.1619 -0.1891
  103OSM    H7S10414   1.368   1.956  10.555 -1.5552  0.7663  1.4371
  103OSM    H7T10415   1.212   1.934  10.502  1.2480  0.5690 -1.1150
  103OSM    C8S10416   1.340   1.834  10.370 -0.4085  1.0290 -0.1735
  103OSM    H8S10417   1.258   1.783  10.317 -0.0598  0.2256  0.0590
  103OSM    H8T10418   1.423   1.761  10.380 -2.1968 -0.8799  1.0718
  103OSM    C9S10419   1.398   1.951  10.284 -0.2380 -1.0319  0.1241
  103OSM    H9S10420   1.324   2.034  10.291 -0.7281 -1.4548  0.0194
  103OSM    H9T10421   1.401   1.915  10.179 -1.7247 -0.8378 -0.0028
  103OSM   C10S10422   1.536   1.998  10.330  0.2474  1.3122  0.4676
  103OSM   H10S10423   1.586   1.902  10.359 -0.4603  0.6846 -0.3738
  103OSM   H10T10424   1.524   2.057  10.423 -0.0805 -0.4975  1.6076
  103OSM   C11S10425   1.609   2.078  10.223  0.5564 -0.0460 -0.4575
  103OSM   H11S10426   1.606   2.011  10.134  3.7871 -0.9925  0.0744
  103OSM   H11T10427   1.717   2.081  10.251  0.6330  1.3920 -0.8504
  103OSM   C12S10428   1.552   2.210  10.187 -0.1922 -0.0339 -0.6662
  103OSM   H12S10429   1.635   2.285  10.187  0.7995 -1.1053 -2.0436
  103OSM   H12T10430   1.496   2.262  10.268  0.8474  0.4867 -0.2630
  103OSM   C13S10431   1.484   2.211  10.050  0.2554  0.1353  0.2953
  103OSM   H13S10432   1.456   2.317  10.030  0.6973 -0.3529 -3.2666
  103OSM   H13T10433   1.391   2.152  10.063  0.9400 -1.1497 -0.5397
  103OSM   C14S10434   1.562   2.158   9.934 -0.1990  0.7202 -0.1595
  103OSM   H14S10435   1.556   2.047   9.936  2.1029  0.5593 -0.1392
  103OSM   H14T10436   1.667   2.191   9.951 -0.4455  1.5638 -0.2774
  103OSM   C15S10437   1.517   2.217   9.800  0.2387 -0.1993 -0.1311
  103OSM   H15S10438   1.585   2.199   9.715 -0.6240 -0.1041 -0.8521
  103OSM   H15T10439   1.528   2.326   9.818 -2.0697 -0.2049  1.6220
  103OSM   C16S10440   1.367   2.198   9.758 -0.7359 -0.0214 -0.7336
  103OSM   H16S10441   1.307   2.230   9.846 -0.6510  0.8190 -0.9712
  103OSM   H16T10442   1.356   2.089   9.740  3.9563 -0.7906  0.2443
  103OSM   C17S10443   1.321   2.249   9.621 -0.2465  0.6668  0.6398
  103OSM   H17S10444   1.210   2.242   9.622 -0.2550  0.2613 -0.7769
  103OSM   H17T10445   1.347   2.176   9.542 -2.8684  0.3003  0.0796
  103OSM   C18S10446   1.355   2.392   9.586 -0.0367 -0.4094 -0.0323
  103OSM   H18S10447   1.296   2.467   9.643 -1.6681 -1.7222  0.0140
  103OSM   H18T10448   1.326   2.408   9.480  0.3548  0.6401  0.0106
  103OSM   H18U10449   1.460   2.425   9.602 -1.2270  1.5726  4.5853
  103OSM    C1F10450   1.861   1.749  10.385  0.0258  0.2870  0.7522
  103OSM     OF10451   1.864   1.649  10.317  0.5171  0.6374 -0.0930
  103OSM    C2F10452   1.939   1.874  10.364 -0.7499 -0.9052 -0.0886
  103OSM    H2F10453   2.027   1.862  10.430  0.3021 -0.3769 -1.3778
  103OSM    H2G10454   1.889   1.964  10.407  3.2801  1.0738  0.7202
  103OSM    C3F10455   1.986   1.894  10.220  0.9236 -0.4586  1.2905
  103OSM    H3F10456   1.892   1.898  10.160  1.3138  2.0868  0.8039
  103OSM    H3G10457   2.039   1.801  10.189  1.1855 -0.1115  0.6896
  103OSM    C4F10458   2.079   2.010  10.195 -0.1851  0.0304 -0.1138
  103OSM    H4F10459   2.167   1.999  10.262 -1.4065  3.1446  2.1638
  103OSM    H4G10460   2.039   2.102  10.243  0.3146 -0.2748  0.9148
  103OSM    C5F10461   2.119   2.016  10.042 -0.0945  0.5757  0.0635
  103OSM    H5F10462   2.129   1.912  10.005 -1.4947  1.3392 -2.6055
  103OSM    H5G10463   2.214   2.071  10.025 -1.0284  1.9597 -0.8665
  103OSM    C6F10464   2.010   2.096   9.951  0.3309  0.5400 -0.7984
  103OSM    H6F10465   2.022   2.203   9.980 -1.3511  0.9383 -1.5154
  103OSM    H6G10466   1.912   2.047   9.967  0.0932  1.4251  0.5484
  103OSM    C7F10467   2.038   2.076   9.801  0.5421 -0.0471 -0.1095
  103OSM    H7F10468   2.015   1.974   9.762  0.0176 -0.8672  2.2518
  103OSM    H7G10469   2.147   2.087   9.782  0.7777 -0.1384  1.1599
  103OSM    C8F10470   1.952   2.175   9.714 -0.3082  0.5346  0.9320
  103OSM    H8F10471   1.846   2.154   9.742 -0.1926 -0.8919  0.3377
  103OSM    H8G10472   1.948   2.137   9.610  3.0350 -0.3386  1.0849
  103OSM    C9F10473   1.993   2.323   9.722 -0.0553  1.2108 -0.0236
  103OSM    H9F10474   1.942   2.378   9.802 -0.8907 -0.5449  0.6706
  103OSM   C10F10475   2.085   2.386   9.651  0.5796  0.1261  0.2671
  103OSM   H10F10476   2.092   2.495   9.656  0.4672  0.0467  2.4119
  103OSM   C11F10477   2.163   2.318   9.534  0.5061  0.7749 -0.5596
  103OSM   H11F10478   2.146   2.209   9.529 -1.2612  0.9632  0.7882
  103OSM   H11G10479   2.271   2.342   9.545  0.8138 -0.5861 -0.5218
  103OSM   C12F10480   2.122   2.393   9.405  0.1090  1.1553 -0.0407
  103OSM   H12F10481   2.132   2.503   9.422 -1.4585  1.4075 -0.7139
  103OSM   H12G10482   2.022   2.362   9.368  0.7885  0.3040 -1.1641
  103OSM   C13F10483   2.223   2.381   9.292 -0.1163  0.1337 -0.4601
  103OSM   H13F10484   2.322   2.420   9.322  0.8302 -1.1680 -1.8332
  103OSM   H13G10485   2.181   2.433   9.203 -0.5767 -1.0805 -0.9602
  103OSM   C14F10486   2.229   2.226   9.253  0.5839 -0.4614  0.7014
  103OSM   H14F10487   2.232   2.162   9.344 -2.4003 -0.7536  0.6465
  103OSM   H14G10488   2.323   2.204   9.197  0.8604 -0.9026  1.3271
  103OSM   C15F10489   2.103   2.179   9.173 -0.1817 -0.2072  0.1990
  103OSM   H15F10490   2.001   2.188   9.217  0.5547  1.3514  1.6505
  103OSM   H15G10491   2.119   2.070   9.156  2.1958  0.4822 -2.3879
  103OSM   C16F10492   2.090   2.246   9.029  0.1784 -0.0022  0.2667
  103OSM   H16F10493   2.089   2.355   9.051  1.5228  0.4125 -1.6463
  103OSM   H16G10494   1.992   2.214   8.988  0.1213 -0.2218  0.5745
  103OSM   C17F10495   2.198   2.204   8.924 -0.4456  0.2119  1.4576
  103OSM   H17F10496   2.210   2.096   8.946  3.7440  0.3799  0.3698
  103OSM   H17G10497   2.298   2.246   8.949  0.1189 -0.9352  1.1399
  103OSM   C18F10498   2.168   2.229   8.774  0.1508  0.0043  0.2561
  103OSM   H18F10499   2.251   2.176   8.722 -0.1515 -0.1821 -0.0408
  103OSM   H18G10500   2.163   2.337   8.751  0.1575 -0.3562 -1.5262
  103OSM   H18H10501   2.069   2.183   8.750 -1.1389  2.4209  0.7754
  104OSM      N10502   3.225   1.575  11.122 -0.0505 -0.4593  0.1318
  104OSM    C1510503   3.170   1.713  11.161 -0.4899 -0.2639 -0.4339
  104OSM   H15A10504   3.240   1.785  11.122  2.8447 -3.4692 -0.6947
  104OSM   H15B10505   3.172   1.714  11.269 -0.9531 -1.3336 -0.4101
  104OSM   H15C10506   3.069   1.734  11.129 -0.5299  0.5152  0.1959
  104OSM    C1410507   3.361   1.563  11.187 -0.0778  0.1465  0.4373
  104OSM   H14A10508   3.427   1.637  11.145  0.5823  0.2108  1.5724
  104OSM   H14B10509   3.406   1.468  11.163 -0.9176 -0.5908  1.7219
  104OSM   H14C10510   3.360   1.579  11.294 -2.0123  4.4422 -0.1302
  104OSM    C1310511   3.139   1.483  11.179  0.7726  0.2431  0.4041
  104OSM   H13A10512   3.045   1.486  11.126  0.6085  1.7239  0.7459
  104OSM   H13B10513   3.115   1.503  11.283  0.1865 -0.6284  0.4382
  104OSM   H13C10514   3.172   1.381  11.177  0.4461  0.1539 -0.6108
  104OSM    C1210515   3.232   1.565  10.973 -0.0206 -0.3005 -0.1204
  104OSM   H12A10516   3.307   1.638  10.948  0.6276  0.0438  2.6447
  104OSM   H12B10517   3.138   1.607  10.938  0.3325  0.0704 -0.6335
  104OSM    C1110518   3.258   1.430  10.906  0.7397  0.3196  0.0307
  104OSM   H11A10519   3.336   1.377  10.965  0.2926  1.7101  1.9185
  104OSM   H11B10520   3.303   1.447  10.806 -2.1547 -1.3947 -1.6370
  104OSM      P10521   3.009   1.383  10.813 -0.5207  0.1891 -0.3898
  104OSM    O1310522   2.894   1.326  10.891 -0.4517 -0.2652 -0.2827
  104OSM    O1410523   2.992   1.522  10.766 -0.6820  0.0295 -0.1988
  104OSM    O1110524   3.038   1.285  10.695 -0.4651  0.1166  0.2749
  104OSM    O1210525   3.131   1.361  10.902  0.4203  0.4438 -0.4925
  104OSM    C1S10526   2.962   1.289  10.576  0.5512 -0.5660  0.0429
  104OSM    H1S10527   2.865   1.343  10.592  0.5815 -0.6428  0.5070
  104OSM    H1T10528   2.933   1.185  10.551  0.8396 -0.8658  0.9166
  104OSM     NF10529   2.956   1.399  10.355  0.2449 -0.2658 -0.1981
  104OSM    HNF10530   2.952   1.335  10.278  2.9869 -0.5133 -0.2019
  104OSM    C2S10531   3.041   1.354  10.465 -0.1685  0.1599  0.0463
  104OSM    H2S10532   3.092   1.444  10.503 -1.5032  1.3206 -0.8632
  104OSM    C3S10533   3.146   1.247  10.409 -0.2241 -0.0660  0.6232
  104OSM    H3S10534   3.099   1.159  10.358 -0.4633  0.7993 -0.6667
  104OSM     O310535   3.214   1.191  10.523  0.0959  0.1387 -0.4299
  104OSM    HO310536   3.174   1.234  10.599 -0.8806  0.1452 -0.9384
  104OSM    C4S10537   3.242   1.316  10.310  0.2356  0.1625 -0.8864
  104OSM    H4S10538   3.184   1.339  10.220  0.7569 -0.8728 -1.4914
  104OSM    C5S10539   3.370   1.362  10.325  0.3994 -0.5979  0.2635
  104OSM    H5S10540   3.423   1.346  10.420 -0.3876 -1.7154  0.5212
  104OSM    C6S10541   3.439   1.438  10.217 -0.0589 -0.0574 -0.0496
  104OSM    H6S10542   3.544   1.402  10.217 -0.0774 -0.1094 -0.2187
  104OSM    H6T10543   3.435   1.547  10.237 -1.1530 -0.0448 -0.2985
  104OSM    C7S10544   3.381   1.431  10.080 -0.4709 -0.8112  0.4259
  104OSM    H7S10545   3.284   1.484  10.072 -0.4938 -0.9222 -0.0071
  104OSM    H7T10546   3.361   1.325  10.053  1.1304 -0.9531 -0.2775
  104OSM    C8S10547   3.461   1.505   9.972  0.1177  0.0226 -0.8765
  104OSM    H8S10548   3.565   1.466   9.966  0.8345  2.0762 -2.2332
  104OSM    H8T10549   3.468   1.614   9.996  0.7502  0.0016 -0.9610
  104OSM    C9S10550   3.402   1.492   9.831 -0.3682 -0.1732  0.1438
  104OSM    H9S10551   3.296   1.521   9.846 -0.3798  0.3959 -1.0656
  104OSM    H9T10552   3.410   1.389   9.791 -1.1876 -0.2064  0.0503
  104OSM   C10S10553   3.485   1.573   9.726 -0.0104 -0.0956 -0.2431
  104OSM   H10S10554   3.580   1.530   9.687 -0.8983 -2.7596  0.4196
  104OSM   H10T10555   3.509   1.670   9.774 -0.2173  0.8121 -1.9107
  104OSM   C11S10556   3.400   1.599   9.596 -0.4467  0.3698 -0.0284
  104OSM   H11S10557   3.309   1.657   9.620  0.7581  1.6427  1.5193
  104OSM   H11T10558   3.369   1.496   9.567  1.3798 -0.2153  0.0812
  104OSM   C12S10559   3.477   1.689   9.495  0.3328  0.4929 -0.0747
  104OSM   H12S10560   3.580   1.650   9.487  0.2300  0.4889 -1.6820
  104OSM   H12T10561   3.481   1.792   9.537  0.4191 -0.2669  1.7842
  104OSM   C13S10562   3.419   1.709   9.352 -0.1024  1.1010  0.1945
  104OSM   H13S10563   3.320   1.756   9.365 -0.6859 -0.1597  0.3735
  104OSM   H13T10564   3.402   1.605   9.317  1.9923  0.4627  0.9896
  104OSM   C14S10565   3.510   1.780   9.253 -0.2585 -0.6765 -0.8157
  104OSM   H14S10566   3.610   1.734   9.242  0.2514  0.4514 -0.9685
  104OSM   H14T10567   3.529   1.884   9.287  1.5420 -0.9573 -0.9040
  104OSM   C15S10568   3.463   1.806   9.110  0.3367  0.4996 -0.5115
  104OSM   H15S10569   3.540   1.854   9.046  0.4475  0.8714 -0.0988
  104OSM   H15T10570   3.380   1.880   9.112 -0.3716 -0.3197  1.4496
  104OSM   C16S10571   3.426   1.668   9.049 -0.1877  0.0695  0.1652
  104OSM   H16S10572   3.343   1.617   9.103  1.1615 -0.6466  1.6296
  104OSM   H16T10573   3.514   1.602   9.060 -0.1109 -0.0199 -0.9194
  104OSM   C17S10574   3.389   1.674   8.898  0.3250 -0.7028  0.0116
  104OSM   H17S10575   3.375   1.569   8.864  1.0938 -1.0347  0.7017
  104OSM   H17T10576   3.468   1.720   8.835  0.5792  0.4800  1.1820
  104OSM   C18S10577   3.253   1.742   8.878  0.5921 -0.4972 -0.3231
  104OSM   H18S10578   3.179   1.689   8.941  1.6508 -1.7960 -0.1469
  104OSM   H18T10579   3.227   1.743   8.770  0.6155  1.0339 -0.3339
  104OSM   H18U10580   3.259   1.848   8.910  0.3318 -0.1305 -1.4458
  104OSM    C1F10581   2.867   1.497  10.375 -0.0607 -0.6647 -0.2812
  104OSM     OF10582   2.867   1.554  10.486  0.0790  0.5512  0.0984
  104OSM    C2F10583   2.758   1.515  10.275 -0.4242 -0.0552 -0.1065
  104OSM    H2F10584   2.671   1.452  10.302  0.1143 -3.3882 -5.5096
  104OSM    H2G10585   2.782   1.481  10.172  1.9054  1.0033  0.0493
  104OSM    C3F10586   2.712   1.659  10.264  0.6339  0.2763  0.6200
  104OSM    H3F10587   2.802   1.721  10.243 -0.4311  2.1008  1.2860
  104OSM    H3G10588   2.677   1.697  10.363 -0.6181  0.6127  0.0562
  104OSM    C4F10589   2.598   1.681  10.156  0.3056 -0.1467 -0.3241
  104OSM    H4F10590   2.578   1.790  10.164  2.2463  0.1500  0.6904
  104OSM    H4G10591   2.509   1.618  10.180 -1.3423  1.9242 -0.8108
  104OSM    C5F10592   2.646   1.642  10.020 -0.2630  0.5808  0.3376
  104OSM    H5F10593   2.648   1.532  10.010  0.5350  0.7604 -1.7040
  104OSM    H5G10594   2.750   1.677  10.007 -0.2902  0.9518  1.1183
  104OSM    C6F10595   2.553   1.689   9.901 -0.2768 -0.0814  0.3365
  104OSM    H6F10596   2.516   1.792   9.922 -1.6527 -0.8021  1.4549
  104OSM    H6G10597   2.452   1.643   9.905 -1.2486  2.1297  1.8746
  104OSM    C7F10598   2.630   1.667   9.765  0.2918 -0.0442  0.1831
  104OSM    H7F10599   2.650   1.558   9.769  1.9449  0.2221 -0.3945
  104OSM    H7G10600   2.723   1.726   9.763 -0.5277  1.3607  2.0273
  104OSM    C8F10601   2.543   1.685   9.637  0.5995 -0.1592  0.5883
  104OSM    H8F10602   2.454   1.621   9.652  1.0625 -0.8548  0.4100
  104OSM    H8G10603   2.606   1.645   9.554  0.3707 -0.3762  0.5184
  104OSM    C9F10604   2.499   1.823   9.611  0.0216  0.6954 -0.0741
  104OSM    H9F10605   2.417   1.857   9.676  0.5575  0.3279  0.8066
  104OSM   C10F10606   2.543   1.913   9.517  0.1361  0.0582  0.5353
  104OSM   H10F10607   2.499   2.014   9.518  0.1313  0.0503  1.3867
  104OSM   C11F10608   2.646   1.891   9.417  0.0721  0.4965  0.6740
  104OSM   H11F10609   2.734   1.838   9.460  0.0494 -0.5591 -0.5354
  104OSM   H11G10610   2.683   1.982   9.366 -0.9891  0.5251 -0.0571
  104OSM   C12F10611   2.607   1.807   9.298  0.0490 -0.3755  0.0390
  104OSM   H12F10612   2.515   1.847   9.251  1.9391  3.3351 -0.6976
  104OSM   H12G10613   2.592   1.701   9.325 -0.5061 -0.2758  0.1242
  104OSM   C13F10614   2.713   1.826   9.191  0.9401 -0.3291 -0.2795
  104OSM   H13F10615   2.798   1.763   9.224  2.1862  1.9532  1.0204
  104OSM   H13G10616   2.748   1.931   9.196 -0.7171  0.1696  1.0924
  104OSM   C14F10617   2.673   1.775   9.055 -0.0053  0.3873  0.6830
  104OSM   H14F10618   2.594   1.697   9.067  2.0593 -1.6690  1.1575
  104OSM   H14G10619   2.759   1.732   8.999 -3.4658 -3.9245 -1.6605
  104OSM   C15F10620   2.625   1.881   8.950  0.6370 -0.9430  0.2351
  104OSM   H15F10621   2.718   1.921   8.905  2.3090 -0.5501  3.8357
  104OSM   H15G10622   2.573   1.956   9.013 -0.9661 -2.0423  0.2574
  104OSM   C16F10623   2.535   1.824   8.837 -0.6152  0.0958 -0.0414
  104OSM   H16F10624   2.449   1.760   8.866 -2.2896  2.2871 -0.0609
  104OSM   H16G10625   2.600   1.767   8.767 -1.0893 -2.0193  1.1843
  104OSM   C17F10626   2.473   1.934   8.747  0.3353 -0.4248  0.2779
  104OSM   H17F10627   2.523   2.024   8.787  0.6382 -0.2469 -0.4879
  104OSM   H17G10628   2.363   1.937   8.767  0.3262 -0.5278  0.2462
  104OSM   C18F10629   2.483   1.921   8.595 -0.5028 -0.1151 -0.2343
  104OSM   H18F10630   2.395   1.963   8.543  1.5188  1.1786 -2.7412
  104OSM   H18G10631   2.496   1.815   8.565 -0.3686  0.9868 -4.3737
  104OSM   H18H10632   2.577   1.971   8.563 -1.3518 -0.9827 -4.2395
  105OSM      N10633   6.584   4.280  10.952  0.0813 -0.0561  0.3638
  105OSM    C1510634   6.628   4.234  10.817  0.1620 -0.6543 -0.2040
  105OSM   H15A10635   6.659   4.312  10.748  2.7369 -1.0745  0.4335
  105OSM   H15B10636   6.546   4.180  10.773 -0.2576  0.8854 -1.3547
  105OSM   H15C10637   6.715   4.172  10.833  1.1686  0.9095  0.5954
  105OSM    C1410638   6.694   4.296  11.054  0.1943  0.9508  0.5117
  105OSM   H14A10639   6.747   4.202  11.051  1.8489  1.7415  3.1662
  105OSM   H14B10640   6.652   4.305  11.153 -3.1605 -1.3012 -0.6262
  105OSM   H14C10641   6.760   4.378  11.032  1.2524 -0.0998 -0.3315
  105OSM    C1310642   6.519   4.418  10.944 -0.6625  0.3748 -0.2731
  105OSM   H13A10643   6.510   4.450  11.047 -0.6691  0.0263 -0.1632
  105OSM   H13B10644   6.422   4.413  10.898 -0.8567 -1.0795  0.2597
  105OSM   H13C10645   6.578   4.491  10.890 -0.6803  0.5462 -0.0606
  105OSM    C1210646   6.478   4.183  11.002 -0.7285 -0.4507  0.1665
  105OSM   H12A10647   6.436   4.215  11.096 -2.5376 -0.7348 -0.5291
  105OSM   H12B10648   6.520   4.089  11.034 -1.7895 -0.4309  1.6695
  105OSM    C1110649   6.358   4.166  10.904 -0.0609  0.1203 -0.3950
  105OSM   H11A10650   6.321   4.263  10.863  1.4509  1.2959  0.9887
  105OSM   H11B10651   6.275   4.137  10.972  0.2801 -2.4206 -1.0240
  105OSM      P10652   6.380   3.925  10.821 -0.0470  0.8808  0.4535
  105OSM    O1310653   6.506   3.854  10.795  0.3906  0.1993 -0.0362
  105OSM    O1410654   6.321   3.887  10.955  1.0232 -1.0253  0.2848
  105OSM    O1110655   6.277   3.880  10.701 -0.0183  0.7536 -0.7106
  105OSM    O1210656   6.387   4.076  10.796  0.1121 -0.3252  0.3776
  105OSM    C1S10657   6.162   3.946  10.652 -0.2951  0.1373 -0.1892
  105OSM    H1S10658   6.124   4.018  10.728  2.4831  0.6171  0.7995
  105OSM    H1T10659   6.088   3.870  10.621 -0.8699 -0.0423  1.5746
  105OSM     NF10660   6.057   4.078  10.464  0.1054  0.1311  0.0329
  105OSM    HNF10661   6.014   4.026  10.391 -0.1568  1.6649 -0.9244
  105OSM    C2S10662   6.184   4.027  10.517  0.4999  0.1914 -0.8349
  105OSM    H2S10663   6.270   4.096  10.529  2.5127 -1.8751 -2.7945
  105OSM    C3S10664   6.242   3.924  10.416 -0.0916  0.3492  0.4335
  105OSM    H3S10665   6.173   3.837  10.425 -0.6243  0.6711 -0.4700
  105OSM     O310666   6.372   3.868  10.439  0.0990  0.4063 -0.4624
  105OSM    HO310667   6.358   3.831  10.526 -0.6201  2.0143  0.1198
  105OSM    C4S10668   6.233   3.981  10.274  0.3946 -0.2620 -0.9217
  105OSM    H4S10669   6.139   3.964  10.221  0.7541  0.2537 -1.7315
  105OSM    C5S10670   6.329   4.041  10.202 -0.2639  0.8636  0.2621
  105OSM    H5S10671   6.429   4.049  10.248 -0.0619  1.5015 -0.2751
  105OSM    C6S10672   6.322   4.087  10.056  0.6246 -1.1833  0.4931
  105OSM    H6S10673   6.402   4.044   9.992  0.5935 -0.6024  0.0587
  105OSM    H6T10674   6.341   4.196  10.057 -2.1390 -0.6592  0.0768
  105OSM    C7S10675   6.181   4.066   9.993  0.1049 -0.2863  0.3015
  105OSM    H7S10676   6.104   4.120  10.053  0.3531 -0.6216  0.9320
  105OSM    H7T10677   6.152   3.959   9.998 -1.3133  0.0331 -0.7620
  105OSM    C8S10678   6.176   4.113   9.850 -0.2338 -0.1221  0.0761
  105OSM    H8S10679   6.207   4.220   9.848 -0.5540 -0.0218  0.3464
  105OSM    H8T10680   6.069   4.101   9.821  0.2203 -1.5119 -1.0502
  105OSM    C9S10681   6.263   4.033   9.745  0.4609  0.1257  0.4386
  105OSM    H9S10682   6.241   3.924   9.746 -0.3023  0.2814  1.4191
  105OSM    H9T10683   6.370   4.040   9.776  0.6260 -0.4921  0.0337
  105OSM   C10S10684   6.269   4.096   9.605  0.6038  0.1886 -0.0497
  105OSM   H10S10685   6.300   4.202   9.593 -2.6657  0.9790 -2.0639
  105OSM   H10T10686   6.164   4.112   9.574  1.6388  3.1216 -2.2392
  105OSM   C11S10687   6.336   4.010   9.499  0.3197 -0.0743  0.5329
  105OSM   H11S10688   6.300   3.907   9.518 -1.6246  0.6807  1.0726
  105OSM   H11T10689   6.447   4.015   9.512  0.2032 -0.2106  1.5561
  105OSM   C12S10690   6.309   4.035   9.355 -0.3433  0.3230 -0.7231
  105OSM   H12S10691   6.342   4.135   9.320  1.3716  0.2268  0.5461
  105OSM   H12T10692   6.202   4.045   9.327 -0.9505 -1.5443  0.7881
  105OSM   C13S10693   6.358   3.924   9.266  0.1465  0.3941 -0.4637
  105OSM   H13S10694   6.302   3.829   9.275  1.4487 -0.1898  1.7362
  105OSM   H13T10695   6.457   3.901   9.309 -0.5636  0.0640  1.0394
  105OSM   C14S10696   6.395   3.958   9.127 -0.2774  0.5933  0.4525
  105OSM   H14S10697   6.458   4.049   9.134  0.2886  0.1605  1.0862
  105OSM   H14T10698   6.298   3.979   9.076 -1.7004 -2.5369  1.6937
  105OSM   C15S10699   6.467   3.838   9.063 -0.3494 -0.3301 -0.7850
  105OSM   H15S10700   6.393   3.756   9.076 -1.3024  0.9633  2.5476
  105OSM   H15T10701   6.555   3.813   9.127 -1.4289 -3.0245 -0.2616
  105OSM   C16S10702   6.508   3.848   8.923  0.2587 -0.4930  0.1851
  105OSM   H16S10703   6.559   3.944   8.898 -0.3363 -0.3350 -0.4344
  105OSM   H16T10704   6.422   3.844   8.852 -0.8235 -0.4554  1.4807
  105OSM   C17S10705   6.596   3.726   8.888 -0.0100 -0.7258 -0.2028
  105OSM   H17S10706   6.530   3.637   8.895 -0.1935 -0.4320  2.1508
  105OSM   H17T10707   6.679   3.717   8.962  1.9445  0.2677 -2.2132
  105OSM   C18S10708   6.654   3.750   8.743 -0.0133 -0.1871  0.4187
  105OSM   H18S10709   6.571   3.744   8.670 -0.1275 -0.9299  0.6074
  105OSM   H18T10710   6.729   3.670   8.722 -0.2604 -0.8689  2.0697
  105OSM   H18U10711   6.707   3.847   8.736 -4.6272  2.5513  1.3895
  105OSM    C1F10712   5.996   4.179  10.525  0.1630 -0.2916 -0.1782
  105OSM     OF10713   6.043   4.225  10.627 -0.5354 -0.3838 -0.1579
  105OSM    C2F10714   5.879   4.237  10.456 -0.5611  0.5651  1.2835
  105OSM    H2F10715   5.806   4.268  10.534  2.0162  1.6631  3.3580
  105OSM    H2G10716   5.832   4.161  10.391  1.7468  0.1888 -0.0155
  105OSM    C3F10717   5.899   4.363  10.373  0.1569 -0.5504  0.7815
  105OSM    H3F10718   5.942   4.450  10.428  0.1205  0.8250 -1.3082
  105OSM    H3G10719   5.804   4.392  10.321  1.2101 -1.0022 -1.4507
  105OSM    C4F10720   5.998   4.339  10.255  0.5647 -0.0398  0.1686
  105OSM    H4F10721   5.970   4.244  10.205 -2.0542  1.0734 -0.5656
  105OSM    H4G10722   6.099   4.327  10.301  0.7614  1.1588  0.0700
  105OSM    C5F10723   6.009   4.466  10.176 -0.5128 -0.1781  0.5597
  105OSM    H5F10724   6.071   4.540  10.230 -0.1652  0.0119 -0.0954
  105OSM    H5G10725   5.910   4.515  10.167 -0.9879 -0.8235  2.0064
  105OSM    C6F10726   6.077   4.442  10.040 -0.2252  0.1999 -0.8707
  105OSM    H6F10727   6.017   4.368   9.983  1.5460 -3.2777  1.5919
  105OSM    H6G10728   6.179   4.398  10.048  0.0010  0.6077 -1.4240
  105OSM    C7F10729   6.085   4.578   9.958 -0.9554 -0.5014 -0.4258
  105OSM    H7F10730   6.136   4.656  10.017 -0.1531 -2.3833  1.4436
  105OSM    H7G10731   5.979   4.600   9.933 -1.1289 -0.3217  0.4702
  105OSM    C8F10732   6.174   4.565   9.828 -0.2394  0.4297  0.8063
  105OSM    H8F10733   6.146   4.471   9.776 -3.7707  0.8844  1.7721
  105OSM    H8G10734   6.278   4.565   9.867 -0.4320  0.2462  1.3175
  105OSM    C9F10735   6.170   4.683   9.734  0.2048 -0.2247 -0.4140
  105OSM    H9F10736   6.184   4.784   9.777 -2.6969 -0.5553  1.4298
  105OSM   C10F10737   6.157   4.680   9.600  0.6777  0.1129 -0.1334
  105OSM   H10F10738   6.158   4.778   9.549  1.6405  2.1981  3.6690
  105OSM   C11F10739   6.140   4.564   9.512  0.4079 -0.3601  0.2250
  105OSM   H11F10740   6.037   4.555   9.471  0.4421  1.4812 -0.3288
  105OSM   H11G10741   6.158   4.467   9.563 -1.7056 -0.8409  0.1020
  105OSM   C12F10742   6.237   4.556   9.388  0.2664  0.0036 -0.6143
  105OSM   H12F10743   6.230   4.454   9.344 -0.0233 -0.4644  0.5001
  105OSM   H12G10744   6.339   4.585   9.421  1.3949 -1.1200 -3.0069
  105OSM   C13F10745   6.199   4.653   9.275  0.7885 -0.2238  0.0065
  105OSM   H13F10746   6.224   4.753   9.315 -1.0518  0.7113 -1.0621
  105OSM   H13G10747   6.089   4.654   9.257  0.8612 -0.0681 -0.4450
  105OSM   C14F10748   6.264   4.605   9.145  0.3699 -0.9991  0.4089
  105OSM   H14F10749   6.354   4.541   9.158  1.0374 -0.8069 -2.8296
  105OSM   H14G10750   6.307   4.698   9.103 -0.5109 -0.7603  0.0255
  105OSM   C15F10751   6.168   4.532   9.050 -0.2035 -0.9472 -0.1082
  105OSM   H15F10752   6.077   4.592   9.031 -0.6848 -1.6578 -0.0630
  105OSM   H15G10753   6.133   4.433   9.087 -0.9577 -0.4438  0.5219
  105OSM   C16F10754   6.228   4.506   8.908  0.4549  0.1791 -0.4171
  105OSM   H16F10755   6.234   4.593   8.839  0.8128  1.0945  0.7532
  105OSM   H16G10756   6.158   4.431   8.864 -0.1690 -0.0807  0.9743
  105OSM   C17F10757   6.365   4.437   8.920  0.3398 -0.5201  0.3610
  105OSM   H17F10758   6.455   4.484   8.963  0.5328 -1.5997  1.1721
  105OSM   H17G10759   6.391   4.407   8.816  0.8835  1.6509 -0.1409
  105OSM   C18F10760   6.359   4.300   9.000  0.3150 -0.3089  0.1464
  105OSM   H18F10761   6.444   4.242   8.957  0.5830  0.5438 -0.4800
  105OSM   H18G10762   6.261   4.248   9.004  0.2957 -0.2434  0.5977
  105OSM   H18H10763   6.388   4.317   9.106  2.6615  0.2250 -0.5412
  106OSM      N10764   5.188   2.754  10.765 -0.1367 -1.1074 -0.6834
  106OSM    C1510765   5.157   2.747  10.907 -0.1285 -0.7942 -0.1578
  106OSM   H15A10766   5.136   2.648  10.946  1.5710 -1.2890 -0.4604
  106OSM   H15B10767   5.064   2.797  10.931 -0.0607 -1.0240  0.6039
  106OSM   H15C10768   5.245   2.778  10.961  0.3539 -0.9030 -0.8783
  106OSM    C1410769   5.261   2.629  10.731  0.3217 -0.2343 -0.2991
  106OSM   H14A10770   5.264   2.631  10.623  1.9333  0.8701 -0.2569
  106OSM   H14B10771   5.213   2.540  10.766  1.9820 -0.8498  0.4824
  106OSM   H14C10772   5.362   2.633  10.769 -0.9459 -1.6885  3.4151
  106OSM    C1310773   5.054   2.743  10.707 -0.5026 -0.1058  0.0513
  106OSM   H13A10774   5.016   2.839  10.675 -0.3796 -0.1322 -0.1779
  106OSM   H13B10775   4.981   2.686  10.762  0.0172 -1.7146 -0.8916
  106OSM   H13C10776   5.058   2.695  10.610  1.2170  1.5696 -0.7261
  106OSM    C1210777   5.262   2.881  10.727  0.1757  0.4097  0.2586
  106OSM   H12A10778   5.294   2.883  10.624 -0.5870 -1.7713 -0.0628
  106OSM   H12B10779   5.349   2.875  10.790  1.8364 -0.3528 -2.0239
  106OSM    C1110780   5.185   3.014  10.766  0.2422 -0.0974  0.0272
  106OSM   H11A10781   5.255   3.098  10.751 -0.6642  0.3712 -1.7028
  106OSM   H11B10782   5.154   3.014  10.873  1.5203  1.7033  0.4250
  106OSM      P10783   4.978   3.163  10.694 -0.1994 -0.0036 -0.0856
  106OSM    O1310784   4.868   3.151  10.588  0.3882  0.3809 -0.0329
  106OSM    O1410785   4.936   3.169  10.835  0.1396 -0.2594 -0.5088
  106OSM    O1110786   5.082   3.277  10.661  1.1994  0.0558 -0.6579
  106OSM    O1210787   5.068   3.031  10.676 -0.0986  0.9790  0.2406
  106OSM    C1S10788   5.158   3.289  10.544 -0.2413  0.6726  0.5365
  106OSM    H1S10789   5.162   3.200  10.477  0.5526  0.4465  0.8794
  106OSM    H1T10790   5.267   3.293  10.565 -0.1857  0.0904  0.3755
  106OSM     NF10791   5.208   3.415  10.339  0.2799 -0.0628  0.2168
  106OSM    HNF10792   5.295   3.464  10.335  0.1368  0.1042 -0.9122
  106OSM    C2S10793   5.121   3.417  10.458 -0.2995  0.0733  0.6632
  106OSM    H2S10794   5.017   3.397  10.426  0.1194 -1.4451  0.2206
  106OSM    C3S10795   5.152   3.536  10.547 -0.0935 -0.4831  0.0340
  106OSM    H3S10796   5.263   3.536  10.558  0.2752 -0.8095 -3.1925
  106OSM     O310797   5.101   3.534  10.681 -0.1086  0.3849  0.5393
  106OSM    HO310798   5.108   3.440  10.697  0.0716  0.3688  0.3786
  106OSM    C4S10799   5.122   3.666  10.483  0.2026  0.2791  0.2909
  106OSM    H4S10800   5.021   3.706  10.497 -0.5225 -1.0167 -1.0991
  106OSM    C5S10801   5.205   3.750  10.422 -0.6292  0.1144  0.4925
  106OSM    H5S10802   5.307   3.713  10.406 -1.6365 -1.6613 -2.2978
  106OSM    C6S10803   5.168   3.889  10.375  0.4725 -0.5799 -0.3566
  106OSM    H6S10804   5.263   3.947  10.380 -0.7693  1.4519  0.6795
  106OSM    H6T10805   5.096   3.947  10.437 -0.4169 -2.0635 -0.0044
  106OSM    C7S10806   5.114   3.883  10.233  0.6325  0.5632 -0.4137
  106OSM    H7S10807   5.085   3.988  10.212 -1.0096  0.2413  0.1974
  106OSM    H7T10808   5.031   3.811  10.222  1.4058 -0.1203 -1.9527
  106OSM    C8S10809   5.224   3.831  10.132  0.0725 -0.5713 -0.0664
  106OSM    H8S10810   5.251   3.727  10.159 -0.5104  0.0350  2.9371
  106OSM    H8T10811   5.316   3.894  10.137 -0.2982  0.0072 -0.4278
  106OSM    C9S10812   5.172   3.855   9.990 -0.0408  0.2738  0.1636
  106OSM    H9S10813   5.077   3.798   9.977 -0.0487  0.0498  1.1704
  106OSM    H9T10814   5.241   3.808   9.917 -1.1482  1.9688 -2.0392
  106OSM   C10S10815   5.154   4.002   9.949 -0.5890 -0.1071 -0.8083
  106OSM   H10S10816   5.236   4.068   9.986 -0.5114 -1.9898  2.6090
  106OSM   H10T10817   5.073   4.043  10.012  0.7814 -0.3439  1.1888
  106OSM   C11S10818   5.122   4.021   9.796  0.3498  0.5968 -0.0676
  106OSM   H11S10819   5.220   4.006   9.745  0.3152 -0.0418  0.0507
  106OSM   H11T10820   5.084   4.124   9.777 -2.5322 -0.1728  1.2946
  106OSM   C12S10821   5.034   3.920   9.730  0.3894  0.8550 -1.1050
  106OSM   H12S10822   4.947   3.906   9.797  1.8592 -1.1721  0.4661
  106OSM   H12T10823   5.085   3.821   9.736 -1.8738 -0.3045 -0.6302
  106OSM   C13S10824   4.986   3.954   9.594 -0.3099  0.4726  0.0244
  106OSM   H13S10825   5.054   3.921   9.512  1.6044  1.2215  1.2581
  106OSM   H13T10826   4.987   4.065   9.596  0.4696  0.4522  1.6496
  106OSM   C14S10827   4.844   3.911   9.562 -0.2675 -0.3962  0.0611
  106OSM   H14S10828   4.773   3.955   9.635 -1.4679  0.0459 -1.3415
  106OSM   H14T10829   4.845   3.800   9.556  1.3726 -0.3859 -0.2108
  106OSM   C15S10830   4.796   3.965   9.425  0.5443 -0.0023 -0.0214
  106OSM   H15S10831   4.815   4.074   9.422  0.8574 -0.0063  1.3192
  106OSM   H15T10832   4.686   3.947   9.429  0.5784 -0.4027 -0.8758
  106OSM   C16S10833   4.859   3.891   9.306  0.4048  0.2400 -0.3052
  106OSM   H16S10834   4.836   3.784   9.322  2.0071 -0.2255 -1.0360
  106OSM   H16T10835   4.970   3.896   9.307  0.5492 -2.2098 -0.3529
  106OSM   C17S10836   4.797   3.948   9.175  0.1379  0.5452  0.1368
  106OSM   H17S10837   4.836   3.888   9.090 -1.3101 -0.2806  0.0337
  106OSM   H17T10838   4.825   4.054   9.161 -1.0799  0.7292 -0.9294
  106OSM   C18S10839   4.644   3.939   9.168  0.3632  0.0748 -0.1206
  106OSM   H18S10840   4.592   4.005   9.241 -0.3346 -0.3353 -0.2438
  106OSM   H18T10841   4.603   3.836   9.177  0.6396  0.1919  3.0811
  106OSM   H18U10842   4.606   3.969   9.068 -0.8871  1.3709  0.7068
  106OSM    C1F10843   5.167   3.356  10.226  0.2317 -0.2419  0.0745
  106OSM     OF10844   5.054   3.303  10.223  0.4050 -0.6032 -0.2251
  106OSM    C2F10845   5.245   3.378  10.099  0.0216 -0.8878 -0.2284
  106OSM    H2F10846   5.278   3.279  10.060  0.8425 -0.5085 -0.5083
  106OSM    H2G10847   5.337   3.435  10.121 -0.7313 -0.6277  2.2964
  106OSM    C3F10848   5.163   3.449   9.987  0.1743  0.1239 -0.8377
  106OSM    H3F10849   5.145   3.552  10.023  0.8523 -0.0578  0.0549
  106OSM    H3G10850   5.065   3.396   9.979 -0.5097  0.9704  1.3991
  106OSM    C4F10851   5.258   3.439   9.866 -0.1634 -0.1716  0.2074
  106OSM    H4F10852   5.291   3.334   9.851 -0.7565 -0.2020 -0.8511
  106OSM    H4G10853   5.354   3.494   9.880 -1.1956  1.8587 -0.4465
  106OSM    C5F10854   5.191   3.487   9.728 -0.1785 -1.0461 -0.1022
  106OSM    H5F10855   5.132   3.579   9.744  1.1733 -0.4387  1.5288
  106OSM    H5G10856   5.118   3.408   9.702  0.0452 -1.0283 -0.8052
  106OSM    C6F10857   5.300   3.476   9.621 -0.2221 -0.1637  0.2492
  106OSM    H6F10858   5.353   3.379   9.632 -0.6026 -0.5475 -1.2870
  106OSM    H6G10859   5.380   3.553   9.623 -0.2770 -0.1140  0.6646
  106OSM    C7F10860   5.261   3.478   9.468  0.3959  0.5605  0.1819
  106OSM    H7F10861   5.187   3.395   9.462 -1.0396  1.8996 -1.2298
  106OSM    H7G10862   5.342   3.458   9.395  0.2113  0.4828 -0.0021
  106OSM    C8F10863   5.180   3.606   9.430  0.3679  0.2508  0.0805
  106OSM    H8F10864   5.109   3.626   9.514 -0.2409 -0.6212 -0.2205
  106OSM    H8G10865   5.135   3.573   9.333 -0.7494 -0.6119  0.8824
  106OSM    C9F10866   5.260   3.732   9.398  0.2560 -0.3343  0.4356
  106OSM    H9F10867   5.311   3.780   9.483  1.6147  0.4298 -0.7698
  106OSM   C10F10868   5.290   3.780   9.276  0.2888  1.0201 -0.5871
  106OSM   H10F10869   5.330   3.882   9.269  2.9600  0.1721  1.6413
  106OSM   C11F10870   5.247   3.717   9.147  0.7916  0.3917 -0.3793
  106OSM   H11F10871   5.235   3.606   9.142  1.4237  0.3336 -0.5643
  106OSM   H11G10872   5.313   3.737   9.061 -0.3782  0.0412 -1.3799
  106OSM   C12F10873   5.114   3.770   9.108 -0.0863  0.2493  0.0813
  106OSM   H12F10874   5.103   3.878   9.130  0.4350  0.2362  0.4336
  106OSM   H12G10875   5.034   3.718   9.165  0.8655 -1.0330  0.2831
  106OSM   C13F10876   5.083   3.746   8.959 -0.4601 -0.1690  0.5837
  106OSM   H13F10877   4.974   3.763   8.945 -0.2506  1.2995  0.6537
  106OSM   H13G10878   5.101   3.643   8.922  1.2769  0.5768 -0.7225
  106OSM   C14F10879   5.136   3.858   8.859 -0.1362 -0.4681  0.7957
  106OSM   H14F10880   5.247   3.852   8.851 -0.2349 -0.7538 -0.4566
  106OSM   H14G10881   5.106   3.955   8.905  0.2113  0.9795 -1.8791
  106OSM   C15F10882   5.077   3.850   8.713  0.4984  0.0370  0.6127
  106OSM   H15F10883   4.968   3.866   8.732 -0.1541 -0.1382 -2.6959
  106OSM   H15G10884   5.094   3.746   8.678  1.9397  0.8261 -1.0496
  106OSM   C16F10885   5.124   3.958   8.616  0.0804  0.7576  0.1071
  106OSM   H16F10886   5.232   3.957   8.590 -0.3155 -2.9083 -1.7363
  106OSM   H16G10887   5.092   4.056   8.658 -0.2103  0.5549  0.3594
  106OSM   C17F10888   5.050   3.948   8.481  0.3305 -0.9207 -0.3325
  106OSM   H17F10889   5.069   4.047   8.434 -2.6171 -0.4529 -0.6199
  106OSM   H17G10890   4.942   3.939   8.507  0.9914 -0.6001  2.6952
  106OSM   C18F10891   5.097   3.830   8.397  0.6469  0.2922 -0.3137
  106OSM   H18F10892   5.053   3.821   8.295  0.3914  0.2301 -0.1972
  106OSM   H18G10893   5.061   3.734   8.439 -2.5990  1.4859 -0.2237
  106OSM   H18H10894   5.208   3.831   8.383  0.5685  2.1915 -1.0143
  107OSM      N10895   1.151   0.742  10.783  0.2500 -0.4899 -0.5230
  107OSM    C1510896   1.098   0.732  10.640  0.6069  0.2721 -0.3138
  107OSM   H15A10897   1.073   0.629  10.618  0.3218  0.3945 -0.5630
  107OSM   H15B10898   1.177   0.767  10.576  1.4546 -0.5635  0.2568
  107OSM   H15C10899   1.014   0.799  10.629  1.9537  2.2612  1.2411
  107OSM    C1410900   1.063   0.656  10.869 -0.1641 -0.3794 -0.4694
  107OSM   H14A10901   0.963   0.648  10.831 -0.7744  1.2656  0.7412
  107OSM   H14B10902   1.066   0.681  10.974 -1.3647 -0.6311 -0.3752
  107OSM   H14C10903   1.090   0.554  10.848  2.2020  0.5595 -2.2673
  107OSM    C1310904   1.295   0.691  10.791  0.6246 -0.1621 -0.1508
  107OSM   H13A10905   1.311   0.592  10.752  0.5637  0.5949 -2.1680
  107OSM   H13B10906   1.323   0.693  10.895  2.7788  1.8546 -0.7345
  107OSM   H13C10907   1.364   0.758  10.741  0.2236  0.1734 -0.2557
  107OSM    C1210908   1.147   0.882  10.831  0.4884  0.2559  0.1204
  107OSM   H12A10909   1.180   0.883  10.934  2.8774  0.8985 -0.6237
  107OSM   H12B10910   1.049   0.927  10.830  1.6673  2.9133 -0.9535
  107OSM    C1110911   1.235   0.986  10.756 -0.1438  0.5183  0.8088
  107OSM   H11A10912   1.198   1.082  10.799  0.2341  0.4036  1.3900
  107OSM   H11B10913   1.205   0.973  10.650 -0.3105  0.9539  0.7987
  107OSM      P10914   1.468   1.051  10.858  0.2463  0.0163 -0.2989
  107OSM    O1310915   1.422   1.054  11.002 -0.8077  0.0067 -0.0233
  107OSM    O1410916   1.606   1.011  10.840  0.1436  0.1300  0.2250
  107OSM    O1110917   1.441   1.190  10.787  0.2525  0.8120  0.2632
  107OSM    O1210918   1.375   0.960  10.768 -0.4084  0.2557 -0.3914
  107OSM    C1S10919   1.519   1.236  10.672  0.5200  0.3006  0.5071
  107OSM    H1S10920   1.618   1.186  10.670 -0.1391 -0.9803 -1.5587
  107OSM    H1T10921   1.539   1.345  10.686 -1.3237  0.6812  0.3057
  107OSM     NF10922   1.549   1.230  10.431  0.5118 -0.6293  0.3290
  107OSM    HNF10923   1.561   1.315  10.381  1.9859 -0.3261  1.1654
  107OSM    C2S10924   1.450   1.215  10.537  0.9758  0.3544 -0.7744
  107OSM    H2S10925   1.411   1.112  10.521  1.7238 -0.3480  1.7158
  107OSM    C3S10926   1.329   1.312  10.533 -1.1344 -0.8960  0.1768
  107OSM    H3S10927   1.371   1.414  10.546  0.2989 -0.9366 -3.6135
  107OSM     O310928   1.251   1.306  10.652 -0.0399 -0.2347  0.0683
  107OSM    HO310929   1.309   1.277  10.723  1.9721 -1.0214 -1.8508
  107OSM    C4S10930   1.251   1.305  10.405  0.3403  0.3193  0.3087
  107OSM    H4S10931   1.222   1.202  10.381 -1.1598  1.1785 -1.8049
  107OSM    C5S10932   1.215   1.416  10.331  0.5848  0.0190  0.1494
  107OSM    H5S10933   1.231   1.523  10.354 -1.3818  0.4805 -0.4620
  107OSM    C6S10934   1.139   1.398  10.197  0.3093 -0.0272 -0.6140
  107OSM    H6S10935   1.033   1.431  10.199 -0.5732 -2.7103  2.6744
  107OSM    H6T10936   1.134   1.291  10.169  3.3898  0.0140 -1.4979
  107OSM    C7S10937   1.204   1.481  10.089  0.0747  0.4322 -0.0091
  107OSM    H7S10938   1.306   1.441  10.072 -0.2112 -0.2022 -0.2550
  107OSM    H7T10939   1.208   1.590  10.114 -1.3579  0.5242 -0.1404
  107OSM    C8S10940   1.124   1.476   9.953 -0.3178  0.0995 -0.0429
  107OSM    H8S10941   1.027   1.527   9.973 -0.4376 -0.0619 -0.2228
  107OSM    H8T10942   1.090   1.372   9.935  0.9787 -0.3841  0.2393
  107OSM    C9S10943   1.207   1.535   9.834 -0.1032 -0.4314 -0.2759
  107OSM    H9S10944   1.311   1.495   9.834 -0.5202 -1.5268 -0.8369
  107OSM    H9T10945   1.220   1.645   9.845  2.6445 -0.4556 -2.6799
  107OSM   C10S10946   1.144   1.505   9.698 -0.8434 -0.4008  0.5846
  107OSM   H10S10947   1.049   1.562   9.696  1.2948  3.2746 -0.2805
  107OSM   H10T10948   1.122   1.396   9.697  0.7361 -0.7442  0.5179
  107OSM   C11S10949   1.239   1.538   9.580 -0.1205 -0.1215  0.6389
  107OSM   H11S10950   1.341   1.499   9.601  0.2706  1.0356  0.9195
  107OSM   H11T10951   1.247   1.649   9.573 -2.5626  0.0521  0.4147
  107OSM   C12S10952   1.198   1.464   9.448 -0.1859  0.3499  0.3966
  107OSM   H12S10953   1.107   1.521   9.421 -1.0563 -1.9760 -1.7555
  107OSM   H12T10954   1.171   1.358   9.469  1.5934 -0.0775  0.6505
  107OSM   C13S10955   1.311   1.482   9.340  0.6096  0.0910  0.0090
  107OSM   H13S10956   1.407   1.442   9.377  0.2102 -0.1716  0.7747
  107OSM   H13T10957   1.317   1.589   9.310 -0.1981  0.2675  0.4704
  107OSM   C14S10958   1.297   1.401   9.214 -0.0192  0.2678  1.4638
  107OSM   H14S10959   1.218   1.430   9.142  1.4671 -1.4167 -0.9220
  107OSM   H14T10960   1.276   1.295   9.241 -1.6532 -0.2380 -1.5113
  107OSM   C15S10961   1.427   1.400   9.125 -0.5015  0.3177  0.1165
  107OSM   H15S10962   1.503   1.336   9.175 -0.0505  1.0774  0.4142
  107OSM   H15T10963   1.466   1.504   9.114 -1.6974  0.4278 -4.2187
  107OSM   C16S10964   1.392   1.344   8.984 -0.8375  0.1715 -0.1401
  107OSM   H16S10965   1.342   1.246   8.999 -1.9118  1.0678  2.5221
  107OSM   H16T10966   1.484   1.320   8.927 -1.5683 -1.9079 -0.4968
  107OSM   C17S10967   1.317   1.441   8.894 -0.4579 -0.5897  1.1537
  107OSM   H17S10968   1.356   1.543   8.911 -1.2076  0.2048 -1.5627
  107OSM   H17T10969   1.210   1.436   8.925 -0.6526 -2.4247  0.2286
  107OSM   C18S10970   1.321   1.410   8.744 -0.4813  0.1454 -0.2628
  107OSM   H18S10971   1.256   1.476   8.683 -2.3788 -2.6007 -1.3126
  107OSM   H18T10972   1.284   1.307   8.726 -0.7613  0.0713  0.6931
  107OSM   H18U10973   1.427   1.423   8.714 -0.5179  1.0596 -0.0030
  107OSM    C1F10974   1.642   1.136  10.413  0.2370  1.3364  0.5985
  107OSM     OF10975   1.637   1.027  10.475  0.1953 -0.1372 -0.3301
  107OSM    C2F10976   1.755   1.164  10.307  0.1539 -0.3000 -0.9211
  107OSM    H2F10977   1.821   1.232  10.365  0.1483 -1.1187  0.0437
  107OSM    H2G10978   1.711   1.230  10.229 -3.1503 -0.1323  1.0190
  107OSM    C3F10979   1.807   1.039  10.254  0.2927  0.5430 -0.1001
  107OSM    H3F10980   1.729   0.969  10.215  0.1377  0.2188  0.7647
  107OSM    H3G10981   1.857   0.984  10.336 -0.0210 -1.3140 -1.1243
  107OSM    C4F10982   1.917   1.053  10.143 -0.3136  0.4003  0.3951
  107OSM    H4F10983   1.988   0.968  10.159  0.4263  1.4802  3.3078
  107OSM    H4G10984   1.969   1.151  10.150 -0.7588  0.5784  1.4124
  107OSM    C5F10985   1.874   1.038   9.994  0.0655  0.1914 -0.4006
  107OSM    H5F10986   1.775   1.088   9.992  0.2927  0.6159 -1.4294
  107OSM    H5G10987   1.862   0.933   9.960  1.5535  0.0938 -0.6484
  107OSM    C6F10988   1.969   1.111   9.896 -0.2057  0.0319 -0.5540
  107OSM    H6F10989   2.070   1.067   9.909 -0.5651 -0.9915 -1.2505
  107OSM    H6G10990   1.980   1.219   9.923 -2.6592  0.4609 -1.1151
  107OSM    C7F10991   1.928   1.102   9.747  0.1729  0.7062 -0.0741
  107OSM    H7F10992   1.835   1.155   9.716 -0.7820  0.2940  2.0110
  107OSM    H7G10993   1.933   0.995   9.719 -2.0173  0.7093 -0.5411
  107OSM    C8F10994   2.033   1.182   9.668 -0.3563 -0.3796 -0.4889
  107OSM    H8F10995   2.118   1.195   9.738  0.2935  0.7977 -1.4749
  107OSM    H8G10996   2.008   1.290   9.653  2.4191  0.2336 -0.8343
  107OSM    C9F10997   2.057   1.125   9.532 -0.7039 -0.3236  0.4007
  107OSM    H9F10998   2.134   1.047   9.522  0.9291  0.8467  3.1850
  107OSM   C10F10999   1.991   1.168   9.418  0.1712  0.1970 -0.2391
  107OSM   H10F11000   2.005   1.113   9.324  0.7382  0.1880 -0.1515
  107OSM   C11F11001   1.888   1.282   9.406  0.9600  0.5532  0.0149
  107OSM   H11F11002   1.943   1.368   9.450  0.6535 -0.1197  1.7521
  107OSM   H11G11003   1.798   1.268   9.469  2.6017 -2.9183  1.7145
  107OSM   C12F11004   1.832   1.305   9.260 -0.0934  0.1140 -0.6655
  107OSM   H12F11005   1.771   1.397   9.261 -1.1517 -0.5925  0.9275
  107OSM   H12G11006   1.763   1.225   9.226  0.2115 -0.4656  0.0577
  107OSM   C13F11007   1.941   1.317   9.153 -0.2382 -0.0330  1.0014
  107OSM   H13F11008   1.999   1.222   9.150  0.6473  0.4951  0.9706
  107OSM   H13G11009   2.008   1.404   9.169 -1.7955  2.4931 -4.9033
  107OSM   C14F11010   1.880   1.358   9.015  0.1549  0.5977 -0.2140
  107OSM   H14F11011   1.827   1.454   9.030 -2.9692 -1.3996  2.3919
  107OSM   H14G11012   1.808   1.277   8.990  1.1044 -1.0205  2.0601
  107OSM   C15F11013   1.983   1.352   8.899  0.5582 -0.2395 -0.0307
  107OSM   H15F11014   2.049   1.266   8.925  0.3788 -0.7590 -1.2707
  107OSM   H15G11015   2.047   1.442   8.890  0.9287 -0.6221 -1.3158
  107OSM   C16F11016   1.907   1.350   8.769 -0.6061  0.0004 -0.1291
  107OSM   H16F11017   1.886   1.246   8.738  0.3933  0.3955 -2.2134
  107OSM   H16G11018   1.989   1.373   8.698 -1.3091 -1.0769 -1.3164
  107OSM   C17F11019   1.789   1.441   8.757 -0.3225  0.2847  0.1519
  107OSM   H17F11020   1.809   1.541   8.802 -1.0049  0.1937  0.6608
  107OSM   H17G11021   1.703   1.403   8.815 -2.5840  2.6920 -1.4563
  107OSM   C18F11022   1.742   1.465   8.611 -0.0549  0.7601 -0.9862
  107OSM   H18F11023   1.662   1.388   8.603 -0.5978  1.0204  1.3473
  107OSM   H18G11024   1.823   1.443   8.539  2.6586 -1.7758  2.6000
  107OSM   H18H11025   1.701   1.567   8.599 -2.1290 -0.3015 -3.2277
  108OSM      N11026   5.902   2.130  10.764 -0.3974  0.5200  1.0997
  108OSM    C1511027   6.019   2.042  10.736  0.1437 -0.3198 -0.4550
  108OSM   H15A11028   6.031   2.027  10.630  0.2899 -1.7040 -0.2494
  108OSM   H15B11029   6.009   1.947  10.786  1.0077  0.9348  2.2196
  108OSM   H15C11030   6.113   2.079  10.774  0.4596 -0.3295 -1.2119
  108OSM    C1411031   5.891   2.133  10.909 -0.3847  0.5975  1.1658
  108OSM   H14A11032   5.902   2.036  10.956 -0.3673  1.3323  2.7011
  108OSM   H14B11033   5.806   2.182  10.953  0.0975  0.2893  2.4859
  108OSM   H14C11034   5.973   2.189  10.951  1.4492  2.0808 -3.9931
  108OSM    C1311035   5.926   2.274  10.727  0.3675 -0.2043 -0.4913
  108OSM   H13A11036   5.844   2.331  10.768 -0.5151 -0.9192 -1.2392
  108OSM   H13B11037   5.924   2.293  10.620 -0.1410 -0.4504 -0.5247
  108OSM   H13C11038   6.024   2.306  10.761 -0.0074  1.3868 -0.8417
  108OSM    C1211039   5.769   2.069  10.701  0.2199 -0.2121 -0.6368
  108OSM   H12A11040   5.764   1.969  10.741 -0.3960 -0.3051 -0.9411
  108OSM   H12B11041   5.786   2.064  10.594 -1.8819  1.4870 -1.0961
  108OSM    C1111042   5.630   2.142  10.727 -0.1012 -0.2937 -0.2117
  108OSM   H11A11043   5.592   2.118  10.828  1.7443 -0.2858  0.5155
  108OSM   H11B11044   5.566   2.096  10.649 -2.2647  2.0082  0.1500
  108OSM      P11045   5.622   2.351  10.572  0.2326 -0.2977  0.3032
  108OSM    O1311046   5.575   2.493  10.596  0.1606  0.5940  0.2304
  108OSM    O1411047   5.746   2.346  10.495  0.4265 -0.0851  0.3499
  108OSM    O1111048   5.518   2.272  10.484 -0.2537 -0.0654 -0.1682
  108OSM    O1211049   5.639   2.284  10.704 -0.9323  0.5397 -0.8445
  108OSM    C1S11050   5.374   2.268  10.526  0.0755 -0.3847 -0.1804
  108OSM    H1S11051   5.338   2.356  10.584  0.8339  0.5668 -1.1442
  108OSM    H1T11052   5.358   2.185  10.599  4.2415 -1.2607 -0.1558
  108OSM     NF11053   5.138   2.276  10.439  1.0469 -0.3177 -0.1761
  108OSM    HNF11054   5.090   2.195  10.473  1.0918 -0.4165 -0.3504
  108OSM    C2S11055   5.278   2.246  10.398  0.3205 -0.0814  1.2645
  108OSM    H2S11056   5.310   2.316  10.317  2.8131 -2.9459 -0.3453
  108OSM    C3S11057   5.300   2.104  10.346 -0.5800 -0.0400  0.0450
  108OSM    H3S11058   5.265   2.027  10.418 -2.7172 -0.2081 -1.1394
  108OSM     O311059   5.438   2.082  10.322  0.2247  0.4099  0.3531
  108OSM    HO311060   5.484   2.162  10.347 -1.0169  1.6540 -1.1962
  108OSM    C4S11061   5.224   2.064  10.219  0.4492 -0.8910 -0.1085
  108OSM    H4S11062   5.272   2.095  10.124 -0.0209  0.7375  0.1664
  108OSM    C5S11063   5.110   1.998  10.223 -0.0346  0.1346  0.5389
  108OSM    H5S11064   5.063   1.973  10.319 -1.9006  1.4081 -0.0226
  108OSM    C6S11065   5.035   1.949  10.100 -0.5449 -0.3786 -0.1108
  108OSM    H6S11066   4.935   1.997  10.101 -1.2023 -1.7116  0.8022
  108OSM    H6T11067   5.011   1.840  10.107  2.5985 -1.1189 -0.0177
  108OSM    C7S11068   5.101   1.966   9.963 -0.5742 -0.7333 -0.3198
  108OSM    H7S11069   5.167   1.878   9.948  0.1150 -0.6546  2.1062
  108OSM    H7T11070   5.152   2.062   9.939 -1.2385  0.3229  2.3120
  108OSM    C8S11071   4.991   1.950   9.857  0.9337 -0.7389  0.8029
  108OSM    H8S11072   4.904   2.015   9.880  0.3935 -0.7358 -1.1514
  108OSM    H8T11073   4.953   1.846   9.866  0.9433 -0.7382  0.8462
  108OSM    C9S11074   5.039   1.982   9.718 -0.1597  0.1172  0.1269
  108OSM    H9S11075   5.130   1.927   9.685 -0.1035 -0.0406  0.5369
  108OSM    H9T11076   5.082   2.084   9.736 -1.0081 -0.0520  3.3220
  108OSM   C10S11077   4.925   1.979   9.612 -0.8089 -0.5174  0.0204
  108OSM   H10S11078   4.849   2.033   9.673  0.4996 -0.5205  1.6978
  108OSM   H10T11079   4.909   1.871   9.591 -3.0284 -0.4348  1.1138
  108OSM   C11S11080   4.946   2.050   9.482 -0.0307 -0.3371 -0.6762
  108OSM   H11S11081   5.052   2.048   9.450  0.4692 -0.0868  0.9368
  108OSM   H11T11082   4.912   2.154   9.500 -1.4399 -1.1406  1.4517
  108OSM   C12S11083   4.866   1.987   9.365  0.1575 -0.0301 -0.7545
  108OSM   H12S11084   4.759   2.017   9.367  0.2149  0.2544 -1.5893
  108OSM   H12T11085   4.875   1.880   9.390  2.8760  0.2364 -0.5283
  108OSM   C13S11086   4.906   2.016   9.222 -0.4251 -0.1788  0.0865
  108OSM   H13S11087   5.008   1.977   9.205  0.2575  1.5768  0.0667
  108OSM   H13T11088   4.900   2.125   9.203 -2.6878 -0.3044 -0.0251
  108OSM   C14S11089   4.810   1.960   9.117 -0.3814  0.4003  0.2481
  108OSM   H14S11090   4.706   1.983   9.150 -0.3773  1.6036 -0.5375
  108OSM   H14T11091   4.811   1.849   9.112 -0.0886  0.2325  3.1059
  108OSM   C15S11092   4.852   2.007   8.981  0.4139 -0.6866  0.6360
  108OSM   H15S11093   4.954   1.974   8.954  1.6824  1.9276  2.0957
  108OSM   H15T11094   4.857   2.118   8.987 -1.7540 -0.6325  2.2472
  108OSM   C16S11095   4.742   1.985   8.878  0.4899  0.6772 -0.2859
  108OSM   H16S11096   4.648   2.036   8.907  0.0720  0.6274 -1.5031
  108OSM   H16T11097   4.735   1.875   8.892  0.5922  0.4693 -1.7711
  108OSM   C17S11098   4.774   2.011   8.733  0.2937 -0.1536  0.5018
  108OSM   H17S11099   4.856   1.951   8.685 -0.5303  1.2238 -2.7704
  108OSM   H17T11100   4.819   2.112   8.722  2.1970 -0.8138  1.9654
  108OSM   C18S11101   4.647   2.007   8.641 -0.3464  0.3867  0.3064
  108OSM   H18S11102   4.567   2.079   8.670 -0.8387 -0.9693  2.4231
  108OSM   H18T11103   4.609   1.903   8.640 -0.8801  0.5682  1.0142
  108OSM   H18U11104   4.679   2.030   8.537 -3.3397 -0.1137 -0.7550
  108OSM    C1F11105   5.106   2.398  10.458  0.0503  0.1362  0.4629
  108OSM     OF11106   5.182   2.492  10.436  0.6186  0.2431  0.1995
  108OSM    C2F11107   4.975   2.419  10.523 -0.2875  0.3522  0.5949
  108OSM    H2F11108   4.998   2.466  10.621  0.3104  0.0555  0.5973
  108OSM    H2G11109   4.907   2.335  10.547  2.5073 -1.7051  1.5258
  108OSM    C3F11110   4.895   2.527  10.444 -0.0525 -0.3501  0.5887
  108OSM    H3F11111   4.955   2.620  10.443 -1.1797  0.3927  1.2231
  108OSM    H3G11112   4.796   2.540  10.494  0.0559  5.2881 -0.3924
  108OSM    C4F11113   4.873   2.490  10.293 -0.0738 -0.1933  0.2540
  108OSM    H4F11114   4.824   2.391  10.288  0.7393 -0.5808 -0.2355
  108OSM    H4G11115   4.973   2.473  10.248  0.1023 -0.3274  0.6938
  108OSM    C5F11116   4.791   2.597  10.222  0.0729  0.3532 -0.1493
  108OSM    H5F11117   4.845   2.694  10.217  0.0379  0.5439  2.3657
  108OSM    H5G11118   4.701   2.618  10.283  0.3473  0.5312  0.2023
  108OSM    C6F11119   4.749   2.564  10.082 -0.1664  0.1377 -0.2343
  108OSM    H6F11120   4.689   2.472  10.066 -1.8569  1.0092  0.9349
  108OSM    H6G11121   4.841   2.550  10.022  0.0762  0.4880  0.0510
  108OSM    C7F11122   4.660   2.681  10.028  0.0002 -0.2086 -0.0298
  108OSM    H7F11123   4.683   2.779  10.076  1.1219  1.0805 -3.0554
  108OSM    H7G11124   4.552   2.659  10.045  0.0457  0.7549  1.5627
  108OSM    C8F11125   4.680   2.689   9.878  0.2996  0.0876 -0.0455
  108OSM    H8F11126   4.670   2.585   9.840 -0.2545  0.4306 -0.8409
  108OSM    H8G11127   4.785   2.717   9.855 -0.1877  0.6769 -1.6079
  108OSM    C9F11128   4.576   2.776   9.810 -0.2400  0.2147  0.0926
  108OSM    H9F11129   4.527   2.847   9.878 -1.1118  1.3977 -1.7119
  108OSM   C10F11130   4.537   2.771   9.680 -0.4221 -0.2125  0.2087
  108OSM   H10F11131   4.457   2.834   9.640 -0.9874 -0.2671  1.2420
  108OSM   C11F11132   4.602   2.679   9.575 -0.2880  0.0247  0.6617
  108OSM   H11F11133   4.699   2.635   9.606  0.3772  0.0302 -1.3791
  108OSM   H11G11134   4.627   2.731   9.480 -0.1433 -1.0835  0.0793
  108OSM   C12F11135   4.512   2.558   9.533  0.0214  0.7551 -0.3917
  108OSM   H12F11136   4.410   2.592   9.503 -0.4184  0.7771  1.0559
  108OSM   H12G11137   4.486   2.490   9.617 -2.3706  2.1784  0.0709
  108OSM   C13F11138   4.563   2.462   9.429  0.3093 -0.1350  0.0054
  108OSM   H13F11139   4.519   2.361   9.431  0.3486 -0.1401  0.8307
  108OSM   H13G11140   4.674   2.457   9.440  0.3078  0.1671  0.1902
  108OSM   C14F11141   4.556   2.525   9.288  0.4249  0.2278 -0.3942
  108OSM   H14F11142   4.604   2.625   9.290 -0.8421  0.8437 -0.2135
  108OSM   H14G11143   4.451   2.549   9.262  0.8585 -0.4188 -2.8711
  108OSM   C15F11144   4.614   2.440   9.179 -0.3723  0.5850  0.4614
  108OSM   H15F11145   4.562   2.341   9.172  1.4172 -0.2937 -0.6514
  108OSM   H15G11146   4.724   2.438   9.195 -0.7001  1.9555  3.2124
  108OSM   C16F11147   4.601   2.518   9.042  0.6517  0.3658  0.1292
  108OSM   H16F11148   4.675   2.598   9.062 -1.2502  1.9714  0.8843
  108OSM   H16G11149   4.499   2.560   9.026  0.9072  0.8190 -0.3294
  108OSM   C17F11150   4.640   2.441   8.917 -0.4815  0.2285 -0.4626
  108OSM   H17F11151   4.560   2.367   8.895 -0.1998  0.0218 -0.7712
  108OSM   H17G11152   4.730   2.376   8.923 -0.7783 -0.1963 -0.5851
  108OSM   C18F11153   4.664   2.546   8.806  0.1670 -0.3176 -0.3235
  108OSM   H18F11154   4.758   2.604   8.822  1.2990 -2.0237 -0.6339
  108OSM   H18G11155   4.579   2.617   8.812  1.0840  0.9996 -2.5462
  108OSM   H18H11156   4.687   2.493   8.712 -1.6907 -1.4531 -0.1646
  109OSM      N11157   4.442   0.918  11.032  0.0020  0.2270  0.5056
  109OSM    C1511158   4.391   1.040  11.079 -0.1173 -0.3025  0.2088
  109OSM   H15A11159   4.300   1.032  11.137  0.5315 -1.5113  1.0909
  109OSM   H15B11160   4.355   1.092  10.991 -0.4509 -2.2622 -0.8555
  109OSM   H15C11161   4.460   1.105  11.130  0.0454 -0.8413  0.6768
  109OSM    C1411162   4.555   0.951  10.943 -0.0275  0.1942 -0.2783
  109OSM   H14A11163   4.630   1.007  10.995  1.0578 -2.0649  0.6733
  109OSM   H14B11164   4.528   1.009  10.856 -1.1655 -0.0116 -0.0626
  109OSM   H14C11165   4.600   0.865  10.894  0.5010  0.2778  0.0578
  109OSM    C1311166   4.504   0.833  11.144  0.1437  0.0159  0.2257
  109OSM   H13A11167   4.566   0.754  11.105  0.4425  0.6394 -0.5577
  109OSM   H13B11168   4.418   0.790  11.195  0.1366 -0.2470 -0.0057
  109OSM   H13C11169   4.557   0.902  11.208 -0.4441  0.3720  0.3322
  109OSM    C1211170   4.332   0.842  10.964  0.5978  0.8614  0.2412
  109OSM   H12A11171   4.258   0.809  11.036  0.2645 -1.1321 -0.9874
  109OSM   H12B11172   4.383   0.757  10.921  0.9428  1.5458 -0.7061
  109OSM    C1111173   4.271   0.923  10.852  0.8069  0.2685  0.3896
  109OSM   H11A11174   4.225   0.856  10.776 -0.4557  0.0651  1.3243
  109OSM   H11B11175   4.345   0.967  10.782  1.6090 -0.7458  0.5863
  109OSM      P11176   4.023   0.979  10.931 -0.3059  0.5140  0.1174
  109OSM    O1311177   4.021   0.856  11.015  0.4823  0.8160  0.5098
  109OSM    O1411178   3.952   1.098  10.982  0.4531 -0.7387 -0.0854
  109OSM    O1111179   3.968   0.944  10.791 -0.2759 -0.7205  0.1382
  109OSM    O1211180   4.177   1.021  10.893  0.2570  0.6467  0.2852
  109OSM    C1S11181   3.946   1.037  10.694 -0.4499 -0.7329 -0.1801
  109OSM    H1S11182   3.988   1.135  10.725 -0.5002 -0.1152 -1.9771
  109OSM    H1T11183   3.838   1.057  10.679 -0.7438 -1.1684  1.3214
  109OSM     NF11184   4.014   1.076  10.458 -0.8747  0.0734 -0.3934
  109OSM    HNF11185   3.939   1.072  10.392 -1.1705 -1.1203  0.0057
  109OSM    C2S11186   4.001   0.978  10.563 -0.3244  0.7124  0.1949
  109OSM    H2S11187   4.106   0.950  10.588 -1.1767 -0.5494  2.4426
  109OSM    C3S11188   3.921   0.850  10.523  0.8664  1.7808  0.2452
  109OSM    H3S11189   3.818   0.882  10.496  0.4214 -0.0026 -0.2561
  109OSM     O311190   3.880   0.769  10.626  0.5030  0.2967 -0.1980
  109OSM    HO311191   3.899   0.818  10.706  1.4136 -0.9411  0.3706
  109OSM    C4S11192   3.997   0.777  10.419 -0.3784  0.3361 -0.2808
  109OSM    H4S11193   4.099   0.739  10.431 -0.2203  0.7103 -0.4526
  109OSM    C5S11194   3.946   0.743  10.303  0.0910  0.1089  0.2221
  109OSM    H5S11195   3.850   0.783  10.268 -0.7644 -1.4438  0.7744
  109OSM    C6S11196   4.023   0.649  10.216  0.0313  0.2785  0.8523
  109OSM    H6S11197   3.955   0.567  10.183 -0.6543  0.8720  0.7803
  109OSM    H6T11198   4.110   0.601  10.267 -0.5684 -1.4568  0.2716
  109OSM    C7S11199   4.063   0.716  10.085 -0.7135 -0.3952  0.2087
  109OSM    H7S11200   4.139   0.793  10.111  0.0928 -1.1914  0.2267
  109OSM    H7T11201   3.980   0.762  10.026 -0.4130  1.3702  1.1270
  109OSM    C8S11202   4.123   0.609   9.987  0.3116  0.0290  0.4131
  109OSM    H8S11203   4.185   0.540  10.048  1.1659  0.4850  0.0786
  109OSM    H8T11204   4.191   0.646   9.907  0.6329  1.6921  1.4309
  109OSM    C9S11205   4.029   0.522   9.907 -0.4971 -0.0204 -0.0505
  109OSM    H9S11206   3.964   0.464   9.976  1.1514 -0.5801  1.0710
  109OSM    H9T11207   4.080   0.449   9.841 -0.2181  2.4294 -2.6625
  109OSM   C10S11208   3.945   0.611   9.817  0.3507 -0.0589 -0.3215
  109OSM   H10S11209   4.003   0.690   9.765 -1.1110  2.7263  2.1475
  109OSM   H10T11210   3.868   0.662   9.878  0.7459 -0.4919  0.5465
  109OSM   C11S11211   3.866   0.528   9.721 -0.0927 -0.0239 -0.4917
  109OSM   H11S11212   3.809   0.440   9.759 -0.4904 -0.1919 -1.4854
  109OSM   H11T11213   3.945   0.473   9.665  0.9544  0.0025  0.9241
  109OSM   C12S11214   3.783   0.618   9.622 -0.4114  0.4628 -0.0076
  109OSM   H12S11215   3.840   0.714   9.622 -0.3094  0.4045  0.5287
  109OSM   H12T11216   3.682   0.643   9.660  0.4526  3.4987  0.4730
  109OSM   C13S11217   3.784   0.564   9.479  0.2085 -0.3530 -0.5712
  109OSM   H13S11218   3.767   0.454   9.479  0.2891 -0.3798  0.5244
  109OSM   H13T11219   3.889   0.573   9.445  0.5734 -1.1462  0.2953
  109OSM   C14S11220   3.686   0.646   9.384 -0.3559  0.4729 -0.6858
  109OSM   H14S11221   3.717   0.752   9.392 -1.5657  0.7594  0.4376
  109OSM   H14T11222   3.583   0.646   9.428  0.3044 -0.1983  0.8989
  109OSM   C15S11223   3.696   0.600   9.236  0.5891 -0.5195 -0.1915
  109OSM   H15S11224   3.714   0.492   9.220  0.0980 -0.9978  2.2251
  109OSM   H15T11225   3.775   0.663   9.191  2.5591 -0.5530  3.0634
  109OSM   C16S11226   3.568   0.656   9.160  0.0825 -0.2875 -0.3739
  109OSM   H16S11227   3.557   0.761   9.194 -3.9002  0.3058 -3.0894
  109OSM   H16T11228   3.481   0.597   9.196  0.5338 -0.1083  1.0202
  109OSM   C17S11229   3.557   0.655   9.004 -0.2087 -0.2909 -0.6001
  109OSM   H17S11230   3.646   0.715   8.977  0.4996  0.4141  3.0295
  109OSM   H17T11231   3.474   0.715   8.960 -0.0589  0.0495 -0.4157
  109OSM   C18S11232   3.555   0.510   8.948  0.8374 -0.1503 -0.2293
  109OSM   H18S11233   3.520   0.511   8.842 -3.3500 -1.4205  1.0416
  109OSM   H18T11234   3.482   0.440   8.995 -0.9964  1.6887 -0.2424
  109OSM   H18U11235   3.652   0.458   8.961  0.6905  0.0647  1.9208
  109OSM    C1F11236   4.097   1.177  10.465  0.6344  0.4522 -0.1112
  109OSM     OF11237   4.162   1.206  10.563 -0.1214  0.4882  0.1782
  109OSM    C2F11238   4.100   1.277  10.350 -0.2223  0.5633 -0.8731
  109OSM    H2F11239   4.112   1.378  10.394 -1.9765 -0.1531  1.3419
  109OSM    H2G11240   3.996   1.265  10.314 -0.3552 -0.0410 -0.2887
  109OSM    C3F11241   4.206   1.256  10.246 -0.0479 -0.0780 -0.2975
  109OSM    H3F11242   4.304   1.223  10.286  0.6588  1.6967 -0.5153
  109OSM    H3G11243   4.221   1.352  10.191  2.3343 -0.5982 -0.6193
  109OSM    C4F11244   4.172   1.152  10.135 -0.6919  0.6194 -0.0451
  109OSM    H4F11245   4.103   1.208  10.068 -2.2227  1.1267  1.9140
  109OSM    H4G11246   4.122   1.063  10.177 -2.7015  1.9502  0.4315
  109OSM    C5F11247   4.306   1.119  10.060 -0.0433  0.2049 -0.9869
  109OSM    H5F11248   4.370   1.056  10.124 -1.4604 -1.8165 -1.5052
  109OSM    H5G11249   4.364   1.212  10.046  3.9477 -1.7848  1.6664
  109OSM    C6F11250   4.278   1.046   9.921 -0.5378  0.4848 -0.1862
  109OSM    H6F11251   4.217   0.955   9.940  1.7240 -1.3108 -1.2649
  109OSM    H6G11252   4.377   1.014   9.882 -0.7796  0.3133 -0.6713
  109OSM    C7F11253   4.200   1.127   9.819  0.4857  0.2911  0.1487
  109OSM    H7F11254   4.254   1.223   9.807 -0.1042  0.3459 -2.3068
  109OSM    H7G11255   4.096   1.148   9.851 -0.1430 -0.5413 -1.3059
  109OSM    C8F11256   4.188   1.053   9.679  0.0087 -0.3868  0.2367
  109OSM    H8F11257   4.148   1.133   9.613  0.1587 -0.6005 -0.1148
  109OSM    H8G11258   4.108   0.975   9.680  0.6274 -1.0753 -1.4174
  109OSM    C9F11259   4.318   0.992   9.616 -0.1582 -0.6635 -0.0673
  109OSM    H9F11260   4.406   1.054   9.637 -1.1305  0.4910  0.7258
  109OSM   C10F11261   4.318   0.887   9.530  0.5016 -0.4809  0.1719
  109OSM   H10F11262   4.416   0.846   9.501  0.9139  0.4855  0.1777
  109OSM   C11F11263   4.190   0.816   9.489 -0.6659  0.3915 -0.1717
  109OSM   H11F11264   4.095   0.870   9.512  0.1974  2.5756 -1.5893
  109OSM   H11G11265   4.188   0.726   9.555 -0.8059 -0.6974 -1.6429
  109OSM   C12F11266   4.167   0.767   9.346  0.2180 -0.3232  0.2327
  109OSM   H12F11267   4.107   0.674   9.354  0.7267 -0.5666  1.3276
  109OSM   H12G11268   4.263   0.732   9.301  0.4145 -2.1225  1.9597
  109OSM   C13F11269   4.106   0.869   9.244 -0.3357  0.7590 -0.0213
  109OSM   H13F11270   4.176   0.955   9.252  0.3546  0.3321 -1.3929
  109OSM   H13G11271   4.008   0.907   9.281  0.2606  1.0463  1.3211
  109OSM   C14F11272   4.092   0.820   9.099 -0.2043 -0.0819 -0.3289
  109OSM   H14F11273   4.003   0.756   9.084 -0.7741  0.4093  0.8909
  109OSM   H14G11274   4.186   0.764   9.080  0.4660  0.0981  2.2385
  109OSM   C15F11275   4.086   0.937   8.998  0.0311 -0.1464 -0.8498
  109OSM   H15F11276   3.993   0.997   9.007  0.4795  0.4561 -0.0913
  109OSM   H15G11277   4.082   0.891   8.897 -0.7963 -0.7635 -0.5338
  109OSM   C16F11278   4.218   1.031   8.992 -0.1314 -0.4190 -0.2568
  109OSM   H16F11279   4.309   0.974   8.965  0.7941  1.6218 -1.5390
  109OSM   H16G11280   4.238   1.082   9.089 -1.6222 -0.2898 -0.0064
  109OSM   C17F11281   4.207   1.138   8.879 -0.3462 -0.4545 -0.8789
  109OSM   H17F11282   4.109   1.188   8.892  0.1056  0.2682 -0.2331
  109OSM   H17G11283   4.216   1.091   8.778  0.7437  0.5907 -1.2905
  109OSM   C18F11284   4.314   1.243   8.887 -0.2232 -0.9234 -0.6910
  109OSM   H18F11285   4.327   1.279   8.992 -2.6304  0.2798 -0.7516
  109OSM   H18G11286   4.295   1.338   8.832 -0.8269 -0.5417  0.1610
  109OSM   H18H11287   4.409   1.205   8.845  0.1589  1.6308 -2.2732
  110OSM      N11288   4.873   6.304  11.197  0.0874 -0.1688 -0.0074
  110OSM    C1511289   4.846   6.343  11.057 -0.1154  0.8035 -0.0479
  110OSM   H15A11290   4.754   6.399  11.060  0.8834  2.4232  1.3604
  110OSM   H15B11291   4.849   6.256  10.993  2.2721  0.0177  1.0752
  110OSM   H15C11292   4.928   6.402  11.020  1.7616  0.0498  2.7498
  110OSM    C1411293   4.917   6.423  11.278  0.1792  0.2863  1.0649
  110OSM   H14A11294   5.018   6.455  11.259  0.7858 -0.4829  2.8318
  110OSM   H14B11295   4.922   6.388  11.381  1.5756 -0.2097  0.8472
  110OSM   H14C11296   4.854   6.510  11.272 -1.3812 -0.9104 -0.3545
  110OSM    C1311297   4.746   6.253  11.264 -0.7798 -0.6584  0.5298
  110OSM   H13A11298   4.671   6.325  11.238 -0.2601  0.6010  2.4239
  110OSM   H13B11299   4.759   6.248  11.371  0.4485 -2.9460  0.3337
  110OSM   H13C11300   4.705   6.162  11.222  1.5942 -0.9613 -1.2622
  110OSM    C1211301   4.980   6.188  11.198  0.8201  0.1503  0.3738
  110OSM   H12A11302   4.935   6.099  11.156  0.4327  1.4377 -2.0436
  110OSM   H12B11303   4.994   6.169  11.303  0.5809  1.5596  0.6780
  110OSM    C1111304   5.115   6.220  11.127  0.0018  0.9523 -0.3778
  110OSM   H11A11305   5.109   6.236  11.017  1.4776  1.0743 -0.4456
  110OSM   H11B11306   5.171   6.124  11.135 -1.4718  0.1565  0.7379
  110OSM      P11307   5.335   6.357  11.153  0.1077 -0.1872  0.2057
  110OSM    O1311308   5.416   6.401  11.267 -0.2817  0.2798  0.2165
  110OSM    O1411309   5.389   6.244  11.077  0.9579  0.4397  0.0320
  110OSM    O1111310   5.320   6.482  11.049 -0.1461  0.7152 -0.2621
  110OSM    O1211311   5.187   6.325  11.196  0.7240 -0.2401 -0.1573
  110OSM    C1S11312   5.271   6.447  10.911  0.4472 -0.2401  0.1659
  110OSM    H1S11313   5.161   6.432  10.910  0.4541 -0.3879  1.0591
  110OSM    H1T11314   5.328   6.359  10.874 -0.8302 -1.6790  1.5198
  110OSM     NF11315   5.277   6.500  10.668  0.3152  0.7465  0.5971
  110OSM    HNF11316   5.349   6.449  10.621 -0.1578  0.7912 -0.1815
  110OSM    C2S11317   5.318   6.548  10.792  0.1418  0.1293  0.3416
  110OSM    H2S11318   5.260   6.641  10.813  0.4454  0.5695 -0.7460
  110OSM    C3S11319   5.475   6.581  10.794  0.0598  0.0388  0.4129
  110OSM    H3S11320   5.534   6.493  10.760  0.8326 -0.3374  2.6536
  110OSM     O311321   5.526   6.611  10.923  0.1247 -0.6397 -0.1464
  110OSM    HO311322   5.456   6.584  10.982 -0.4684 -3.0000 -1.8478
  110OSM    C4S11323   5.494   6.698  10.696  0.2608 -0.0039 -0.0484
  110OSM    H4S11324   5.414   6.772  10.714  0.6993  0.1587  1.2545
  110OSM    C5S11325   5.590   6.712  10.605  0.0283 -0.1629  0.0857
  110OSM    H5S11326   5.668   6.635  10.594 -0.9597 -1.2031  0.2883
  110OSM    C6S11327   5.588   6.823  10.500 -0.0437 -0.3683  0.6017
  110OSM    H6S11328   5.594   6.765  10.405  0.5570 -0.6417  0.8027
  110OSM    H6T11329   5.679   6.885  10.509  0.0635 -0.2168 -1.2183
  110OSM    C7S11330   5.465   6.915  10.479  0.0280 -0.1998 -0.0092
  110OSM    H7S11331   5.438   6.982  10.563  0.1407  0.3513 -0.4078
  110OSM    H7T11332   5.378   6.851  10.452 -0.6955 -0.5568  3.0180
  110OSM    C8S11333   5.489   7.009  10.361 -0.8154  0.0689  0.0318
  110OSM    H8S11334   5.389   7.048  10.332  0.7577  2.6828 -2.0917
  110OSM    H8T11335   5.527   6.947  10.278  0.8803  0.1827  0.7034
  110OSM    C9S11336   5.584   7.124  10.404  0.0891  0.2154 -0.6011
  110OSM    H9S11337   5.680   7.075  10.431 -0.7399 -1.0440  0.0882
  110OSM    H9T11338   5.540   7.176  10.491  2.8171 -0.2159  1.1102
  110OSM   C10S11339   5.611   7.231  10.300 -0.6130  0.0266 -0.6828
  110OSM   H10S11340   5.647   7.192  10.203  0.4273  1.6083 -0.9481
  110OSM   H10T11341   5.700   7.285  10.340 -1.8861  0.0403  2.2699
  110OSM   C11S11342   5.481   7.308  10.267  0.3765 -0.4057  0.2303
  110OSM   H11S11343   5.456   7.372  10.354  2.1463  0.9240 -0.2110
  110OSM   H11T11344   5.400   7.239  10.234 -0.2772 -0.0133  0.9950
  110OSM   C12S11345   5.493   7.412  10.151  0.1450  0.3928  0.7533
  110OSM   H12S11346   5.395   7.463  10.144  0.0058 -0.1349 -1.6906
  110OSM   H12T11347   5.513   7.355  10.058 -2.3009 -1.4174  1.2955
  110OSM   C13S11348   5.599   7.525  10.170  0.4662 -0.5557 -0.2426
  110OSM   H13S11349   5.706   7.499  10.160  1.0002  2.6202 -3.7352
  110OSM   H13T11350   5.594   7.565  10.274 -2.4524 -1.3541 -0.0242
  110OSM   C14S11351   5.576   7.642  10.063 -0.1103  0.3811  0.0994
  110OSM   H14S11352   5.474   7.684  10.069 -0.1841  0.2559 -0.2746
  110OSM   H14T11353   5.573   7.586   9.967 -4.0675 -0.0611  0.4219
  110OSM   C15S11354   5.686   7.744  10.071 -0.4135 -0.2260 -0.1159
  110OSM   H15S11355   5.781   7.703  10.111 -1.0626  0.0365  1.7218
  110OSM   H15T11356   5.652   7.815  10.149  0.6070  0.9113 -0.6785
  110OSM   C16S11357   5.710   7.825   9.946 -0.1338  0.1934  0.2867
  110OSM   H16S11358   5.793   7.896   9.970 -0.1548 -0.1808  1.4894
  110OSM   H16T11359   5.627   7.890   9.910 -0.1351 -0.5524 -1.0928
  110OSM   C17S11360   5.768   7.742   9.827 -0.0611 -0.9672 -0.5576
  110OSM   H17S11361   5.682   7.675   9.803 -0.2615  0.2588 -3.4653
  110OSM   H17T11362   5.852   7.679   9.864 -0.1929  0.5354  2.4339
  110OSM   C18S11363   5.825   7.814   9.709  0.5734  0.0323  0.2399
  110OSM   H18S11364   5.892   7.751   9.647 -0.2473 -0.7795  0.1726
  110OSM   H18T11365   5.886   7.902   9.740  0.6531  0.3930 -0.9127
  110OSM   H18U11366   5.753   7.846   9.631 -0.2314 -1.9771  0.1479
  110OSM    C1F11367   5.153   6.485  10.639 -0.0916  0.3451 -0.1825
  110OSM     OF11368   5.066   6.558  10.691  0.5381 -0.2295 -0.0279
  110OSM    C2F11369   5.110   6.369  10.542 -0.6929  0.0533 -0.0519
  110OSM    H2F11370   5.070   6.292  10.611  0.5653 -0.9719 -0.4417
  110OSM    H2G11371   5.199   6.335  10.486 -0.7283  1.6039 -1.0885
  110OSM    C3F11372   5.006   6.404  10.436  0.2587  0.0729  0.6347
  110OSM    H3F11373   5.050   6.488  10.378 -0.0993  0.1011  0.4011
  110OSM    H3G11374   4.918   6.454  10.483  0.5697 -0.8621  2.2389
  110OSM    C4F11375   4.970   6.291  10.349 -0.2359 -0.3379 -0.0747
  110OSM    H4F11376   4.945   6.201  10.408  0.0662 -0.2018  0.2577
  110OSM    H4G11377   5.060   6.255  10.294  1.1541  1.9491  0.6430
  110OSM    C5F11378   4.859   6.319  10.245 -0.0309  0.1192  0.1261
  110OSM    H5F11379   4.771   6.358  10.301  0.1871  0.5716  0.1576
  110OSM    H5G11380   4.841   6.220  10.199 -0.2694  0.2795 -0.1215
  110OSM    C6F11381   4.906   6.416  10.131 -0.0590  0.0904 -0.5961
  110OSM    H6F11382   4.902   6.522  10.162  0.1601 -0.1206  0.1617
  110OSM    H6G11383   4.837   6.392  10.046  0.5968  1.1808 -1.4492
  110OSM    C7F11384   5.055   6.391  10.079 -0.3945 -0.3785  0.8677
  110OSM    H7F11385   5.080   6.283  10.082  4.6329  0.6553  0.7068
  110OSM    H7G11386   5.135   6.444  10.135 -1.0755  2.4877 -0.7732
  110OSM    C8F11387   5.065   6.441   9.923 -0.0102  0.1037  0.3186
  110OSM    H8F11388   5.174   6.435   9.902 -0.2728 -0.9276 -0.7983
  110OSM    H8G11389   5.045   6.550   9.935  1.2514  0.1352  2.3764
  110OSM    C9F11390   4.986   6.376   9.805  0.0750  0.2025  0.0795
  110OSM    H9F11391   4.902   6.307   9.821  0.4048 -0.1082  0.4786
  110OSM   C10F11392   5.007   6.404   9.678  0.2222 -0.5671  0.1775
  110OSM   H10F11393   4.954   6.355   9.595 -0.7886  2.1464 -0.8320
  110OSM   C11F11394   5.110   6.500   9.630  0.0556 -0.8794  0.7423
  110OSM   H11F11395   5.142   6.479   9.526 -3.2413 -0.6570 -0.4011
  110OSM   H11G11396   5.202   6.509   9.692  1.1575 -2.6914 -0.5812
  110OSM   C12F11397   5.071   6.650   9.617  0.1725 -0.2296  0.9038
  110OSM   H12F11398   5.050   6.698   9.715 -2.3129  2.5100 -0.8825
  110OSM   H12G11399   4.978   6.666   9.559  1.1301  3.0880  0.1318
  110OSM   C13F11400   5.180   6.731   9.533  0.0182 -0.1910 -0.3380
  110OSM   H13F11401   5.190   6.689   9.431 -2.0850 -0.2706 -0.5372
  110OSM   H13G11402   5.280   6.721   9.580  1.0895  3.3127 -1.7545
  110OSM   C14F11403   5.157   6.885   9.531 -0.0942 -1.8195 -0.0781
  110OSM   H14F11404   5.173   6.934   9.630  1.5795 -3.5162  0.5198
  110OSM   H14G11405   5.048   6.898   9.510 -0.0458 -1.0418  0.1238
  110OSM   C15F11406   5.232   6.960   9.419 -0.9408  0.2406  0.0476
  110OSM   H15F11407   5.199   7.066   9.419  1.3519  1.0126 -2.3173
  110OSM   H15G11408   5.205   6.914   9.321 -3.0135  0.1087  0.6587
  110OSM   C16F11409   5.377   6.960   9.446  0.3716 -0.4300  0.2620
  110OSM   H16F11410   5.393   6.947   9.555  0.8840  1.7580  0.4595
  110OSM   H16G11411   5.433   7.050   9.414  1.0118 -1.2502 -0.9501
  110OSM   C17F11412   5.452   6.847   9.361  0.2267  0.1116  0.7654
  110OSM   H17F11413   5.401   6.750   9.380  1.6188 -0.9693 -0.9595
  110OSM   H17G11414   5.555   6.844   9.402  1.6731  1.3768 -2.5943
  110OSM   C18F11415   5.473   6.869   9.212  0.2448  0.8253 -0.5942
  110OSM   H18F11416   5.505   6.775   9.163  1.5832  0.4490  0.9599
  110OSM   H18G11417   5.538   6.954   9.181 -2.3594  2.2444 -2.3193
  110OSM   H18H11418   5.376   6.897   9.166 -1.1441  0.4730  2.0585
  111OSM      N11419   5.428   3.687  10.825 -0.4570 -0.1830  0.1922
  111OSM    C1511420   5.501   3.771  10.927 -0.3521 -0.2053 -0.2948
  111OSM   H15A11421   5.501   3.874  10.896  3.0421  0.0548  0.4061
  111OSM   H15B11422   5.603   3.737  10.940 -0.2329 -0.0622 -0.8484
  111OSM   H15C11423   5.459   3.757  11.026 -0.7239 -1.3672 -0.6082
  111OSM    C1411424   5.522   3.621  10.729 -0.3240 -0.0278  0.0819
  111OSM   H14A11425   5.584   3.548  10.779  0.2786  1.4560  1.5557
  111OSM   H14B11426   5.587   3.695  10.684  1.2402 -2.0310 -1.0742
  111OSM   H14C11427   5.487   3.566  10.643 -0.6244 -2.6345  1.8304
  111OSM    C1311428   5.344   3.592  10.900 -0.2238  0.1472  0.0921
  111OSM   H13A11429   5.394   3.510  10.950 -2.4639 -1.9142 -0.8929
  111OSM   H13B11430   5.281   3.541  10.828  0.0901 -0.2858  0.1202
  111OSM   H13C11431   5.281   3.635  10.976 -0.7985  0.9758 -0.8368
  111OSM    C1211432   5.331   3.780  10.749  0.0365 -0.9887 -0.0698
  111OSM   H12A11433   5.259   3.816  10.821  0.4430  1.3066 -0.7665
  111OSM   H12B11434   5.278   3.727  10.671 -0.4128  3.2927 -2.8085
  111OSM    C1111435   5.394   3.900  10.677 -0.5540 -0.0182 -0.7214
  111OSM   H11A11436   5.308   3.944  10.622  0.7298  1.8195 -1.2975
  111OSM   H11B11437   5.456   3.854  10.597 -0.4705 -3.0913  1.0132
  111OSM      P11438   5.605   4.048  10.738 -0.3026 -0.0451  0.0201
  111OSM    O1311439   5.621   4.166  10.831  0.4059  0.1848  0.5303
  111OSM    O1411440   5.705   3.941  10.747  0.1670  0.3972 -0.3745
  111OSM    O1111441   5.591   4.090  10.587  0.4881 -0.2750  0.5433
  111OSM    O1211442   5.457   3.994  10.765 -0.0312  0.4102 -0.2582
  111OSM    C1S11443   5.482   4.172  10.545 -0.3461  0.3894 -0.1319
  111OSM    H1S11444   5.463   4.260  10.610 -1.7276 -0.4637  0.6122
  111OSM    H1T11445   5.395   4.104  10.531  0.0499 -0.9020  3.3303
  111OSM     NF11446   5.407   4.339  10.384  0.4191 -0.2414  0.2650
  111OSM    HNF11447   5.333   4.315  10.322 -0.2236 -0.0948  0.9715
  111OSM    C2S11448   5.512   4.240  10.409 -0.1144  0.2917 -0.5829
  111OSM    H2S11449   5.611   4.289  10.423  0.0373 -0.4602  1.0912
  111OSM    C3S11450   5.524   4.128  10.301  0.1335 -0.2213 -0.5314
  111OSM    H3S11451   5.433   4.066  10.313 -0.4885  0.7143 -0.4081
  111OSM     O311452   5.640   4.045  10.321 -0.2521  0.4883 -0.4664
  111OSM    HO311453   5.649   4.030  10.416 -0.2210  0.2516 -0.5060
  111OSM    C4S11454   5.521   4.180  10.157 -0.4980 -0.8133 -0.9742
  111OSM    H4S11455   5.416   4.181  10.125 -0.8466  0.4167  0.1654
  111OSM    C5S11456   5.626   4.215  10.082 -0.8366 -0.3189  0.2574
  111OSM    H5S11457   5.724   4.219  10.132 -0.5872  0.8203 -0.3006
  111OSM    C6S11458   5.608   4.274   9.943 -0.0145  0.2051 -0.1298
  111OSM    H6S11459   5.543   4.363   9.953  0.3807  0.4255  0.4500
  111OSM    H6T11460   5.555   4.196   9.884 -0.4278  0.3695  0.0230
  111OSM    C7S11461   5.739   4.300   9.868  0.1822  0.2562 -0.8664
  111OSM    H7S11462   5.826   4.238   9.897 -0.6372 -0.8425 -0.7562
  111OSM    H7T11463   5.761   4.403   9.906  0.6719 -0.2307  0.1786
  111OSM    C8S11464   5.727   4.312   9.718 -0.0713 -0.2202 -0.2412
  111OSM    H8S11465   5.663   4.399   9.693  1.3019  0.4133 -1.5868
  111OSM    H8T11466   5.677   4.223   9.677 -0.0374  0.4744 -1.8184
  111OSM    C9S11467   5.858   4.309   9.640  0.2355  0.1241 -1.2090
  111OSM    H9S11468   5.923   4.232   9.685 -1.9999 -1.3055 -0.3199
  111OSM    H9T11469   5.913   4.404   9.653 -0.2309 -0.0582  2.7129
  111OSM   C10S11470   5.827   4.264   9.490 -0.1535 -0.2666  0.0213
  111OSM   H10S11471   5.754   4.181   9.494 -0.2828 -0.1282  0.5152
  111OSM   H10T11472   5.924   4.229   9.448  0.0130 -0.3203  0.4471
  111OSM   C11S11473   5.788   4.382   9.403  0.2494  0.4991  0.6768
  111OSM   H11S11474   5.859   4.466   9.420  1.3928 -1.0987  4.5619
  111OSM   H11T11475   5.684   4.409   9.430 -0.4010 -0.9926 -0.2366
  111OSM   C12S11476   5.790   4.350   9.252 -0.6280  1.0363 -0.6892
  111OSM   H12S11477   5.719   4.273   9.215 -0.0019  0.8452 -1.5069
  111OSM   H12T11478   5.887   4.307   9.220 -0.4057  0.1915  1.0462
  111OSM   C13S11479   5.784   4.480   9.167  0.0692  0.1671 -0.2704
  111OSM   H13S11480   5.874   4.540   9.194  0.5302 -0.2027 -0.9492
  111OSM   H13T11481   5.688   4.532   9.182  0.5832  0.9967  0.1383
  111OSM   C14S11482   5.775   4.460   9.017 -0.4868  0.2242 -1.1319
  111OSM   H14S11483   5.701   4.384   8.984 -0.1553 -0.7234  0.2848
  111OSM   H14T11484   5.872   4.422   8.979  1.2125  2.6504  0.6290
  111OSM   C15S11485   5.739   4.582   8.931 -0.6258 -0.1672 -0.4566
  111OSM   H15S11486   5.642   4.631   8.954  1.5884  3.4175  1.5203
  111OSM   H15T11487   5.731   4.545   8.826 -1.7076 -0.1556 -0.3895
  111OSM   C16S11488   5.850   4.682   8.931 -0.0806 -0.9128  0.6685
  111OSM   H16S11489   5.944   4.641   8.890 -0.0377 -1.6820  1.5355
  111OSM   H16T11490   5.874   4.717   9.034 -0.7524 -3.6344  1.7828
  111OSM   C17S11491   5.822   4.803   8.841  0.0757  0.1949 -0.4331
  111OSM   H17S11492   5.803   4.766   8.738 -1.2468  0.4997 -0.3044
  111OSM   H17T11493   5.922   4.853   8.845 -0.4924  1.2186  2.8576
  111OSM   C18S11494   5.722   4.909   8.893  0.0781  0.3523 -0.2829
  111OSM   H18S11495   5.635   4.859   8.941 -0.3593  3.7734  2.7273
  111OSM   H18T11496   5.681   4.977   8.815 -1.3636  1.1990  1.1767
  111OSM   H18U11497   5.776   4.978   8.961  0.8604 -1.1841  0.6989
  111OSM    C1F11498   5.402   4.450  10.465 -0.3825 -0.4600  0.2204
  111OSM     OF11499   5.494   4.476  10.539  0.0277  0.3011 -0.7250
  111OSM    C2F11500   5.280   4.532  10.444 -0.3703 -0.7868 -0.6231
  111OSM    H2F11501   5.213   4.534  10.533  1.1300  2.7310  0.5408
  111OSM    H2G11502   5.226   4.512  10.349 -0.3920  1.7110 -1.1927
  111OSM    C3F11503   5.316   4.683  10.439 -0.3815 -0.3206  0.8822
  111OSM    H3F11504   5.391   4.701  10.359 -0.2968 -2.6848  0.3885
  111OSM    H3G11505   5.361   4.710  10.537  0.8848  0.5795  0.0692
  111OSM    C4F11506   5.192   4.760  10.388  0.4195  0.5356  0.3245
  111OSM    H4F11507   5.110   4.758  10.463  1.5413 -0.8984  1.5326
  111OSM    H4G11508   5.145   4.713  10.300  0.4009  3.2614 -1.1941
  111OSM    C5F11509   5.217   4.910  10.348 -0.4765 -0.3685 -0.3056
  111OSM    H5F11510   5.286   4.957  10.421 -1.5387  0.5634  0.0878
  111OSM    H5G11511   5.120   4.962  10.343 -0.3529  0.0529  1.6208
  111OSM    C6F11512   5.286   4.926  10.207 -0.2928  0.6262 -0.9007
  111OSM    H6F11513   5.387   4.882  10.218 -0.7820  0.1321  2.0337
  111OSM    H6G11514   5.301   5.035  10.191  2.0777  1.0059  3.3162
  111OSM    C7F11515   5.210   4.857  10.087  0.3235  0.6858  0.1968
  111OSM    H7F11516   5.099   4.868  10.083  0.3565  0.4966 -2.5620
  111OSM    H7G11517   5.234   4.751  10.109 -1.9722  0.0723 -0.1251
  111OSM    C8F11518   5.266   4.891   9.944 -0.0592 -0.4636  0.0119
  111OSM    H8F11519   5.228   4.801   9.891 -0.7503  0.4374 -1.0386
  111OSM    H8G11520   5.377   4.891   9.948 -0.0170 -1.6897 -0.7758
  111OSM    C9F11521   5.209   5.021   9.894 -0.1215 -0.4522 -0.1963
  111OSM    H9F11522   5.198   5.102   9.968 -0.2000  1.1543 -1.9286
  111OSM   C10F11523   5.169   5.043   9.769  0.1671 -0.0831  0.4741
  111OSM   H10F11524   5.111   5.135   9.751 -0.4440 -0.3621  1.0134
  111OSM   C11F11525   5.159   4.940   9.662 -0.3531  0.0710 -0.0100
  111OSM   H11F11526   5.070   4.874   9.669 -0.5389  0.2367 -0.8185
  111OSM   H11G11527   5.243   4.868   9.670  1.4125  2.2668  1.9930
  111OSM   C12F11528   5.155   5.003   9.522 -0.5920 -0.5313 -0.8047
  111OSM   H12F11529   5.058   5.055   9.505 -0.9529 -0.1813  2.0498
  111OSM   H12G11530   5.152   4.924   9.444  1.9035  0.0845 -1.5789
  111OSM   C13F11531   5.276   5.098   9.493  0.5892  0.0207  0.7046
  111OSM   H13F11532   5.364   5.036   9.520 -0.4214 -2.7481 -2.0764
  111OSM   H13G11533   5.272   5.185   9.562 -1.0010  0.3058  0.2720
  111OSM   C14F11534   5.287   5.145   9.344  0.4940  0.2179 -0.3308
  111OSM   H14F11535   5.321   5.062   9.279 -1.1005 -2.0424  1.6329
  111OSM   H14G11536   5.358   5.229   9.328  1.2585 -0.5921 -1.2600
  111OSM   C15F11537   5.143   5.172   9.286 -0.0876  0.3034  0.2381
  111OSM   H15F11538   5.106   5.257   9.347  0.2400  0.4417  0.2440
  111OSM   H15G11539   5.070   5.090   9.299 -1.3065  1.2653 -0.3719
  111OSM   C16F11540   5.140   5.215   9.138 -0.0314  1.0640  0.3321
  111OSM   H16F11541   5.223   5.285   9.114 -1.0707  1.9163 -0.8683
  111OSM   H16G11542   5.049   5.277   9.127 -0.7312  0.3226  1.7980
  111OSM   C17F11543   5.110   5.104   9.035 -0.2089 -0.6561  0.1277
  111OSM   H17F11544   5.031   5.037   9.072 -0.3868  0.3403  1.5640
  111OSM   H17G11545   5.202   5.042   9.023  0.3371  0.0591  0.6167
  111OSM   C18F11546   5.071   5.164   8.901  0.0551  0.2321 -0.8286
  111OSM   H18F11547   5.134   5.250   8.871  1.6702 -0.9231 -0.8053
  111OSM   H18G11548   4.966   5.198   8.886  0.6807  3.1767  0.8658
  111OSM   H18H11549   5.092   5.084   8.827 -1.8689 -1.1021  0.0275
  112OSM      N11550   5.318   2.156  11.380 -0.5661  0.2644 -0.5539
  112OSM    C1511551   5.320   2.093  11.517 -0.4180 -0.4838 -0.2921
  112OSM   H15A11552   5.238   2.024  11.534 -2.1393  1.7629  0.6842
  112OSM   H15B11553   5.308   2.175  11.586  0.2179 -0.3805 -0.3025
  112OSM   H15C11554   5.410   2.038  11.543 -0.9494 -0.9956  0.4869
  112OSM    C1411555   5.196   2.238  11.362 -0.0401 -0.3552  0.1816
  112OSM   H14A11556   5.191   2.311  11.442  1.2536 -0.0580  0.0066
  112OSM   H14B11557   5.107   2.178  11.366  2.2844 -4.0274 -0.4835
  112OSM   H14C11558   5.196   2.283  11.264  3.4070 -1.2511 -0.3046
  112OSM    C1311559   5.437   2.250  11.370  0.1477  0.4944  0.3450
  112OSM   H13A11560   5.432   2.290  11.270 -2.0209 -1.3603 -0.3255
  112OSM   H13B11561   5.533   2.201  11.364 -0.0890  0.2940 -2.0552
  112OSM   H13C11562   5.442   2.328  11.445  0.4697  1.1534 -0.3515
  112OSM    C1211563   5.314   2.046  11.270 -0.3631 -0.2451  0.0253
  112OSM   H12A11564   5.216   2.001  11.275 -0.8968  0.8791 -0.1031
  112OSM   H12B11565   5.390   1.972  11.288 -1.5148 -1.2007  1.0304
  112OSM    C1111566   5.341   2.088  11.124 -0.4315 -0.0495  0.1032
  112OSM   H11A11567   5.328   1.997  11.063  1.6959 -0.4584  0.2157
  112OSM   H11B11568   5.449   2.104  11.102 -0.2604  2.9151  2.7287
  112OSM      P11569   5.307   2.276  10.943  0.6720  0.4339 -0.1223
  112OSM    O1311570   5.206   2.385  10.915 -0.5301 -0.1113 -0.0234
  112OSM    O1411571   5.444   2.322  10.973  0.0199 -0.1812 -0.3194
  112OSM    O1111572   5.309   2.153  10.835  0.0598  0.4866 -0.5181
  112OSM    O1211573   5.260   2.196  11.074  0.2518 -0.1808  0.6904
  112OSM    C1S11574   5.185   2.078  10.813 -0.6851  0.1393 -0.3802
  112OSM    H1S11575   5.111   2.133  10.751  2.7969  0.5529 -4.4099
  112OSM    H1T11576   5.131   2.046  10.905 -1.3270  1.3066 -0.3435
  112OSM     NF11577   5.093   1.885  10.694 -0.5026 -0.3631 -0.0869
  112OSM    HNF11578   5.082   1.789  10.718 -1.3787 -0.3522 -0.4279
  112OSM    C2S11579   5.213   1.952  10.723  0.0428 -0.7002 -0.1437
  112OSM    H2S11580   5.253   1.979  10.623  0.0600  0.4744  0.1792
  112OSM    C3S11581   5.325   1.857  10.780  0.2817 -0.1314  1.1939
  112OSM    H3S11582   5.282   1.801  10.866  0.3302  1.6819  2.4166
  112OSM     O311583   5.449   1.895  10.837 -0.0808 -0.6700  0.6790
  112OSM    HO311584   5.443   1.991  10.839  0.9204 -0.6021  0.7984
  112OSM    C4S11585   5.366   1.766  10.669  0.1654  0.2660 -0.3855
  112OSM    H4S11586   5.376   1.818  10.573  1.4948  0.9848  0.1263
  112OSM    C5S11587   5.392   1.637  10.671  0.4126  1.1233 -0.3612
  112OSM    H5S11588   5.386   1.579  10.764 -3.5358  0.2192 -1.0900
  112OSM    C6S11589   5.439   1.566  10.552  0.0928  0.3309  0.6355
  112OSM    H6S11590   5.516   1.496  10.591 -2.7255 -4.1636 -1.3272
  112OSM    H6T11591   5.480   1.640  10.480 -2.7147 -2.0794 -3.7715
  112OSM    C7S11592   5.325   1.508  10.465 -0.0055 -0.2078  0.1465
  112OSM    H7S11593   5.274   1.427  10.520  0.0709 -0.0239  0.4925
  112OSM    H7T11594   5.363   1.467  10.369 -2.8294 -1.3339 -0.5312
  112OSM    C8S11595   5.212   1.610  10.414 -0.7758  0.5084 -0.1581
  112OSM    H8S11596   5.264   1.706  10.391  1.0440  0.2165  2.4783
  112OSM    H8T11597   5.142   1.628  10.498 -0.1545  2.2520  0.0104
  112OSM    C9S11598   5.136   1.569  10.291  0.5913  0.1156 -0.2485
  112OSM    H9S11599   5.042   1.627  10.283 -0.3258 -1.6071 -2.3774
  112OSM    H9T11600   5.116   1.460  10.292 -0.4126  0.3004 -0.2367
  112OSM   C10S11601   5.227   1.589  10.163 -0.4821  0.5892 -0.0917
  112OSM   H10S11602   5.323   1.534  10.172 -0.8816 -0.3140 -1.3210
  112OSM   H10T11603   5.240   1.699  10.158  0.5320  0.3854 -2.2011
  112OSM   C11S11604   5.154   1.551  10.032  0.0425  0.0693 -0.6238
  112OSM   H11S11605   5.057   1.607  10.025 -0.8792 -1.1688  1.6538
  112OSM   H11T11606   5.140   1.442  10.020 -1.0185 -0.1320  2.0503
  112OSM   C12S11607   5.227   1.603   9.906 -0.1944  0.3461  0.6105
  112OSM   H12S11608   5.317   1.538   9.900 -1.1101 -0.9282  0.4274
  112OSM   H12T11609   5.255   1.710   9.914  1.6073 -0.1539  1.3860
  112OSM   C13S11610   5.143   1.599   9.775 -1.1957  0.0198  0.2350
  112OSM   H13S11611   5.053   1.664   9.786 -0.4357  1.2115 -0.4510
  112OSM   H13T11612   5.109   1.494   9.762 -0.3894 -0.0382 -1.5527
  112OSM   C14S11613   5.228   1.655   9.659 -0.6112  0.1791  0.0427
  112OSM   H14S11614   5.305   1.577   9.643 -0.5932  0.6376 -2.3605
  112OSM   H14T11615   5.265   1.755   9.689 -0.1351  0.8032 -2.4734
  112OSM   C15S11616   5.154   1.674   9.531 -0.0333  0.2038  0.0996
  112OSM   H15S11617   5.088   1.763   9.541 -0.9315 -0.3658 -0.7019
  112OSM   H15T11618   5.085   1.590   9.511 -0.2413  0.2268  0.7346
  112OSM   C16S11619   5.248   1.683   9.412  0.4376 -0.2699  0.3168
  112OSM   H16S11620   5.300   1.585   9.401  1.6393  0.3045  0.7401
  112OSM   H16T11621   5.332   1.753   9.430  1.4418 -1.4733  0.4360
  112OSM   C17S11622   5.169   1.713   9.272  0.6589 -0.1969  0.3555
  112OSM   H17S11623   5.104   1.802   9.289  2.2701  1.0371  0.2620
  112OSM   H17T11624   5.095   1.631   9.264 -1.3119  1.8021 -3.0248
  112OSM   C18S11625   5.253   1.744   9.150 -0.0903 -0.1654 -0.0609
  112OSM   H18S11626   5.337   1.816   9.165  0.6397 -1.0193  0.0178
  112OSM   H18T11627   5.194   1.765   9.059 -2.1818 -0.1424  1.2752
  112OSM   H18U11628   5.317   1.657   9.122 -0.3662 -0.3311 -0.1793
  112OSM    C1F11629   4.994   1.949  10.624 -0.7021  0.4228 -0.3251
  112OSM     OF11630   5.023   2.035  10.545  0.1582 -0.1094 -0.1460
  112OSM    C2F11631   4.854   1.887  10.642  0.8341  0.0356 -0.8077
  112OSM    H2F11632   4.804   1.919  10.736  1.5829  1.7017 -0.9538
  112OSM    H2G11633   4.853   1.776  10.650  0.2158  0.1529  1.0642
  112OSM    C3F11634   4.755   1.933  10.527 -0.1598 -0.3329  0.9054
  112OSM    H3F11635   4.666   1.867  10.533  0.7224 -1.7254 -0.8382
  112OSM    H3G11636   4.809   1.919  10.431  1.6543 -1.8804  2.1468
  112OSM    C4F11637   4.700   2.078  10.542 -0.2840  0.2441 -0.4536
  112OSM    H4F11638   4.774   2.161  10.548 -0.2231  0.1919 -0.4731
  112OSM    H4G11639   4.651   2.092  10.641 -0.1714 -0.2712 -0.3201
  112OSM    C5F11640   4.587   2.108  10.444 -0.9164 -1.1250  0.1157
  112OSM    H5F11641   4.525   2.194  10.479 -0.4156 -0.8762  0.3915
  112OSM    H5G11642   4.517   2.022  10.432 -1.4173 -0.3646 -2.7082
  112OSM    C6F11643   4.641   2.138  10.299  0.1328 -0.3110  0.3842
  112OSM    H6F11644   4.693   2.047  10.262 -0.7929 -0.6855 -0.0031
  112OSM    H6G11645   4.728   2.205  10.319 -0.8812  0.6571  1.6201
  112OSM    C7F11646   4.550   2.200  10.199  0.3003 -0.8757 -0.4386
  112OSM    H7F11647   4.522   2.301  10.234  0.4082 -1.0366  0.1169
  112OSM    H7G11648   4.463   2.131  10.190 -0.9968  0.7160 -0.1987
  112OSM    C8F11649   4.609   2.191  10.054 -0.3543 -0.0673 -0.8495
  112OSM    H8F11650   4.697   2.259  10.058  0.7173 -1.4855  0.5758
  112OSM    H8G11651   4.536   2.246   9.991 -2.5682 -1.9761 -0.0460
  112OSM    C9F11652   4.660   2.060   9.996  0.3937  0.2497  0.3383
  112OSM    H9F11653   4.738   2.006  10.052  0.6785 -0.4745 -0.7418
  112OSM   C10F11654   4.613   2.016   9.876  0.6156  0.3201  0.1979
  112OSM   H10F11655   4.666   1.930   9.834  0.3437  0.6694 -0.8955
  112OSM   C11F11656   4.509   2.074   9.784  0.4097 -0.1980  0.1801
  112OSM   H11F11657   4.527   2.182   9.766  0.6306 -0.7932 -3.4616
  112OSM   H11G11658   4.408   2.056   9.825  0.6353 -1.8569  0.0096
  112OSM   C12F11659   4.514   2.028   9.640 -0.3402  0.5116 -0.9266
  112OSM   H12F11660   4.620   2.026   9.604  1.6286  1.0022  4.4543
  112OSM   H12G11661   4.446   2.099   9.588  1.3593  2.0686 -1.1039
  112OSM   C13F11662   4.445   1.896   9.627 -0.2336  0.0531 -0.7247
  112OSM   H13F11663   4.335   1.901   9.643 -0.6324 -2.3840 -2.5615
  112OSM   H13G11664   4.486   1.830   9.705  0.3830 -0.9652 -1.8921
  112OSM   C14F11665   4.486   1.841   9.489  0.4474  0.6966  0.2664
  112OSM   H14F11666   4.484   1.730   9.490  3.4065  0.5592 -2.4347
  112OSM   H14G11667   4.593   1.861   9.470  1.0078 -1.5024  0.9103
  112OSM   C15F11668   4.408   1.906   9.372 -0.0402  0.0593  0.2146
  112OSM   H15F11669   4.441   2.012   9.374  1.3440 -0.3455 -1.1173
  112OSM   H15G11670   4.298   1.894   9.389 -0.3471  2.1003 -0.2772
  112OSM   C16F11671   4.453   1.848   9.242  0.2066  0.0338 -0.2685
  112OSM   H16F11672   4.563   1.837   9.237  0.2998  0.0251  1.4100
  112OSM   H16G11673   4.417   1.920   9.166  0.3833 -0.2842 -0.6494
  112OSM   C17F11674   4.383   1.715   9.220  0.9508 -0.3687  0.4165
  112OSM   H17F11675   4.272   1.720   9.234  0.8759 -3.2636  1.2849
  112OSM   H17G11676   4.415   1.640   9.295  2.6782 -0.1261 -0.0574
  112OSM   C18F11677   4.395   1.652   9.081 -0.2979 -0.1017 -0.2987
  112OSM   H18F11678   4.498   1.668   9.042 -0.0840  0.9136  0.6540
  112OSM   H18G11679   4.322   1.698   9.012 -0.6379  0.7125  0.6065
  112OSM   H18H11680   4.377   1.542   9.076 -2.2336  0.2834 -2.7153
  113OSM      N11681   5.573   1.571  11.186 -0.0827 -0.4029 -0.1142
  113OSM    C1511682   5.641   1.653  11.289  0.3021  0.2383 -0.3196
  113OSM   H15A11683   5.689   1.738  11.243  2.5283 -0.9722 -0.3008
  113OSM   H15B11684   5.718   1.602  11.346  0.3776  1.0250  0.2916
  113OSM   H15C11685   5.570   1.683  11.365  1.2639 -0.5141  0.9037
  113OSM    C1411686   5.498   1.461  11.254  0.0503 -0.1382 -0.5866
  113OSM   H14A11687   5.452   1.388  11.189 -0.4585  0.2682 -0.6891
  113OSM   H14B11688   5.409   1.500  11.302 -0.7386 -3.0814  0.4599
  113OSM   H14C11689   5.557   1.421  11.335  1.3144  2.3299 -0.2355
  113OSM    C1311690   5.466   1.653  11.118 -0.1262 -0.1041 -0.4997
  113OSM   H13A11691   5.389   1.672  11.191  0.3097 -0.1013 -0.0408
  113OSM   H13B11692   5.428   1.601  11.031 -2.0177  1.6554 -0.7729
  113OSM   H13C11693   5.499   1.747  11.078  0.7005 -0.8385 -1.5663
  113OSM    C1211694   5.668   1.510  11.079 -0.3021 -0.4967  0.2330
  113OSM   H12A11695   5.753   1.469  11.131 -1.1872 -1.7114  0.7641
  113OSM   H12B11696   5.693   1.595  11.018  2.3657 -0.0106  1.9351
  113OSM    C1111697   5.621   1.407  10.977  0.3755  0.1847  0.3039
  113OSM   H11A11698   5.704   1.368  10.914 -2.4270 -2.1986 -2.0850
  113OSM   H11B11699   5.546   1.458  10.912  0.0039  1.1695  1.4969
  113OSM      P11700   5.623   1.184  11.103  0.5769  0.1090 -0.0643
  113OSM    O1311701   5.746   1.217  11.185  0.3744 -0.0519 -0.0452
  113OSM    O1411702   5.520   1.099  11.163 -0.6836 -0.3640 -0.1329
  113OSM    O1111703   5.674   1.100  10.976 -0.3840 -0.5434 -0.4970
  113OSM    O1211704   5.544   1.300  11.035 -0.1099  0.5313  0.0405
  113OSM    C1S11705   5.583   1.046  10.879 -0.3094  0.7924 -0.5315
  113OSM    H1S11706   5.477   1.046  10.914 -0.0199  1.9931  0.3654
  113OSM    H1T11707   5.621   0.947  10.845  0.6521  0.6138  1.0244
  113OSM     NF11708   5.462   1.105  10.681 -0.0326  0.0875 -0.2199
  113OSM    HNF11709   5.468   1.038  10.608 -0.1137  1.3519 -1.3963
  113OSM    C2S11710   5.584   1.143  10.758  0.5559  0.2256  1.1406
  113OSM    H2S11711   5.560   1.248  10.785  0.4607 -0.1683  2.6427
  113OSM    C3S11712   5.715   1.124  10.684 -0.1576  0.2112  0.0091
  113OSM    H3S11713   5.713   1.015  10.662 -2.1817 -0.5036  3.3291
  113OSM     O311714   5.823   1.142  10.770 -0.0985 -0.5334 -0.1869
  113OSM    HO311715   5.781   1.142  10.857  0.1902  0.5894 -0.0418
  113OSM    C4S11716   5.718   1.206  10.551  0.3726  0.2789 -0.5013
  113OSM    H4S11717   5.698   1.140  10.465  3.5120 -0.2286 -0.8834
  113OSM    C5S11718   5.734   1.335  10.532  0.2376  0.3134 -0.5642
  113OSM    H5S11719   5.752   1.394  10.623  4.2741 -0.5206 -0.7300
  113OSM    C6S11720   5.740   1.409  10.398 -0.3665 -0.8617  0.7447
  113OSM    H6S11721   5.842   1.452  10.394 -1.1803  1.1086  0.4997
  113OSM    H6T11722   5.670   1.495  10.398 -0.6811 -1.1161  0.6531
  113OSM    C7S11723   5.718   1.304  10.279 -0.1144 -0.3402 -0.2939
  113OSM    H7S11724   5.617   1.261  10.297 -0.2330  0.8571  2.2074
  113OSM    H7T11725   5.795   1.224  10.281  0.0486 -0.1648  0.8287
  113OSM    C8S11726   5.724   1.374  10.145 -0.8395 -0.4285 -0.2545
  113OSM    H8S11727   5.658   1.464  10.142 -0.0299  0.1297 -2.0919
  113OSM    H8T11728   5.698   1.309  10.058  2.4491 -0.1860 -1.4916
  113OSM    C9S11729   5.871   1.424  10.102 -0.0421  0.1354  0.0952
  113OSM    H9S11730   5.944   1.347  10.135 -0.1253  0.6227  1.4621
  113OSM    H9T11731   5.909   1.511  10.161  2.6938 -0.0129 -1.3481
  113OSM   C10S11732   5.892   1.459   9.953  0.7444 -0.2485 -0.0347
  113OSM   H10S11733   5.990   1.510   9.944 -0.2443  1.6016 -0.5801
  113OSM   H10T11734   5.817   1.538   9.929 -1.7512 -2.1218  1.3050
  113OSM   C11S11735   5.888   1.341   9.853 -0.1707 -0.1904 -0.1811
  113OSM   H11S11736   5.792   1.286   9.850 -0.8039  0.9458 -1.3799
  113OSM   H11T11737   5.964   1.264   9.879 -0.4229 -0.5201 -0.4146
  113OSM   C12S11738   5.913   1.382   9.703 -0.8375 -0.4221 -0.4480
  113OSM   H12S11739   5.846   1.466   9.675  0.2050  0.6386  0.1716
  113OSM   H12T11740   5.882   1.291   9.647  1.4864 -2.0388  0.7743
  113OSM   C13S11741   6.059   1.430   9.675 -0.0710 -0.3454 -0.0647
  113OSM   H13S11742   6.141   1.369   9.716  1.1165  1.2159 -0.0681
  113OSM   H13T11743   6.063   1.524   9.735 -0.9870 -1.6203  2.0806
  113OSM   C14S11744   6.087   1.459   9.526 -0.1531 -0.4032  0.4565
  113OSM   H14S11745   6.192   1.493   9.510 -0.7072  0.2644 -1.9716
  113OSM   H14T11746   6.021   1.547   9.509  2.5452  1.5800 -0.1100
  113OSM   C15S11747   6.045   1.334   9.435 -0.0800 -0.0880  0.6790
  113OSM   H15S11748   5.936   1.337   9.412 -0.1785  1.1491  1.2829
  113OSM   H15T11749   6.060   1.246   9.502 -0.8229 -0.3553  0.5088
  113OSM   C16S11750   6.128   1.319   9.309  0.7371  0.5754 -0.7796
  113OSM   H16S11751   6.226   1.271   9.333  0.0288  0.5971  2.2888
  113OSM   H16T11752   6.152   1.423   9.276 -1.4956  0.9316 -1.3287
  113OSM   C17S11753   6.048   1.241   9.204 -0.2391  0.1073 -0.4632
  113OSM   H17S11754   5.952   1.295   9.190 -0.1032  0.0275 -1.7533
  113OSM   H17T11755   6.031   1.142   9.251 -1.6616  1.0383  1.0346
  113OSM   C18S11756   6.101   1.226   9.064  0.1209  0.1424 -0.3526
  113OSM   H18S11757   6.195   1.168   9.064 -0.1571 -0.3144 -0.3014
  113OSM   H18T11758   6.125   1.326   9.022  0.5139  0.2470  0.1158
  113OSM   H18U11759   6.031   1.182   8.988  1.9114 -1.6911 -0.9850
  113OSM    C1F11760   5.336   1.141  10.722  0.3366 -0.2452  0.7186
  113OSM     OF11761   5.316   1.221  10.813  0.3444 -0.0055  0.0268
  113OSM    C2F11762   5.218   1.069  10.671 -0.6454 -0.3090 -0.1895
  113OSM    H2F11763   5.138   1.074  10.748 -0.8579 -0.1013 -0.4217
  113OSM    H2G11764   5.235   0.959  10.658 -2.7852 -0.5111 -1.7226
  113OSM    C3F11765   5.170   1.125  10.535 -0.1162 -0.6027 -0.4280
  113OSM    H3F11766   5.124   1.225  10.541  2.2473  0.4448  0.9871
  113OSM    H3G11767   5.085   1.060  10.506 -1.4212 -0.4013  2.7388
  113OSM    C4F11768   5.280   1.120  10.423  0.3077 -0.3485  0.0122
  113OSM    H4F11769   5.345   1.031  10.439 -0.5770 -0.8928  0.6195
  113OSM    H4G11770   5.347   1.208  10.431  1.6996 -1.3639 -0.3037
  113OSM    C5F11771   5.237   1.111  10.279  0.7618 -0.2708 -0.0050
  113OSM    H5F11772   5.172   1.200  10.265  3.0381  1.3463 -0.5740
  113OSM    H5G11773   5.186   1.014  10.261 -0.8002  0.2829  1.3198
  113OSM    C6F11774   5.360   1.112  10.184 -0.2988 -0.2282 -0.0263
  113OSM    H6F11775   5.432   1.032  10.212 -1.8469 -1.9625 -0.9184
  113OSM    H6G11776   5.401   1.213  10.202  2.4339 -1.4445  0.8885
  113OSM    C7F11777   5.321   1.088  10.038 -0.1014  0.0878  0.0750
  113OSM    H7F11778   5.255   0.999  10.030  1.3857 -1.0059 -0.3070
  113OSM    H7G11779   5.412   1.075   9.975  0.1418  1.6251  0.0908
  113OSM    C8F11780   5.240   1.204   9.961  0.5715 -0.0992 -0.4058
  113OSM    H8F11781   5.304   1.288   9.994 -0.2621  0.3750 -0.0033
  113OSM    H8G11782   5.142   1.229  10.007  0.8480  1.6699 -0.7465
  113OSM    C9F11783   5.235   1.188   9.809  0.6598 -0.2330 -0.0588
  113OSM    H9F11784   5.132   1.173   9.774  0.7978 -1.5959  0.0820
  113OSM   C10F11785   5.328   1.204   9.715 -0.0780 -0.3850  0.4620
  113OSM   H10F11786   5.308   1.214   9.608  2.7595  0.7967 -0.0088
  113OSM   C11F11787   5.474   1.239   9.734 -0.3039 -0.7116 -0.0402
  113OSM   H11F11788   5.549   1.166   9.698  0.6735 -0.3067  1.1521
  113OSM   H11G11789   5.498   1.260   9.840 -0.0996 -2.4723  0.2593
  113OSM   C12F11790   5.512   1.378   9.670  0.4340 -0.2694  0.5396
  113OSM   H12F11791   5.616   1.406   9.700 -0.0392 -0.0543  2.0107
  113OSM   H12G11792   5.459   1.452   9.733  0.4203  0.4379 -0.2903
  113OSM   C13F11793   5.488   1.403   9.524  0.1218  0.6509 -0.0278
  113OSM   H13F11794   5.507   1.509   9.496  1.2356  0.1574 -1.2540
  113OSM   H13G11795   5.384   1.381   9.493  0.2906  1.2560 -1.0632
  113OSM   C14F11796   5.587   1.311   9.440 -0.3118  0.1694 -0.1945
  113OSM   H14F11797   5.543   1.210   9.423  2.8216 -1.5875  1.7987
  113OSM   H14G11798   5.679   1.292   9.499  0.4181  0.2391 -1.3003
  113OSM   C15F11799   5.633   1.384   9.306  0.3597 -0.1483  0.3040
  113OSM   H15F11800   5.718   1.339   9.250 -1.0521 -1.2701 -0.9892
  113OSM   H15G11801   5.671   1.483   9.340  0.8755 -0.7779  1.6274
  113OSM   C16F11802   5.520   1.429   9.208 -0.2985  0.2125 -0.0713
  113OSM   H16F11803   5.562   1.463   9.110 -0.9457 -2.6996 -1.4017
  113OSM   H16G11804   5.460   1.507   9.259 -2.0581 -0.9809 -0.2688
  113OSM   C17F11805   5.414   1.316   9.183  0.0059 -0.1307  0.0859
  113OSM   H17F11806   5.369   1.308   9.284  1.6353 -1.3140  0.7270
  113OSM   H17G11807   5.462   1.217   9.170  0.8824  0.0001  2.1370
  113OSM   C18F11808   5.304   1.356   9.089  0.6732 -0.0505  0.3769
  113OSM   H18F11809   5.267   1.455   9.124 -0.9994 -0.8024  0.8047
  113OSM   H18G11810   5.221   1.282   9.079  0.8439 -0.1315 -0.5382
  113OSM   H18H11811   5.346   1.367   8.986  3.3847  0.8544  1.5559
  114OSM      N11812   0.251   6.749  11.518  0.0154  0.0230  0.3379
  114OSM    C1511813   0.341   6.807  11.419 -0.0278 -0.0428  0.3317
  114OSM   H15A11814   0.366   6.910  11.437  1.2491 -0.1039 -0.9969
  114OSM   H15B11815   0.303   6.810  11.318  2.6002 -1.5061 -0.7506
  114OSM   H15C11816   0.432   6.750  11.410 -0.3725 -0.9815  2.3717
  114OSM    C1411817   0.237   6.599  11.483 -0.2212 -0.3605 -0.5455
  114OSM   H14A11818   0.197   6.540  11.564 -0.9078  1.3617  0.4062
  114OSM   H14B11819   0.330   6.554  11.452 -0.8053 -1.9759  0.0086
  114OSM   H14C11820   0.169   6.585  11.401  0.3723 -2.2752 -0.7339
  114OSM    C1311821   0.310   6.751  11.653 -0.1521 -0.4116 -0.5818
  114OSM   H13A11822   0.243   6.718  11.731  0.7825  1.1106  0.9064
  114OSM   H13B11823   0.348   6.849  11.679 -0.0552 -0.6855  0.2958
  114OSM   H13C11824   0.396   6.686  11.659  2.1911  2.3487 -2.5723
  114OSM    C1211825   0.121   6.826  11.520 -0.0187  0.1573 -0.1519
  114OSM   H12A11826   0.146   6.924  11.555  3.4162 -0.2576 -1.2418
  114OSM   H12B11827   0.067   6.782  11.603 -0.0253  0.4431 -0.0042
  114OSM    C1111828   0.034   6.841  11.387 -0.4914  0.9537 -0.1933
  114OSM   H11A11829   0.099   6.890  11.312 -0.6786 -1.5722 -2.0438
  114OSM   H11B11830  -0.046   6.912  11.415 -1.9064 -0.2202 -1.2158
  114OSM      P11831  -0.149   6.663  11.360  0.4313  0.3368  0.1886
  114OSM    O1311832  -0.147   6.516  11.359  0.0339 -0.0703  0.3902
  114OSM    O1411833  -0.205   6.712  11.488 -0.1494 -0.9341  0.0196
  114OSM    O1111834  -0.241   6.716  11.237  0.4241  0.7025 -0.5954
  114OSM    O1211835  -0.006   6.715  11.328 -0.1676 -0.0336  0.5305
  114OSM    C1S11836  -0.189   6.702  11.100 -0.4368  0.5236  0.2615
  114OSM    H1S11837  -0.224   6.610  11.049 -0.0017  0.3026  0.3631
  114OSM    H1T11838  -0.078   6.706  11.097 -0.4756  1.3529 -0.1476
  114OSM     NF11839  -0.196   6.792  10.866 -0.6367 -0.4051  0.2102
  114OSM    HNF11840  -0.127   6.849  10.823 -0.4243 -0.4087  0.5501
  114OSM    C2S11841  -0.239   6.820  11.008 -0.3754 -0.4026  0.7128
  114OSM    H2S11842  -0.350   6.817  11.016 -0.6171 -1.2031 -2.3036
  114OSM    C3S11843  -0.176   6.953  11.052  0.0652 -0.2734 -0.1427
  114OSM    H3S11844  -0.066   6.951  11.039  0.3734  3.2592  1.1887
  114OSM     O311845  -0.205   6.979  11.189  0.1086  0.4109  0.1999
  114OSM    HO311846  -0.218   6.890  11.223  3.0885  0.3261  1.2684
  114OSM    C4S11847  -0.232   7.071  10.975  0.7735 -0.6468 -0.3909
  114OSM    H4S11848  -0.341   7.064  10.963  0.5120  0.6550  1.1152
  114OSM    C5S11849  -0.189   7.189  10.931  0.3205 -0.4944 -0.8668
  114OSM    H5S11850  -0.093   7.228  10.967 -1.1751  3.5364 -0.9340
  114OSM    C6S11851  -0.276   7.286  10.849 -0.1205 -0.6683  0.2443
  114OSM    H6S11852  -0.205   7.340  10.783 -0.6574  0.9996  1.0074
  114OSM    H6T11853  -0.317   7.356  10.925  1.1388 -0.8740  1.1315
  114OSM    C7S11854  -0.382   7.232  10.755  0.4963 -0.0223 -0.7008
  114OSM    H7S11855  -0.420   7.328  10.713 -1.5702 -0.2252  0.6406
  114OSM    H7T11856  -0.467   7.186  10.809 -0.6513  0.0489 -2.4012
  114OSM    C8S11857  -0.319   7.147  10.646  0.0252  0.0214 -0.7167
  114OSM    H8S11858  -0.266   7.064  10.696  0.1623  0.2367 -0.5035
  114OSM    H8T11859  -0.246   7.210  10.591 -1.3136  0.1871 -2.3661
  114OSM    C9S11860  -0.422   7.110  10.543 -0.2753 -0.3084  0.3663
  114OSM    H9S11861  -0.517   7.074  10.587  0.9837  0.4963  4.0045
  114OSM    H9T11862  -0.381   7.031  10.476  2.0477  0.2448  1.0624
  114OSM   C10S11863  -0.463   7.238  10.463  0.5949  0.5621  0.2864
  114OSM   H10S11864  -0.368   7.261  10.410  0.8702  1.8768  1.2988
  114OSM   H10T11865  -0.488   7.327  10.524  0.3645  1.6263 -1.3203
  114OSM   C11S11866  -0.570   7.214  10.351 -0.2893  0.1053  0.1913
  114OSM   H11S11867  -0.668   7.181  10.393 -1.1051  2.1255 -0.0679
  114OSM   H11T11868  -0.535   7.143  10.273  1.0628  2.5323 -1.4649
  114OSM   C12S11869  -0.599   7.347  10.280  0.4687 -0.3162 -0.2275
  114OSM   H12S11870  -0.537   7.366  10.190 -1.0468  0.4672 -1.1296
  114OSM   H12T11871  -0.571   7.425  10.355  1.4750  0.2712 -1.2077
  114OSM   C13S11872  -0.745   7.346  10.229  0.6310 -0.1515  0.6632
  114OSM   H13S11873  -0.780   7.450  10.214  1.2343 -0.0949 -0.3879
  114OSM   H13T11874  -0.808   7.301  10.309  1.0208 -1.6583  0.1289
  114OSM   C14S11875  -0.773   7.267  10.098  0.3856 -0.1474  0.3921
  114OSM   H14S11876  -0.754   7.159  10.117 -0.3498 -0.6896 -1.7236
  114OSM   H14T11877  -0.708   7.305  10.017  0.4333 -2.0958 -0.5215
  114OSM   C15S11878  -0.923   7.278  10.055 -0.3664  0.2611 -0.1458
  114OSM   H15S11879  -0.942   7.387  10.042  1.6753  0.7558  0.8315
  114OSM   H15T11880  -0.981   7.230  10.135  0.2304  0.4807  0.4264
  114OSM   C16S11881  -0.942   7.214   9.926  0.5115 -0.1452  0.4295
  114OSM   H16S11882  -1.046   7.174   9.926  0.2746  0.4578 -0.2055
  114OSM   H16T11883  -0.880   7.123   9.910  1.8407  0.0143  4.2010
  114OSM   C17S11884  -0.926   7.323   9.817 -0.2145  0.2649  0.5159
  114OSM   H17S11885  -0.825   7.367   9.831 -0.4903  1.4075 -1.0092
  114OSM   H17T11886  -0.998   7.406   9.835  0.1292  0.1995  2.3455
  114OSM   C18S11887  -0.934   7.265   9.681  0.1529 -0.4201 -0.3556
  114OSM   H18S11888  -0.945   7.346   9.606 -1.4390 -1.3282 -1.1543
  114OSM   H18T11889  -1.026   7.203   9.673 -0.0623 -0.3211  1.1628
  114OSM   H18U11890  -0.844   7.206   9.654 -0.7836 -2.1151  0.1356
  114OSM    C1F11891  -0.261   6.703  10.795  0.2033  0.1452  0.3383
  114OSM     OF11892  -0.383   6.679  10.817  0.2166  0.7383  0.1352
  114OSM    C2F11893  -0.189   6.637  10.685  0.3470  0.5423  0.4934
  114OSM    H2F11894  -0.149   6.539  10.718  1.3565 -0.2229 -2.8056
  114OSM    H2G11895  -0.106   6.702  10.648  1.3313 -1.4198 -0.8428
  114OSM    C3F11896  -0.281   6.616  10.561 -0.4472 -0.4081  0.2277
  114OSM    H3F11897  -0.330   6.712  10.534  0.7028 -0.1378 -0.9040
  114OSM    H3G11898  -0.368   6.554  10.591 -1.5606  0.2396 -1.5953
  114OSM    C4F11899  -0.200   6.570  10.442 -0.2478  0.1540 -0.3273
  114OSM    H4F11900  -0.185   6.460  10.450  1.0209  0.2863 -0.7387
  114OSM    H4G11901  -0.099   6.618  10.445 -1.0625  1.8098  2.1420
  114OSM    C5F11902  -0.273   6.589  10.310 -0.4175  0.0982  0.5455
  114OSM    H5F11903  -0.285   6.697  10.289  3.1253  0.7368  1.5710
  114OSM    H5G11904  -0.371   6.537  10.318  1.1552 -2.8312  1.5987
  114OSM    C6F11905  -0.200   6.520  10.194 -0.5332 -0.1888  0.2675
  114OSM    H6F11906  -0.175   6.412  10.203 -2.6005 -0.5800  1.6882
  114OSM    H6G11907  -0.098   6.562  10.183  0.8288 -2.6944  2.6895
  114OSM    C7F11908  -0.280   6.536  10.063 -0.1680  0.3655  0.1589
  114OSM    H7F11909  -0.287   6.644  10.038 -2.2524 -0.1238 -1.4531
  114OSM    H7G11910  -0.381   6.489  10.063  0.0185 -0.0535  0.7340
  114OSM    C8F11911  -0.218   6.456   9.954  0.8791  0.1955  0.0437
  114OSM    H8F11912  -0.290   6.452   9.870 -0.9560 -0.9401  1.6163
  114OSM    H8G11913  -0.202   6.348   9.978  1.6829  0.0637 -1.0488
  114OSM    C9F11914  -0.091   6.519   9.902 -0.1576 -0.3433 -0.4078
  114OSM    H9F11915   0.008   6.493   9.942  0.7491  0.9836 -1.7434
  114OSM   C10F11916  -0.087   6.624   9.816 -0.1480  1.0611  0.0254
  114OSM   H10F11917   0.004   6.677   9.784 -0.4441  1.6330  0.1111
  114OSM   C11F11918  -0.211   6.696   9.760  0.2128 -0.2306 -0.3188
  114OSM   H11F11919  -0.214   6.798   9.804 -1.0257 -0.1516 -0.5641
  114OSM   H11G11920  -0.307   6.649   9.793 -0.5240 -1.3089 -3.7743
  114OSM   C12F11921  -0.212   6.701   9.605 -0.0105 -0.1660 -0.8529
  114OSM   H12F11922  -0.107   6.708   9.571 -0.6724  2.7707 -2.4910
  114OSM   H12G11923  -0.274   6.786   9.570  1.3081  1.5709  0.9542
  114OSM   C13F11924  -0.277   6.573   9.550  0.9104 -0.7245  0.0716
  114OSM   H13F11925  -0.380   6.569   9.592  0.8057 -0.2018 -0.1287
  114OSM   H13G11926  -0.220   6.485   9.587  2.5493  0.1422 -0.3571
  114OSM   C14F11927  -0.285   6.565   9.393  0.1531 -1.1887 -1.2735
  114OSM   H14F11928  -0.182   6.533   9.366  0.1879 -1.0638 -1.2932
  114OSM   H14G11929  -0.304   6.664   9.346  2.5319 -2.1261 -4.3089
  114OSM   C15F11930  -0.385   6.468   9.343 -0.4377  0.0221 -0.0869
  114OSM   H15F11931  -0.489   6.496   9.367 -0.8472 -1.3350 -0.2081
  114OSM   H15G11932  -0.356   6.372   9.392 -2.2056  0.6337  2.2177
  114OSM   C16F11933  -0.372   6.451   9.190  0.3676  0.1569 -0.2880
  114OSM   H16F11934  -0.274   6.415   9.153  0.2871 -1.0629  0.6758
  114OSM   H16G11935  -0.396   6.546   9.137  1.3577 -0.8943 -2.6908
  114OSM   C17F11936  -0.474   6.350   9.126  0.3562 -0.1546 -0.1504
  114OSM   H17F11937  -0.482   6.373   9.018  2.0956  1.0082 -0.0567
  114OSM   H17G11938  -0.579   6.368   9.157 -0.1901 -1.7151 -1.0340
  114OSM   C18F11939  -0.462   6.195   9.150 -0.4174  0.3968  0.1771
  114OSM   H18F11940  -0.365   6.155   9.115 -0.1482  0.3815  0.9211
  114OSM   H18G11941  -0.539   6.124   9.114  2.2603 -1.8192 -1.3246
  114OSM   H18H11942  -0.459   6.172   9.259  1.7028  0.3413  0.1292
  115OSM      N11943   0.858   4.051   6.195 -0.4812 -0.2815  0.0137
  115OSM    C1511944   0.956   4.104   6.293 -0.5978 -0.1520  0.3962
  115OSM   H15A11945   1.024   4.030   6.331 -1.5884 -1.5930 -0.5645
  115OSM   H15B11946   0.905   4.164   6.366  1.6262 -0.3346  2.1257
  115OSM   H15C11947   1.019   4.167   6.232 -1.3585 -0.3370 -0.5939
  115OSM    C1411948   0.820   4.174   6.109 -0.1955 -0.6623  0.1305
  115OSM   H14A11949   0.755   4.235   6.170 -1.4385 -1.2036 -0.6405
  115OSM   H14B11950   0.764   4.140   6.023  1.5260 -0.2726 -1.1756
  115OSM   H14C11951   0.906   4.233   6.082 -0.8949 -0.0145 -0.6871
  115OSM    C1311952   0.920   3.950   6.109 -0.2609 -0.6488 -0.5425
  115OSM   H13A11953   0.854   3.918   6.030  0.5013 -0.7932 -1.1185
  115OSM   H13B11954   0.959   3.868   6.168 -0.4866  0.1876  0.8101
  115OSM   H13C11955   1.003   3.994   6.056 -0.3482 -1.0360 -1.0004
  115OSM    C1211956   0.738   3.996   6.267 -0.3108 -0.6069 -0.1963
  115OSM   H12A11957   0.766   3.897   6.299 -0.5501 -1.2768 -2.0234
  115OSM   H12B11958   0.667   3.972   6.190 -1.1098  1.6069 -0.1961
  115OSM    C1111959   0.683   4.082   6.384  0.2194  0.4344 -0.5080
  115OSM   H11A11960   0.753   4.075   6.470  0.5145 -1.0805 -0.8546
  115OSM   H11B11961   0.592   4.035   6.430  0.5824  0.3003  0.0810
  115OSM      P11962   0.526   4.286   6.300  0.4139  0.0851 -0.0481
  115OSM    O1311963   0.555   4.414   6.236 -0.0581 -0.3024  0.0028
  115OSM    O1411964   0.438   4.196   6.218 -0.0747  0.3790 -0.2579
  115OSM    O1111965   0.459   4.312   6.442 -0.1349  0.4370  0.0370
  115OSM    O1211966   0.658   4.217   6.344  0.3161 -0.1465 -0.3716
  115OSM    C1S11967   0.533   4.390   6.538 -0.3124 -0.1652  0.5665
  115OSM    H1S11968   0.528   4.494   6.498  0.0009 -0.3843 -0.0369
  115OSM    H1T11969   0.640   4.364   6.547  0.2245  1.5040 -0.7110
  115OSM     NF11970   0.560   4.450   6.770 -0.0806  0.2734  0.0557
  115OSM    HNF11971   0.622   4.400   6.829 -1.5405  0.2419  1.6152
  115OSM    C2S11972   0.471   4.375   6.680 -0.2852  0.3442 -0.1428
  115OSM    H2S11973   0.367   4.415   6.678 -1.2055 -2.0228 -0.9609
  115OSM    C3S11974   0.445   4.226   6.730  0.5975  0.3059 -0.1463
  115OSM    H3S11975   0.541   4.189   6.771  0.2909  1.2447  1.4910
  115OSM     O311976   0.396   4.137   6.634 -0.1319  0.1656  0.5077
  115OSM    HO311977   0.382   4.195   6.558 -0.1893  1.5450  1.5628
  115OSM    C4S11978   0.353   4.223   6.845 -0.2704  0.3848  0.3538
  115OSM    H4S11979   0.247   4.202   6.826 -0.3566  1.1283 -0.0165
  115OSM    C5S11980   0.387   4.225   6.973  0.5092  0.1700 -0.8584
  115OSM    H5S11981   0.492   4.234   7.004  0.2711  1.6317 -0.4345
  115OSM    C6S11982   0.289   4.218   7.086  0.7112 -0.7928 -0.4900
  115OSM    H6S11983   0.190   4.192   7.043  0.6194  2.6713 -2.5342
  115OSM    H6T11984   0.278   4.316   7.136  3.2447 -1.6956  2.0196
  115OSM    C7S11985   0.347   4.111   7.192  0.5511 -0.0133 -0.2089
  115OSM    H7S11986   0.457   4.114   7.209  0.5527 -2.5476  0.4863
  115OSM    H7T11987   0.321   4.013   7.146 -0.8679  1.8490 -3.5481
  115OSM    C8S11988   0.283   4.125   7.329 -0.2211 -0.1458  0.2525
  115OSM    H8S11989   0.312   4.221   7.376 -1.7890  0.5659 -0.2198
  115OSM    H8T11990   0.330   4.044   7.390  2.9860  0.3375 -1.4550
  115OSM    C9S11991   0.125   4.110   7.328 -0.0115  0.8424 -1.0786
  115OSM    H9S11992   0.089   4.005   7.337 -3.8593  2.0432 -1.5031
  115OSM    H9T11993   0.088   4.143   7.228 -1.5050  1.1379 -0.4437
  115OSM   C10S11994   0.055   4.202   7.435  0.4323  0.7158  0.0185
  115OSM   H10S11995  -0.055   4.211   7.418  0.4674  0.1027 -0.5607
  115OSM   H10T11996   0.101   4.301   7.418  0.7060  0.6279  0.2368
  115OSM   C11S11997   0.085   4.152   7.572 -0.4803 -0.0730 -0.0931
  115OSM   H11S11998   0.192   4.134   7.594 -0.0984  1.9398 -0.1913
  115OSM   H11T11999   0.031   4.055   7.577 -0.4282 -0.3672 -3.8465
  115OSM   C12S12000   0.045   4.241   7.694 -0.0725  0.6624  0.0502
  115OSM   H12S12001  -0.062   4.271   7.687  0.0760  0.9064 -1.4755
  115OSM   H12T12002   0.106   4.333   7.681  0.7427 -0.1015 -1.7411
  115OSM   C13S12003   0.068   4.177   7.824  0.1299  0.0490 -0.6375
  115OSM   H13S12004   0.153   4.106   7.822 -0.0655 -0.2136  0.3973
  115OSM   H13T12005  -0.019   4.116   7.856 -0.7018  0.4814 -2.0136
  115OSM   C14S12006   0.091   4.288   7.932 -0.3124  0.4190  0.1827
  115OSM   H14S12007   0.013   4.366   7.943 -1.2122 -0.3783 -0.5308
  115OSM   H14T12008   0.176   4.352   7.898 -0.7420  0.6634 -0.4327
  115OSM   C15S12009   0.118   4.234   8.070  0.1074 -0.2122 -0.1715
  115OSM   H15S12010   0.216   4.183   8.082 -0.8886 -1.9498  0.7887
  115OSM   H15T12011   0.039   4.170   8.116 -0.1118  0.7638  0.8324
  115OSM   C16S12012   0.126   4.366   8.158 -0.9304  0.0520  0.2501
  115OSM   H16S12013   0.040   4.432   8.135  1.3031  2.9758  0.0007
  115OSM   H16T12014   0.213   4.422   8.118 -1.9755  1.0933 -0.5952
  115OSM   C17S12015   0.161   4.338   8.308  0.3890 -0.3554  0.4182
  115OSM   H17S12016   0.271   4.326   8.318  0.7509  0.5237 -2.0353
  115OSM   H17T12017   0.111   4.245   8.342 -0.1033 -0.3153 -0.1895
  115OSM   C18S12018   0.117   4.456   8.395 -0.0326  0.5377  0.0551
  115OSM   H18S12019   0.199   4.527   8.417 -0.8626  1.1291  1.3115
  115OSM   H18T12020   0.084   4.419   8.494 -0.2873 -1.5226 -0.7806
  115OSM   H18U12021   0.035   4.498   8.333  0.4503  0.8901 -0.3470
  115OSM    C1F12022   0.577   4.585   6.775 -0.2531  0.0918  0.1574
  115OSM     OF12023   0.510   4.655   6.713 -0.0115 -0.3862  0.0786
  115OSM    C2F12024   0.692   4.633   6.859 -0.4255 -0.3632  0.1887
  115OSM    H2F12025   0.722   4.734   6.825  1.7728 -1.4277 -1.1121
  115OSM    H2G12026   0.790   4.582   6.855 -0.0734  0.4214 -1.7212
  115OSM    C3F12027   0.642   4.641   7.006 -0.2362  0.4207  0.1330
  115OSM    H3F12028   0.532   4.655   7.014 -0.2556  0.1254  0.4217
  115OSM    H3G12029   0.697   4.721   7.059 -0.2981 -1.8132  3.7892
  115OSM    C4F12030   0.671   4.515   7.090  0.1867 -0.2724 -0.6138
  115OSM    H4F12031   0.780   4.496   7.098  0.1205 -0.4296 -0.1099
  115OSM    H4G12032   0.633   4.430   7.028  0.5968 -1.1053  0.2646
  115OSM    C5F12033   0.615   4.517   7.231 -0.0151 -0.2308 -0.2496
  115OSM    H5F12034   0.511   4.557   7.224  0.9558  2.1727 -1.5924
  115OSM    H5G12035   0.685   4.571   7.298 -0.7649  1.0402 -0.4751
  115OSM    C6F12036   0.584   4.373   7.290 -0.4933  0.4297  0.2552
  115OSM    H6F12037   0.672   4.306   7.297  0.8406  1.8200 -2.2495
  115OSM    H6G12038   0.514   4.323   7.219  1.5371  0.6993 -2.0108
  115OSM    C7F12039   0.514   4.393   7.425  0.2485  0.2225  0.6134
  115OSM    H7F12040   0.406   4.398   7.400  0.9875  1.4321 -2.6614
  115OSM    H7G12041   0.540   4.490   7.472  0.1392 -1.2611  3.8551
  115OSM    C8F12042   0.540   4.277   7.523  0.4095 -0.2222  0.3134
  115OSM    H8F12043   0.651   4.266   7.520  0.5504  0.6875  1.6209
  115OSM    H8G12044   0.498   4.186   7.476  0.1908  1.4032 -2.7819
  115OSM    C9F12045   0.483   4.290   7.663 -0.0134  0.8109 -0.8436
  115OSM    H9F12046   0.374   4.297   7.666 -0.2350 -2.3528  0.9066
  115OSM   C10F12047   0.544   4.283   7.788  0.2939 -0.8490 -0.1185
  115OSM   H10F12048   0.474   4.284   7.873  0.7475  0.1366  0.2591
  115OSM   C11F12049   0.693   4.255   7.816  0.2528 -0.4046  0.1215
  115OSM   H11F12050   0.724   4.332   7.890  1.9920 -1.3555  0.4270
  115OSM   H11G12051   0.753   4.270   7.724 -1.5017  1.6422 -0.7018
  115OSM   C12F12052   0.718   4.111   7.864  0.1855 -0.3989 -0.3666
  115OSM   H12F12053   0.827   4.092   7.853  0.1464 -1.0321  0.2817
  115OSM   H12G12054   0.655   4.046   7.799 -0.5308  1.0534 -1.1483
  115OSM   C13F12055   0.683   4.089   8.011  0.1287  0.0859 -0.3732
  115OSM   H13F12056   0.685   3.980   8.033  0.4175  0.3821  1.1084
  115OSM   H13G12057   0.580   4.124   8.035  1.1005  2.5449  0.3262
  115OSM   C14F12058   0.780   4.145   8.111 -0.4167  0.6211 -0.2695
  115OSM   H14F12059   0.750   4.251   8.115  1.5212  1.3356 -3.0378
  115OSM   H14G12060   0.887   4.141   8.079  0.2132 -1.7963  1.9585
  115OSM   C15F12061   0.762   4.074   8.246  0.3867 -0.5776 -0.5548
  115OSM   H15F12062   0.798   3.970   8.233  1.7474 -0.3265  1.0209
  115OSM   H15G12063   0.653   4.078   8.267  0.0805 -5.0995 -0.8124
  115OSM   C16F12064   0.853   4.132   8.358  0.4833 -0.3542  1.0065
  115OSM   H16F12065   0.819   4.230   8.397 -2.2784 -1.3448  1.1721
  115OSM   H16G12066   0.956   4.134   8.316 -0.5722  0.9188 -1.6077
  115OSM   C17F12067   0.847   4.041   8.482 -0.6900 -1.0653 -0.0536
  115OSM   H17F12068   0.937   4.065   8.543  0.5466  0.0113 -2.2656
  115OSM   H17G12069   0.845   3.937   8.444 -0.6063 -1.3583  0.7387
  115OSM   C18F12070   0.734   4.078   8.575  0.5347 -1.3306  0.1835
  115OSM   H18F12071   0.637   4.051   8.527  1.3203 -0.1884 -2.0819
  115OSM   H18G12072   0.730   4.189   8.588  0.1301 -1.1741 -1.2005
  115OSM   H18H12073   0.734   4.034   8.677 -3.3432  2.9314  2.2388
  116OSM      N12074   6.128   1.579   6.294  0.6764 -0.6199 -0.1080
  116OSM    C1512075   6.092   1.698   6.203 -0.2667 -0.5607 -0.6059
  116OSM   H15A12076   5.989   1.731   6.218 -0.3512 -0.9210 -0.4038
  116OSM   H15B12077   6.114   1.680   6.100 -0.2325 -0.2037 -0.6626
  116OSM   H15C12078   6.162   1.772   6.239 -0.8463 -0.8091  1.0996
  116OSM    C1412079   6.101   1.616   6.439  0.1007  0.3290  0.2577
  116OSM   H14A12080   6.151   1.705   6.475 -2.0417  0.9856  1.7287
  116OSM   H14B12081   6.126   1.537   6.508  0.8801  0.2312 -0.1225
  116OSM   H14C12082   5.995   1.630   6.453  0.3136  1.3699  0.8716
  116OSM    C1312083   6.037   1.459   6.267 -0.7897  0.3307  0.1265
  116OSM   H13A12084   6.085   1.404   6.187 -0.4190  0.8850 -0.0386
  116OSM   H13B12085   5.946   1.496   6.222 -1.1310  1.3312  1.6098
  116OSM   H13C12086   6.025   1.394   6.352  0.1960 -0.5133 -0.3643
  116OSM    C1212087   6.268   1.526   6.268 -0.8137  0.3407 -0.0230
  116OSM   H12A12088   6.285   1.507   6.163 -2.6439  0.8689 -0.4361
  116OSM   H12B12089   6.289   1.433   6.319  0.1559  0.8097  0.4363
  116OSM    C1112090   6.393   1.609   6.312 -0.0411 -0.5964  0.7229
  116OSM   H11A12091   6.487   1.551   6.302 -0.4070 -1.3379  1.4893
  116OSM   H11B12092   6.372   1.623   6.420  0.7142 -1.8596  1.0501
  116OSM      P12093   6.494   1.852   6.274 -0.3292  0.1790  0.0934
  116OSM    O1312094   6.638   1.802   6.283  0.0705 -0.4866 -0.3694
  116OSM    O1412095   6.478   1.964   6.181 -0.9463 -0.3741 -0.5548
  116OSM    O1112096   6.446   1.894   6.418  0.2927 -0.1566 -0.2411
  116OSM    O1212097   6.392   1.727   6.239 -0.7259 -0.2553  0.0335
  116OSM    C1S12098   6.525   1.850   6.534  0.8666 -0.1616 -0.1193
  116OSM    H1S12099   6.621   1.907   6.535  0.3614  0.7258 -0.8487
  116OSM    H1T12100   6.541   1.742   6.516 -1.4331 -0.2601 -1.7262
  116OSM     NF12101   6.538   1.784   6.774  0.7107  0.1897 -0.2179
  116OSM    HNF12102   6.483   1.714   6.819  1.1241 -0.6837 -1.0653
  116OSM    C2S12103   6.460   1.856   6.671  0.1100 -0.8233 -0.0274
  116OSM    H2S12104   6.467   1.964   6.698 -0.5847 -0.5707 -0.8670
  116OSM    C3S12105   6.310   1.816   6.662 -0.0785  0.7626  0.0837
  116OSM    H3S12106   6.309   1.706   6.649  0.7460  0.6848  0.6349
  116OSM     O312107   6.232   1.869   6.553 -0.8611  0.2722  0.0816
  116OSM    HO312108   6.302   1.887   6.490 -0.5236  3.3521  1.2509
  116OSM    C4S12109   6.248   1.847   6.801 -0.2189  0.0214 -0.0550
  116OSM    H4S12110   6.251   1.752   6.856  2.4231 -0.5478 -1.0898
  116OSM    C5S12111   6.192   1.965   6.839 -0.0988 -0.7103 -0.5607
  116OSM    H5S12112   6.194   2.056   6.777 -1.7706  0.3808  0.9246
  116OSM    C6S12113   6.117   1.993   6.969  0.0945  0.5975  0.5641
  116OSM    H6S12114   6.034   2.065   6.957  0.5665  0.9872 -0.4066
  116OSM    H6T12115   6.195   2.025   7.042  1.7676  1.0299 -1.3669
  116OSM    C7S12116   6.053   1.862   7.028  0.1200  0.2278 -0.0281
  116OSM    H7S12117   6.134   1.788   7.047 -0.4450 -0.4195 -0.1402
  116OSM    H7T12118   5.986   1.807   6.959 -2.2244  1.3259  1.3096
  116OSM    C8S12119   5.983   1.885   7.163  0.6728 -0.7462 -0.4771
  116OSM    H8S12120   5.907   1.965   7.151  1.2125  0.0213  1.1319
  116OSM    H8T12121   6.047   1.927   7.243 -0.9320 -1.0415  1.0031
  116OSM    C9S12122   5.919   1.754   7.216 -0.3010 -0.3851  0.2101
  116OSM    H9S12123   5.984   1.665   7.204 -1.1698 -0.8078 -1.6210
  116OSM    H9T12124   5.834   1.724   7.150 -1.2697  1.1975  0.7049
  116OSM   C10S12125   5.870   1.766   7.358 -0.2352  0.1394  0.7477
  116OSM   H10S12126   5.831   1.664   7.380  0.8985 -0.3294  0.5994
  116OSM   H10T12127   5.785   1.837   7.355  0.3553  0.8982  1.7142
  116OSM   C11S12128   5.974   1.796   7.465  0.0232  0.1315  0.2339
  116OSM   H11S12129   5.994   1.905   7.457 -2.8982  0.7177  0.4891
  116OSM   H11T12130   6.068   1.738   7.447 -1.4086 -2.3250  0.3642
  116OSM   C12S12131   5.925   1.765   7.609  0.4622  0.8152  0.1375
  116OSM   H12S12132   5.887   1.663   7.630  0.1854  0.5291 -1.6101
  116OSM   H12T12133   5.844   1.840   7.612  0.6576  1.0549 -0.3894
  116OSM   C13S12134   6.030   1.782   7.719  0.0308  0.2689  0.6754
  116OSM   H13S12135   6.090   1.870   7.687 -0.3293  0.1279 -0.4113
  116OSM   H13T12136   6.100   1.696   7.722 -0.8479 -0.4396  0.9425
  116OSM   C14S12137   5.975   1.828   7.856  0.0835 -0.0574 -0.0765
  116OSM   H14S12138   5.907   1.745   7.883  0.9427 -1.0831 -0.9949
  116OSM   H14T12139   5.914   1.921   7.848 -1.1442 -0.8256  0.1934
  116OSM   C15S12140   6.079   1.849   7.957  0.2241 -0.0282 -0.6766
  116OSM   H15S12141   6.136   1.933   7.911 -0.6857 -0.5182 -2.7456
  116OSM   H15T12142   6.144   1.762   7.979  0.0278 -0.2091 -0.8136
  116OSM   C16S12143   6.031   1.897   8.098  0.1935 -0.0621  0.6952
  116OSM   H16S12144   5.935   1.947   8.076 -0.0086 -0.5591  0.4501
  116OSM   H16T12145   6.117   1.956   8.138 -0.3433  0.1648  1.5169
  116OSM   C17S12146   6.000   1.782   8.190  0.3329  0.6019 -0.5798
  116OSM   H17S12147   6.078   1.703   8.190 -0.4393 -0.1600 -0.8219
  116OSM   H17T12148   5.923   1.714   8.149  1.2008 -0.7569  0.0082
  116OSM   C18S12149   5.970   1.827   8.333 -1.0059  0.3584 -0.0153
  116OSM   H18S12150   5.937   1.742   8.397  0.8548  0.4573  1.0812
  116OSM   H18T12151   5.891   1.905   8.345 -2.8749 -1.3693 -0.7228
  116OSM   H18U12152   6.065   1.861   8.379 -0.6768 -0.8493  0.2184
  116OSM    C1F12153   6.659   1.818   6.811  0.0422  0.3441  0.0969
  116OSM     OF12154   6.707   1.922   6.774 -0.7057  0.7566 -0.0305
  116OSM    C2F12155   6.735   1.719   6.900 -0.2203 -0.3036 -0.4001
  116OSM    H2F12156   6.829   1.689   6.849  0.6871 -0.0160  1.0759
  116OSM    H2G12157   6.682   1.621   6.905 -2.0779  0.5593 -2.4893
  116OSM    C3F12158   6.762   1.790   7.037 -0.2656  0.2537  0.0027
  116OSM    H3F12159   6.668   1.799   7.094  0.1194  1.8496  0.4017
  116OSM    H3G12160   6.803   1.892   7.023  2.8035 -0.3651  3.6382
  116OSM    C4F12161   6.864   1.720   7.125 -0.3476  0.0330 -0.1181
  116OSM    H4F12162   6.965   1.727   7.079 -1.2584  2.4007 -1.8538
  116OSM    H4G12163   6.837   1.614   7.144 -2.7892  0.6947  0.2611
  116OSM    C5F12164   6.875   1.798   7.262  0.5034  0.1986 -0.0568
  116OSM    H5F12165   6.771   1.795   7.300  0.9376 -2.1213  0.9948
  116OSM    H5G12166   6.904   1.904   7.242  0.7786  0.4496  1.5885
  116OSM    C6F12167   6.965   1.750   7.377 -0.4974 -0.4648 -0.6044
  116OSM    H6F12168   7.062   1.805   7.376  1.0112 -2.9477  1.4039
  116OSM    H6G12169   6.979   1.639   7.376  1.7294 -0.2029 -1.9183
  116OSM    C7F12170   6.903   1.766   7.518  0.2500  0.0463  0.4649
  116OSM    H7F12171   6.819   1.695   7.534  0.3133 -0.8577 -3.0084
  116OSM    H7G12172   6.858   1.867   7.527  1.1130  0.5461 -0.8842
  116OSM    C8F12173   7.007   1.741   7.630 -0.3255  0.5242 -0.0572
  116OSM    H8F12174   7.048   1.638   7.620 -3.4548 -0.6254 -1.8094
  116OSM    H8G12175   6.937   1.727   7.715 -1.0660 -2.0761 -1.0326
  116OSM    C9F12176   7.118   1.841   7.648 -0.0465 -0.0266 -0.8168
  116OSM    H9F12177   7.184   1.869   7.566 -0.3718  0.5757 -0.8747
  116OSM   C10F12178   7.153   1.908   7.762  0.1507 -0.4715  0.3584
  116OSM   H10F12179   7.246   1.965   7.747 -1.4492  2.1272  0.0342
  116OSM   C11F12180   7.086   1.880   7.892  0.5349 -0.1801 -0.1899
  116OSM   H11F12181   6.981   1.847   7.872  0.2728  1.6154 -1.9741
  116OSM   H11G12182   7.083   1.963   7.966 -0.8365 -0.2396 -0.1638
  116OSM   C12F12183   7.154   1.773   7.966 -0.4653  0.0006  0.6109
  116OSM   H12F12184   7.262   1.781   7.989 -0.3530  0.4656 -0.0976
  116OSM   H12G12185   7.137   1.688   7.896 -0.4683  0.0918  0.5006
  116OSM   C13F12186   7.089   1.758   8.108 -0.1324 -0.2217  0.9744
  116OSM   H13F12187   6.982   1.733   8.094  0.5925 -1.9350 -1.8703
  116OSM   H13G12188   7.103   1.859   8.153 -0.1078 -0.5155  1.6212
  116OSM   C14F12189   7.139   1.652   8.201 -0.5340 -0.3920  0.6290
  116OSM   H14F12190   7.234   1.684   8.248 -0.4667  1.8425 -0.9731
  116OSM   H14G12191   7.161   1.563   8.138 -1.0306 -0.2082  0.1960
  116OSM   C15F12192   7.039   1.603   8.314 -1.0683 -0.2935  0.1100
  116OSM   H15F12193   7.077   1.512   8.365  0.0983  0.3375  0.3944
  116OSM   H15G12194   6.937   1.589   8.271 -1.4488 -0.4427  1.0360
  116OSM   C16F12195   7.027   1.710   8.426 -0.6797 -0.5460 -1.0097
  116OSM   H16F12196   7.012   1.810   8.378  0.7281  0.2622  0.2051
  116OSM   H16G12197   7.127   1.727   8.471 -1.1205  1.6758 -0.7896
  116OSM   C17F12198   6.927   1.680   8.540 -0.2728 -0.7831  0.0258
  116OSM   H17F12199   6.945   1.585   8.594 -1.0842 -1.2227 -0.4630
  116OSM   H17G12200   6.829   1.665   8.490 -0.1611  0.3182 -0.5433
  116OSM   C18F12201   6.912   1.794   8.646  0.3721 -0.9235 -0.4817
  116OSM   H18F12202   6.815   1.785   8.700  1.0038 -0.3515  0.7475
  116OSM   H18G12203   6.901   1.891   8.594 -0.9277 -0.1819  1.1228
  116OSM   H18H12204   6.981   1.797   8.733 -0.7915  2.7195  0.4123
  117OSM      N12205   5.904   2.984   6.404 -0.3018  0.5555  0.0701
  117OSM    C1512206   5.960   2.891   6.502 -0.1866 -0.1847 -0.4252
  117OSM   H15A12207   6.027   2.820   6.456  1.2189 -0.9244  2.5956
  117OSM   H15B12208   5.881   2.845   6.559  0.6801  1.6448  2.3881
  117OSM   H15C12209   6.017   2.939   6.580 -1.9275  0.7900  0.2786
  117OSM    C1412210   6.024   3.052   6.332  0.3800  0.2592  0.2192
  117OSM   H14A12211   5.993   3.134   6.270 -1.1191 -0.2130  0.3128
  117OSM   H14B12212   6.080   2.985   6.267 -0.6220  0.0152 -0.4019
  117OSM   H14C12213   6.090   3.099   6.403  1.4778  0.6644 -1.0439
  117OSM    C1312214   5.841   2.910   6.296  0.1022  0.1126 -0.2335
  117OSM   H13A12215   5.789   2.981   6.233  0.9841  1.9517  1.0598
  117OSM   H13B12216   5.769   2.839   6.335  1.3120 -0.5423  0.8267
  117OSM   H13C12217   5.912   2.853   6.239 -1.2049  0.1033 -1.8909
  117OSM    C1212218   5.803   3.086   6.467  0.1911 -0.8656 -0.0144
  117OSM   H12A12219   5.837   3.114   6.566  0.8679  1.5313 -0.8803
  117OSM   H12B12220   5.713   3.030   6.487  0.2286 -0.8205  0.2735
  117OSM    C1112221   5.769   3.214   6.396  0.0971 -0.8759 -0.2726
  117OSM   H11A12222   5.863   3.269   6.373 -1.6447  3.0088  1.3353
  117OSM   H11B12223   5.708   3.276   6.465 -1.9555 -2.7401 -0.3393
  117OSM      P12224   5.550   3.152   6.282  0.1556  0.1777  0.2828
  117OSM    O1312225   5.490   3.215   6.161  0.2149 -0.3114 -0.3795
  117OSM    O1412226   5.536   3.004   6.296 -0.1234 -0.2054 -0.1575
  117OSM    O1112227   5.490   3.226   6.412 -0.6046 -0.4203 -0.3234
  117OSM    O1212228   5.708   3.191   6.267  0.2765 -0.2233  0.1898
  117OSM    C1S12229   5.424   3.169   6.523  0.9713  0.4174 -0.1907
  117OSM    H1S12230   5.458   3.067   6.550  1.2826  0.5828  0.0509
  117OSM    H1T12231   5.319   3.153   6.492  1.2268 -1.5300 -0.0723
  117OSM     NF12232   5.366   3.199   6.761  0.1572  0.4588  0.1130
  117OSM    HNF12233   5.276   3.232   6.789 -0.2613  0.2578 -0.9950
  117OSM    C2S12234   5.432   3.260   6.647  0.0034 -0.1194  0.9469
  117OSM    H2S12235   5.541   3.276   6.666  0.3051  1.8312 -2.1525
  117OSM    C3S12236   5.382   3.405   6.620  0.1259 -0.6056 -0.4486
  117OSM    H3S12237   5.272   3.412   6.606  0.1628 -0.4107 -0.6553
  117OSM     O312238   5.440   3.465   6.504  0.6705 -0.7673 -0.1154
  117OSM    HO312239   5.499   3.393   6.480  0.0808 -1.2249 -0.2228
  117OSM    C4S12240   5.424   3.493   6.743  0.2066 -0.1897  0.0580
  117OSM    H4S12241   5.351   3.527   6.817  2.2526 -2.5176  3.3128
  117OSM    C5S12242   5.550   3.531   6.771  0.3642 -0.5150  0.5110
  117OSM    H5S12243   5.632   3.514   6.700  0.2883 -1.9683  0.7693
  117OSM    C6S12244   5.592   3.621   6.885 -0.3253 -0.2214  1.0669
  117OSM    H6S12245   5.657   3.699   6.839 -0.0382 -1.1092 -0.0409
  117OSM    H6T12246   5.652   3.562   6.957  3.1835  1.3365 -0.4631
  117OSM    C7S12247   5.484   3.673   6.975 -0.3709 -0.1362 -0.6681
  117OSM    H7S12248   5.438   3.585   7.025  1.0125 -0.5094 -0.0286
  117OSM    H7T12249   5.417   3.741   6.918  1.4306  2.3718  0.0757
  117OSM    C8S12250   5.539   3.756   7.099  0.1873 -0.5002  0.0448
  117OSM    H8S12251   5.598   3.840   7.056 -0.3780  0.3978  1.0045
  117OSM    H8T12252   5.610   3.695   7.160  0.5044 -0.9975 -0.8201
  117OSM    C9S12253   5.427   3.806   7.187  0.3432 -0.1738 -0.6445
  117OSM    H9S12254   5.373   3.715   7.220 -0.2354 -0.5769 -2.6850
  117OSM    H9T12255   5.353   3.864   7.128 -0.5836 -1.6318 -0.9369
  117OSM   C10S12256   5.462   3.876   7.324 -0.9109  0.0963  0.1650
  117OSM   H10S12257   5.378   3.938   7.362  0.4249  1.6913  0.6161
  117OSM   H10T12258   5.547   3.946   7.306  1.2340 -2.3254  0.4515
  117OSM   C11S12259   5.496   3.777   7.444 -0.3429 -0.1673 -0.1392
  117OSM   H11S12260   5.587   3.722   7.412 -0.1053  0.1132  0.0511
  117OSM   H11T12261   5.412   3.704   7.445  0.2343 -0.8367  1.9786
  117OSM   C12S12262   5.517   3.843   7.582 -0.0235  0.1222 -0.3346
  117OSM   H12S12263   5.597   3.919   7.580 -1.0678  1.2554  0.1759
  117OSM   H12T12264   5.558   3.758   7.642  0.8153 -0.0105 -1.0923
  117OSM   C13S12265   5.397   3.894   7.654 -0.6208  0.3827  0.3685
  117OSM   H13S12266   5.357   3.977   7.591 -1.0773  0.0343  0.1996
  117OSM   H13T12267   5.436   3.934   7.750  0.1672 -0.9744  0.6225
  117OSM   C14S12268   5.296   3.783   7.689 -0.3825  0.0164 -0.5054
  117OSM   H14S12269   5.266   3.742   7.590  1.4190  0.5513 -1.2917
  117OSM   H14T12270   5.204   3.834   7.723 -0.5354  1.1366 -2.5369
  117OSM   C15S12271   5.353   3.680   7.789 -0.0167  0.4900  0.2921
  117OSM   H15S12272   5.415   3.739   7.860 -1.1460  1.9424  0.0924
  117OSM   H15T12273   5.426   3.613   7.739  0.5833  1.5168 -0.2316
  117OSM   C16S12274   5.241   3.615   7.876 -0.3554 -0.1078  0.7519
  117OSM   H16S12275   5.181   3.541   7.820 -2.1748  1.5508  0.4390
  117OSM   H16T12276   5.164   3.690   7.903  0.8676  0.8809  1.5726
  117OSM   C17S12277   5.292   3.558   8.006  0.6059  0.8700 -0.0832
  117OSM   H17S12278   5.365   3.635   8.041  0.1972  2.4489 -2.5957
  117OSM   H17T12279   5.341   3.460   7.989  1.0685  0.9848  0.5407
  117OSM   C18S12280   5.185   3.526   8.112 -0.2021 -0.6923  0.0125
  117OSM   H18S12281   5.115   3.454   8.066 -0.1740 -1.1756  0.7201
  117OSM   H18T12282   5.139   3.622   8.145 -0.4936 -0.6217 -0.5980
  117OSM   H18U12283   5.239   3.482   8.198  3.0249  0.3625 -1.3814
  117OSM    C1F12284   5.419   3.093   6.821  0.1413 -0.1623  0.1033
  117OSM     OF12285   5.535   3.069   6.791 -0.5606 -0.0039 -0.3684
  117OSM    C2F12286   5.336   3.013   6.907  0.1712  0.1266 -0.3582
  117OSM    H2F12287   5.393   2.931   6.958 -0.9210 -1.0532 -0.9957
  117OSM    H2G12288   5.262   2.969   6.838 -0.2475 -0.1852  0.2858
  117OSM    C3F12289   5.265   3.091   7.025  0.0161 -0.2405  0.0714
  117OSM    H3F12290   5.227   3.008   7.089 -1.7058  0.5607  0.1261
  117OSM    H3G12291   5.175   3.147   6.993 -0.2738 -0.4284  0.5464
  117OSM    C4F12292   5.368   3.176   7.103 -0.2354  0.6526 -0.2263
  117OSM    H4F12293   5.368   3.279   7.061 -1.0763  0.2177 -1.3109
  117OSM    H4G12294   5.468   3.134   7.084 -0.1498  1.5175 -1.7941
  117OSM    C5F12295   5.336   3.195   7.254 -0.0571 -0.2695 -0.6191
  117OSM    H5F12296   5.321   3.090   7.288  1.9409  0.5798  3.1426
  117OSM    H5G12297   5.242   3.248   7.278 -0.8536 -1.4381 -1.1317
  117OSM    C6F12298   5.452   3.273   7.328 -0.3245  0.5910  0.9428
  117OSM    H6F12299   5.472   3.372   7.282 -1.8739  0.8148  0.7428
  117OSM    H6G12300   5.548   3.223   7.303 -0.8656  0.5753 -1.1538
  117OSM    C7F12301   5.424   3.297   7.470 -0.0113  0.0532  0.1875
  117OSM    H7F12302   5.407   3.195   7.511 -1.1274 -0.1666 -0.7989
  117OSM    H7G12303   5.329   3.352   7.486  0.4411  0.5871  1.0473
  117OSM    C8F12304   5.536   3.363   7.549 -0.1138  0.4753 -0.5673
  117OSM    H8F12305   5.545   3.470   7.524 -2.2127  0.7855 -0.0528
  117OSM    H8G12306   5.627   3.302   7.528 -0.0224  0.7724 -1.0506
  117OSM    C9F12307   5.496   3.358   7.693 -0.5609  0.2261  0.4033
  117OSM    H9F12308   5.405   3.415   7.720  0.7687  1.9870  1.2609
  117OSM   C10F12309   5.559   3.307   7.798  0.4352  0.6899 -0.8071
  117OSM   H10F12310   5.509   3.313   7.896  0.6985  0.6695 -0.6709
  117OSM   C11F12311   5.697   3.238   7.793  0.0599 -0.6749 -0.2987
  117OSM   H11F12312   5.765   3.277   7.872 -0.7957  0.3483 -0.0564
  117OSM   H11G12313   5.748   3.264   7.698  1.5095 -0.5714  0.4948
  117OSM   C12F12314   5.692   3.085   7.809  0.0265 -0.4843  0.1050
  117OSM   H12F12315   5.787   3.043   7.770 -0.0059 -0.7290  0.2900
  117OSM   H12G12316   5.612   3.041   7.745 -1.8216 -0.2701  2.2303
  117OSM   C13F12317   5.677   3.032   7.954  0.2212 -0.1175  0.2918
  117OSM   H13F12318   5.587   3.088   7.988  0.8729  1.5995 -0.7179
  117OSM   H13G12319   5.761   3.068   8.016  1.8558  0.2989 -2.0883
  117OSM   C14F12320   5.662   2.885   7.970  0.7019  0.9828  0.3671
  117OSM   H14F12321   5.663   2.862   8.078  1.1729  2.0069  0.5830
  117OSM   H14G12322   5.755   2.841   7.930  0.4223  1.7200 -1.1520
  117OSM   C15F12323   5.536   2.813   7.908  0.3005 -0.2627  0.4334
  117OSM   H15F12324   5.534   2.702   7.919  0.8811 -0.5298 -1.8440
  117OSM   H15G12325   5.547   2.838   7.800  1.4016  2.5785  1.1714
  117OSM   C16F12326   5.390   2.860   7.950 -0.2975  0.5925 -0.3983
  117OSM   H16F12327   5.392   2.969   7.967 -1.3184  1.0210 -2.7622
  117OSM   H16G12328   5.375   2.806   8.046 -0.7137  3.2404  1.0571
  117OSM   C17F12329   5.280   2.835   7.845 -0.1605  0.1626 -0.0847
  117OSM   H17F12330   5.184   2.857   7.896  0.2793  1.0068  0.3875
  117OSM   H17G12331   5.289   2.903   7.757  0.1209 -2.1064 -1.8782
  117OSM   C18F12332   5.275   2.695   7.786 -0.0082 -0.5661  0.2693
  117OSM   H18F12333   5.206   2.702   7.700 -2.1713  0.4941  2.0445
  117OSM   H18G12334   5.251   2.612   7.857 -2.0590  0.0878  0.3614
  117OSM   H18H12335   5.361   2.670   7.720 -0.7013 -2.1275 -0.0626
  118OSM      N12336   0.882   5.590   6.279  0.1576  0.1210 -1.3876
  118OSM    C1512337   0.955   5.485   6.206 -0.1058  0.1028 -0.0007
  118OSM   H15A12338   1.062   5.491   6.222  0.6779 -2.1561 -3.6195
  118OSM   H15B12339   0.941   5.491   6.099 -1.5603 -0.2659  0.1664
  118OSM   H15C12340   0.925   5.387   6.240 -4.8026  1.3294 -0.3680
  118OSM    C1412341   0.734   5.575   6.244 -0.1038 -1.0546  0.8931
  118OSM   H14A12342   0.687   5.494   6.298 -1.6575  0.5539  1.9963
  118OSM   H14B12343   0.714   5.560   6.139 -2.0433 -0.1101  1.1027
  118OSM   H14C12344   0.672   5.659   6.273  1.2340  0.5309 -0.7065
  118OSM    C1312345   0.898   5.559   6.434  0.2255 -0.1229  0.4296
  118OSM   H13A12346   0.876   5.458   6.463  0.4602 -0.2348  0.2170
  118OSM   H13B12347   0.836   5.624   6.495 -0.7520 -0.2972 -0.3582
  118OSM   H13C12348   1.001   5.579   6.462  0.3629  2.7026 -1.7972
  118OSM    C1212349   0.932   5.727   6.245 -0.4821 -0.9402  0.2627
  118OSM   H12A12350   0.881   5.796   6.311 -2.3870 -0.7296 -1.3711
  118OSM   H12B12351   0.895   5.748   6.145  0.0142  4.0317  0.9699
  118OSM    C1112352   1.085   5.742   6.253  0.0353 -0.0888  0.1150
  118OSM   H11A12353   1.095   5.843   6.208 -1.1508  0.3885  0.9052
  118OSM   H11B12354   1.128   5.664   6.186 -0.0495  0.6174 -0.7868
  118OSM      P12355   1.288   5.780   6.402 -0.1885 -0.0814  0.3215
  118OSM    O1312356   1.372   5.660   6.368  0.1960  0.2339  0.3004
  118OSM    O1412357   1.326   5.906   6.333 -0.5458 -0.3624  0.1654
  118OSM    O1112358   1.287   5.800   6.560  0.5642 -0.2035  0.4195
  118OSM    O1212359   1.137   5.734   6.382 -0.2391 -0.2525  0.0248
  118OSM    C1S12360   1.255   5.690   6.642 -0.6145  0.1083 -1.0309
  118OSM    H1S12361   1.340   5.617   6.640  0.5081  1.2618  1.3741
  118OSM    H1T12362   1.157   5.644   6.617 -0.5871  1.1305 -3.0584
  118OSM     NF12363   1.234   5.618   6.882 -0.5488 -0.1844  0.3459
  118OSM    HNF12364   1.139   5.605   6.909 -1.2464 -0.0855 -1.9198
  118OSM    C2S12365   1.255   5.734   6.791  0.6367  0.2839 -1.2080
  118OSM    H2S12366   1.353   5.781   6.811  0.6871  0.1003 -1.0241
  118OSM    C3S12367   1.150   5.845   6.820 -0.5101  0.0411 -1.0048
  118OSM    H3S12368   1.051   5.817   6.780  0.1113 -0.4513 -2.2314
  118OSM     O312369   1.181   5.968   6.755 -0.3677  0.7926 -0.0873
  118OSM    HO312370   1.221   5.932   6.675  0.7873 -0.5873  1.0870
  118OSM    C4S12371   1.139   5.879   6.969  0.2096  0.6508  0.1140
  118OSM    H4S12372   1.237   5.901   7.014  0.8075 -0.6467 -0.5047
  118OSM    C5S12373   1.031   5.854   7.048  0.7436 -0.1586  0.1977
  118OSM    H5S12374   0.944   5.815   6.993  0.9749  0.7664 -0.8533
  118OSM    C6S12375   1.013   5.879   7.191  0.0534  0.3240  0.6830
  118OSM    H6S12376   1.040   5.788   7.248  0.0577  0.2185  0.5115
  118OSM    H6T12377   0.906   5.902   7.210  0.3181  1.0171  1.3932
  118OSM    C7S12378   1.095   6.000   7.249  0.1682  0.0537  0.0042
  118OSM    H7S12379   1.056   6.084   7.187 -1.0047 -1.5325 -1.4603
  118OSM    H7T12380   1.205   5.989   7.243  0.2268  1.2504 -1.5019
  118OSM    C8S12381   1.066   6.026   7.400 -1.0881  0.0415  0.3438
  118OSM    H8S12382   0.956   6.036   7.409 -1.1645 -2.0177  1.9223
  118OSM    H8T12383   1.100   6.130   7.421 -1.9988  0.1840  1.1618
  118OSM    C9S12384   1.144   5.935   7.494 -0.0471  0.4071  0.0706
  118OSM    H9S12385   1.252   5.933   7.467 -0.1371  0.9088 -0.3396
  118OSM    H9T12386   1.098   5.835   7.485 -0.3632  0.6697 -1.3241
  118OSM   C10S12387   1.130   5.989   7.641 -0.2713 -0.5105  0.2713
  118OSM   H10S12388   1.023   6.009   7.663 -0.1781  1.1146 -0.6867
  118OSM   H10T12389   1.162   6.095   7.651 -1.6168 -0.1861  1.3919
  118OSM   C11S12390   1.193   5.905   7.748  0.3929 -0.4084  0.1650
  118OSM   H11S12391   1.298   5.882   7.717  0.1115 -0.2185 -0.9648
  118OSM   H11T12392   1.137   5.809   7.751  1.2549 -1.0214 -1.8484
  118OSM   C12S12393   1.187   5.983   7.883 -0.2129  0.1858  0.4305
  118OSM   H12S12394   1.081   6.016   7.884 -0.8462 -1.6427 -1.1918
  118OSM   H12T12395   1.260   6.067   7.880 -0.0946  0.1347  1.8653
  118OSM   C13S12396   1.212   5.886   7.990  0.3328 -0.3500  0.7758
  118OSM   H13S12397   1.318   5.853   7.991  1.5133  2.9690 -2.6257
  118OSM   H13T12398   1.145   5.797   7.993  1.6884 -1.3505  1.6707
  118OSM   C14S12399   1.185   5.946   8.131  0.1554 -0.0952 -0.4673
  118OSM   H14S12400   1.177   5.864   8.206 -0.6236  0.8397  0.4969
  118OSM   H14T12401   1.082   5.985   8.127 -0.9561 -2.4274  2.6735
  118OSM   C15S12402   1.280   6.058   8.175  0.6517  0.1778 -0.4983
  118OSM   H15S12403   1.299   6.138   8.101 -1.1570 -1.3334 -2.6569
  118OSM   H15T12404   1.378   6.007   8.184 -0.8137 -2.6732  0.0505
  118OSM   C16S12405   1.244   6.116   8.315 -0.8818 -0.0036 -0.7709
  118OSM   H16S12406   1.188   6.044   8.378 -0.8768  0.1127 -0.6332
  118OSM   H16T12407   1.175   6.201   8.297  0.0599  0.6109 -1.5796
  118OSM   C17S12408   1.357   6.177   8.395 -0.2866 -1.2139 -0.6491
  118OSM   H17S12409   1.425   6.224   8.321 -0.0947  1.4690  1.1294
  118OSM   H17T12410   1.420   6.102   8.447 -1.5267 -1.3502  0.6796
  118OSM   C18S12411   1.309   6.280   8.499 -0.4198  0.2354 -0.1166
  118OSM   H18S12412   1.244   6.352   8.445  0.0664  1.2094  0.5607
  118OSM   H18T12413   1.390   6.340   8.548 -2.2982  0.3459  2.9793
  118OSM   H18U12414   1.256   6.223   8.578  2.1254  1.1988  2.3963
  118OSM    C1F12415   1.331   5.525   6.906  0.4720 -0.7504  0.3393
  118OSM     OF12416   1.445   5.532   6.871  0.0639 -0.1415  0.0460
  118OSM    C2F12417   1.280   5.394   6.968  0.6467 -0.2650 -0.0219
  118OSM    H2F12418   1.263   5.316   6.890 -0.4806  1.3838 -1.4434
  118OSM    H2G12419   1.189   5.426   7.023  0.7306  0.6600 -0.4154
  118OSM    C3F12420   1.386   5.340   7.076  0.3094 -0.4459  0.2181
  118OSM    H3F12421   1.488   5.336   7.033  0.0650  1.7091 -0.6164
  118OSM    H3G12422   1.365   5.232   7.093  1.7128 -1.0505 -1.7838
  118OSM    C4F12423   1.389   5.414   7.207  0.5670 -0.0037 -0.1324
  118OSM    H4F12424   1.285   5.447   7.230  0.0094 -2.4958  1.0330
  118OSM    H4G12425   1.462   5.498   7.208  0.4630  0.0971  1.6683
  118OSM    C5F12426   1.434   5.323   7.328  0.2304  0.5795 -0.2213
  118OSM    H5F12427   1.533   5.279   7.304  0.2097  0.1596  0.4537
  118OSM    H5G12428   1.363   5.238   7.336  0.5915  0.3302  0.3652
  118OSM    C6F12429   1.447   5.401   7.461 -0.6555 -0.2714 -0.4204
  118OSM    H6F12430   1.511   5.490   7.444 -0.7222  0.0241  0.8551
  118OSM    H6G12431   1.506   5.339   7.531  0.8855  1.3652 -0.2479
  118OSM    C7F12432   1.313   5.474   7.514  0.4675 -0.2610 -0.3694
  118OSM    H7F12433   1.229   5.404   7.498 -0.6015  1.2184 -1.3362
  118OSM    H7G12434   1.298   5.565   7.452  2.3034  1.5160  1.6909
  118OSM    C8F12435   1.328   5.531   7.655 -0.5562  0.5529 -0.4675
  118OSM    H8F12436   1.231   5.581   7.672 -0.7807 -0.0099 -0.0581
  118OSM    H8G12437   1.414   5.601   7.654 -0.6606  0.6978  0.3684
  118OSM    C9F12438   1.350   5.427   7.764 -0.2082 -0.5003  0.1483
  118OSM    H9F12439   1.275   5.347   7.772  2.0343 -2.5145  1.7096
  118OSM   C10F12440   1.449   5.416   7.853 -0.3549  0.1145  0.6876
  118OSM   H10F12441   1.446   5.335   7.927  1.6796 -0.7695 -0.1625
  118OSM   C11F12442   1.560   5.516   7.883 -0.7660 -0.4536  0.0667
  118OSM   H11F12443   1.582   5.586   7.800  1.5435 -1.1148  0.0973
  118OSM   H11G12444   1.655   5.463   7.907 -1.6485 -1.9658  0.3142
  118OSM   C12F12445   1.521   5.616   7.990  0.3514 -0.0856  0.2457
  118OSM   H12F12446   1.416   5.651   7.984  0.3015 -0.2371  0.2187
  118OSM   H12G12447   1.585   5.706   7.980  0.1298  0.0324 -0.1324
  118OSM   C13F12448   1.549   5.565   8.132  0.0666 -0.9759 -0.2977
  118OSM   H13F12449   1.658   5.571   8.149  0.2989 -1.0813 -1.6744
  118OSM   H13G12450   1.526   5.456   8.138 -0.9174 -0.8031 -0.7200
  118OSM   C14F12451   1.479   5.640   8.251  0.6468 -0.2632 -0.7495
  118OSM   H14F12452   1.370   5.625   8.233  1.1048 -2.4058 -1.9685
  118OSM   H14G12453   1.511   5.746   8.254 -0.1426 -0.0441  1.7928
  118OSM   C15F12454   1.502   5.567   8.385 -0.1648  0.0440  0.4268
  118OSM   H15F12455   1.600   5.516   8.379 -0.2176  0.0404 -0.6233
  118OSM   H15G12456   1.425   5.488   8.376  0.6962 -0.4673 -3.6185
  118OSM   C16F12457   1.482   5.646   8.511  0.5982 -0.1232  0.0536
  118OSM   H16F12458   1.574   5.706   8.528  0.1595  0.3199  0.9446
  118OSM   H16G12459   1.482   5.584   8.603 -0.8426  1.5424  1.2166
  118OSM   C17F12460   1.364   5.745   8.515  0.4078  0.1378 -0.0699
  118OSM   H17F12461   1.274   5.684   8.492 -0.0768  2.2017 -3.8877
  118OSM   H17G12462   1.376   5.812   8.428 -0.4367  0.8321  0.3438
  118OSM   C18F12463   1.348   5.812   8.652  0.9649 -0.2297  0.3595
  118OSM   H18F12464   1.296   5.910   8.646  0.5412 -0.2841  2.8049
  118OSM   H18G12465   1.447   5.851   8.684  2.2352 -1.7252 -1.6118
  118OSM   H18H12466   1.318   5.741   8.733  0.0270 -2.2942 -1.7363
  119OSM      N12467   2.878   5.352   5.622  0.4500 -0.0668  0.7883
  119OSM    C1512468   2.877   5.438   5.498 -0.1505 -0.7520  0.4784
  119OSM   H15A12469   2.805   5.517   5.511  0.5074 -0.4202  2.2755
  119OSM   H15B12470   2.846   5.386   5.409 -0.7988 -0.2866  0.4325
  119OSM   H15C12471   2.972   5.485   5.480  0.0254 -1.6418 -1.0619
  119OSM    C1412472   2.896   5.423   5.750 -0.3545 -0.2883  0.2317
  119OSM   H14A12473   2.979   5.492   5.750  0.2279 -0.9158 -2.2534
  119OSM   H14B12474   2.913   5.350   5.827  0.5602 -1.2354 -0.8476
  119OSM   H14C12475   2.810   5.480   5.783 -0.1938 -1.2014  2.2990
  119OSM    C1312476   2.736   5.288   5.625 -0.2468  0.1015 -0.0511
  119OSM   H13A12477   2.657   5.361   5.612  1.0851  1.2458 -2.0322
  119OSM   H13B12478   2.714   5.213   5.698 -0.3980 -1.7602 -1.9695
  119OSM   H13C12479   2.723   5.223   5.540 -0.2381 -1.2483  0.9708
  119OSM    C1212480   2.973   5.236   5.603 -0.6704 -0.2338 -0.5641
  119OSM   H12A12481   3.065   5.262   5.654  0.9149  1.3547 -4.0454
  119OSM   H12B12482   3.001   5.227   5.499  1.1359  0.2313 -0.1503
  119OSM    C1112483   2.933   5.101   5.671 -0.7544  0.1633  0.1660
  119OSM   H11A12484   3.004   5.021   5.641  0.5384  1.8130 -1.2370
  119OSM   H11B12485   2.837   5.070   5.624 -0.2529 -0.3586 -0.5168
  119OSM      P12486   3.014   5.052   5.919  0.0023  0.3394 -0.1707
  119OSM    O1312487   2.966   4.916   5.952 -0.0166  0.1834 -0.3647
  119OSM    O1412488   3.150   5.059   5.864 -0.0593  0.3288  0.4176
  119OSM    O1112489   2.994   5.153   6.029  0.1528 -0.1423  0.2246
  119OSM    O1212490   2.915   5.110   5.814  0.0151  0.4530  0.2387
  119OSM    C1S12491   2.871   5.149   6.101 -0.1231 -0.2197 -0.7269
  119OSM    H1S12492   2.852   5.051   6.149  4.3611 -0.2683  1.1752
  119OSM    H1T12493   2.782   5.182   6.043  0.6941 -0.7561 -2.3306
  119OSM     NF12494   2.776   5.238   6.308 -0.4528  0.3428  0.2446
  119OSM    HNF12495   2.711   5.313   6.303  0.1130  0.8121 -0.1938
  119OSM    C2S12496   2.888   5.251   6.219 -0.2801 -0.0292 -0.6560
  119OSM    H2S12497   2.984   5.233   6.272 -0.3022  2.9837  0.5421
  119OSM    C3S12498   2.907   5.398   6.156 -0.8069  1.1514 -0.5609
  119OSM    H3S12499   2.828   5.427   6.084 -3.1326  2.4718  2.4100
  119OSM     O312500   3.029   5.412   6.082  0.4956  0.2735 -0.4223
  119OSM    HO312501   3.071   5.326   6.080  0.8528  0.4330  0.1725
  119OSM    C4S12502   2.919   5.505   6.266  0.3748 -0.0387 -0.3078
  119OSM    H4S12503   3.007   5.506   6.332  1.3676 -0.1760 -1.6270
  119OSM    C5S12504   2.829   5.602   6.296 -0.7800 -0.3050  0.6911
  119OSM    H5S12505   2.739   5.606   6.231 -1.0716 -1.6159  0.9955
  119OSM    C6S12506   2.838   5.704   6.404  0.0855  0.3817  0.7650
  119OSM    H6S12507   2.840   5.805   6.359  1.5597  0.3100  0.6616
  119OSM    H6T12508   2.934   5.683   6.456  1.6095  2.0934 -1.2626
  119OSM    C7S12509   2.717   5.682   6.505 -0.5044  0.6210  0.4980
  119OSM    H7S12510   2.627   5.720   6.452 -1.1061  0.5638  1.4754
  119OSM    H7T12511   2.725   5.743   6.597  2.7940  1.8552 -0.5451
  119OSM    C8S12512   2.708   5.539   6.549  0.4266 -0.6343  0.3916
  119OSM    H8S12513   2.811   5.502   6.568  0.9044  0.5099  0.0287
  119OSM    H8T12514   2.665   5.471   6.472  0.8762 -0.1155 -0.3321
  119OSM    C9S12515   2.627   5.518   6.677 -0.0519  0.1954 -0.4486
  119OSM    H9S12516   2.673   5.581   6.756 -1.5485  0.6958  0.0499
  119OSM    H9T12517   2.630   5.413   6.713 -1.5897  0.2087 -0.2054
  119OSM   C10S12518   2.481   5.563   6.669  0.0121 -0.4371  0.1298
  119OSM   H10S12519   2.427   5.472   6.635 -0.2886 -0.5398  0.8690
  119OSM   H10T12520   2.474   5.624   6.577  3.0845 -2.3954 -1.5272
  119OSM   C11S12521   2.435   5.622   6.805  0.2212 -0.1066  0.1722
  119OSM   H11S12522   2.336   5.670   6.790  0.0014 -0.1580  1.3850
  119OSM   H11T12523   2.514   5.700   6.809 -0.0631  0.1027  1.8372
  119OSM   C12S12524   2.445   5.537   6.925 -0.2738 -0.0468  0.0549
  119OSM   H12S12525   2.432   5.601   7.014  0.2406  1.0750 -0.6741
  119OSM   H12T12526   2.547   5.492   6.930 -0.1163  0.3713  0.6767
  119OSM   C13S12527   2.339   5.425   6.936 -0.3128 -0.0709 -0.7589
  119OSM   H13S12528   2.350   5.359   6.847 -0.5058  0.1315 -0.9329
  119OSM   H13T12529   2.238   5.470   6.929 -0.6252 -0.5373  0.5414
  119OSM   C14S12530   2.354   5.344   7.068 -0.1648  0.3669  0.4053
  119OSM   H14S12531   2.359   5.407   7.160 -1.1401 -0.3288  0.9417
  119OSM   H14T12532   2.454   5.296   7.056 -1.2889 -1.5461 -1.5436
  119OSM   C15S12533   2.249   5.230   7.085  0.1741  0.0768 -0.0648
  119OSM   H15S12534   2.252   5.150   7.008 -3.0997  0.3649 -0.5659
  119OSM   H15T12535   2.149   5.279   7.087  0.3362  0.3834  0.9373
  119OSM   C16S12536   2.275   5.159   7.214 -0.2776 -0.3519 -0.4601
  119OSM   H16S12537   2.254   5.239   7.288 -0.8393 -0.1781 -0.8056
  119OSM   H16T12538   2.382   5.132   7.218  0.0220  0.9915  1.5793
  119OSM   C17S12539   2.181   5.037   7.234 -0.6926  0.0037  0.4026
  119OSM   H17S12540   2.205   4.972   7.147  1.4704  1.8372 -0.3968
  119OSM   H17T12541   2.073   5.062   7.234 -1.0794 -1.5501  1.7321
  119OSM   C18S12542   2.198   4.965   7.369  0.2368  0.1341 -0.3032
  119OSM   H18S12543   2.210   5.027   7.460  1.2058 -1.4758  0.6863
  119OSM   H18T12544   2.288   4.900   7.364  1.0766  1.2270  0.3882
  119OSM   H18U12545   2.112   4.898   7.389  1.6286 -0.9276  2.4123
  119OSM    C1F12546   2.761   5.129   6.388 -0.2631 -0.1283 -0.4946
  119OSM     OF12547   2.847   5.044   6.406  0.4794 -0.3425  0.2854
  119OSM    C2F12548   2.628   5.119   6.455  0.3355  0.0056  0.0080
  119OSM    H2F12549   2.579   5.029   6.414  0.9050 -0.4879  0.4091
  119OSM    H2G12550   2.582   5.217   6.427 -0.1294 -0.1639  0.1737
  119OSM    C3F12551   2.648   5.119   6.612  0.5049  0.0542 -1.4689
  119OSM    H3F12552   2.679   5.218   6.649 -1.8806  0.3510 -0.1429
  119OSM    H3G12553   2.722   5.048   6.654 -0.0374  2.4610  3.8602
  119OSM    C4F12554   2.515   5.080   6.666  0.4568 -0.0852 -0.9164
  119OSM    H4F12555   2.480   4.986   6.619  0.7984  0.5715 -2.5173
  119OSM    H4G12556   2.432   5.150   6.638 -2.0550 -1.1217  3.4846
  119OSM    C5F12557   2.508   5.078   6.819 -0.0662 -0.0384  0.2032
  119OSM    H5F12558   2.404   5.098   6.852  0.0312  1.7695 -0.5529
  119OSM    H5G12559   2.560   5.172   6.847  1.1681 -0.4973 -0.4910
  119OSM    C6F12560   2.560   4.954   6.887  0.6910  0.7304  0.2089
  119OSM    H6F12561   2.669   4.955   6.867  0.4228  0.6019 -1.3614
  119OSM    H6G12562   2.507   4.870   6.835  1.9305 -0.2241  0.4700
  119OSM    C7F12563   2.524   4.933   7.039  0.8651 -0.5407  0.2085
  119OSM    H7F12564   2.416   4.941   7.060  0.6558  2.3929 -1.6936
  119OSM    H7G12565   2.580   5.003   7.106  0.8689  0.7018 -1.0833
  119OSM    C8F12566   2.545   4.785   7.078  0.7775 -0.6383  0.4891
  119OSM    H8F12567   2.645   4.750   7.045  1.3830  0.1911  1.3887
  119OSM    H8G12568   2.471   4.721   7.025  0.6601 -1.8833  2.1263
  119OSM    C9F12569   2.501   4.754   7.216  0.6597 -0.3888  0.1601
  119OSM    H9F12570   2.392   4.755   7.230  0.6471 -0.1191  0.0487
  119OSM   C10F12571   2.585   4.746   7.316  0.2353 -0.4492 -0.0536
  119OSM   H10F12572   2.548   4.725   7.418  0.0810  1.2927  0.2616
  119OSM   C11F12573   2.738   4.753   7.311  0.0752 -0.1999  0.2710
  119OSM   H11F12574   2.761   4.844   7.252  1.0952  0.2722  1.3766
  119OSM   H11G12575   2.770   4.656   7.266 -0.5289 -0.6656  0.8446
  119OSM   C12F12576   2.787   4.751   7.454  0.4715 -0.7203 -0.5173
  119OSM   H12F12577   2.727   4.818   7.519 -1.7858 -1.6180 -1.6302
  119OSM   H12G12578   2.893   4.782   7.455 -0.1477  1.4888 -1.5563
  119OSM   C13F12579   2.782   4.606   7.514 -0.2831 -0.2290 -0.3497
  119OSM   H13F12580   2.854   4.539   7.463  0.2259 -0.4115  0.6078
  119OSM   H13G12581   2.679   4.567   7.502 -0.3022 -0.7542  1.3954
  119OSM   C14F12582   2.808   4.617   7.669 -0.3702  0.6030  0.6993
  119OSM   H14F12583   2.728   4.677   7.717  1.1109  0.0857  3.9780
  119OSM   H14G12584   2.906   4.664   7.696 -0.5317  0.4414  1.5951
  119OSM   C15F12585   2.827   4.484   7.743  0.3255 -0.3496 -0.7238
  119OSM   H15F12586   2.933   4.451   7.749  0.6138  0.4486 -1.2827
  119OSM   H15G12587   2.767   4.407   7.691  1.2414 -1.1155 -0.6598
  119OSM   C16F12588   2.779   4.498   7.893 -1.1036  0.6652 -0.1756
  119OSM   H16F12589   2.790   4.400   7.943  2.9196  1.7589  1.2956
  119OSM   H16G12590   2.672   4.529   7.898 -1.8089 -1.6317 -0.4362
  119OSM   C17F12591   2.863   4.605   7.962 -0.5145 -0.2672  0.0638
  119OSM   H17F12592   2.849   4.708   7.921 -2.0793 -1.0097 -1.3374
  119OSM   H17G12593   2.971   4.582   7.950 -0.4985  0.2034 -0.7158
  119OSM   C18F12594   2.833   4.602   8.110  0.1180  0.0429  0.1003
  119OSM   H18F12595   2.837   4.501   8.156 -0.1645  0.0032  0.0351
  119OSM   H18G12596   2.729   4.634   8.129 -0.2943 -2.0391  1.4557
  119OSM   H18H12597   2.906   4.670   8.161  2.1629  0.1499 -2.8278
  120OSM      N12598   6.311   2.239   6.409 -0.1893 -0.3102 -0.3587
  120OSM    C1512599   6.214   2.177   6.510  0.2054 -0.7938  0.3228
  120OSM   H15A12600   6.251   2.168   6.611 -1.1775 -0.7903  0.8508
  120OSM   H15B12601   6.196   2.076   6.476  0.9496 -0.9235  0.3103
  120OSM   H15C12602   6.120   2.229   6.518 -0.1601 -1.1100 -1.6391
  120OSM    C1412603   6.451   2.203   6.444 -0.4460 -0.0458  0.7560
  120OSM   H14A12604   6.523   2.265   6.392 -1.8414  1.9592  1.1350
  120OSM   H14B12605   6.471   2.104   6.405  0.9481  0.6630 -0.3647
  120OSM   H14C12606   6.462   2.209   6.551 -2.6637 -0.3649  1.0212
  120OSM    C1312607   6.287   2.192   6.271  0.0739  0.2940  0.2398
  120OSM   H13A12608   6.183   2.194   6.241  0.2577 -0.2827 -0.4443
  120OSM   H13B12609   6.331   2.097   6.244  0.7652  0.8503 -0.6085
  120OSM   H13C12610   6.338   2.264   6.209 -1.8606 -0.1253 -1.9048
  120OSM    C1212611   6.281   2.386   6.420  0.4073 -0.3493  0.2756
  120OSM   H12A12612   6.278   2.420   6.522 -2.4535  1.8787 -0.4990
  120OSM   H12B12613   6.182   2.401   6.381  1.1499  0.8781 -1.1888
  120OSM    C1112614   6.378   2.475   6.340  0.7615  0.4323  0.7852
  120OSM   H11A12615   6.311   2.543   6.284  1.3713 -1.3362 -2.2155
  120OSM   H11B12616   6.427   2.414   6.261 -0.0613  1.5136 -0.5974
  120OSM      P12617   6.431   2.639   6.542  0.6661 -0.2280 -0.5794
  120OSM    O1312618   6.520   2.752   6.559  0.5442  0.8554  0.9134
  120OSM    O1412619   6.292   2.674   6.523  0.3927  0.1122 -0.3487
  120OSM    O1112620   6.441   2.540   6.672 -0.3443 -0.0178  0.6070
  120OSM    O1212621   6.476   2.534   6.425 -0.4450  0.9197 -0.0726
  120OSM    C1S12622   6.570   2.498   6.722 -0.4521 -0.4274  0.7023
  120OSM    H1S12623   6.630   2.586   6.753 -0.3318 -0.3946  0.3724
  120OSM    H1T12624   6.618   2.436   6.644  0.5812  1.9281 -0.5964
  120OSM     NF12625   6.690   2.411   6.919  0.8431  0.7870 -0.3314
  120OSM    HNF12626   6.720   2.318   6.940 -2.1637  0.3508  2.4454
  120OSM    C2S12627   6.558   2.421   6.858 -0.9566  0.2825  0.0578
  120OSM    H2S12628   6.495   2.486   6.924  0.7543  0.4593  1.5496
  120OSM    C3S12629   6.481   2.285   6.827  0.4916  0.2266  0.3059
  120OSM    H3S12630   6.551   2.222   6.769 -1.1880 -1.6726  0.2618
  120OSM     O312631   6.358   2.297   6.752  0.4839  0.1015 -0.0782
  120OSM    HO312632   6.380   2.379   6.706 -0.4372 -0.1206 -0.9331
  120OSM    C4S12633   6.448   2.234   6.961  0.1787  0.5818 -0.3643
  120OSM    H4S12634   6.374   2.291   7.020  1.0141 -1.1667  2.4622
  120OSM    C5S12635   6.478   2.114   7.012  0.5849 -0.5584  0.0293
  120OSM    H5S12636   6.501   2.031   6.944 -0.2812  0.0581 -1.0155
  120OSM    C6S12637   6.443   2.068   7.146  0.5304  0.3226  0.2108
  120OSM    H6S12638   6.433   1.957   7.152  0.5164  0.3622  0.9011
  120OSM    H6T12639   6.351   2.122   7.176 -0.1707  0.9640 -2.8928
  120OSM    C7S12640   6.567   2.079   7.234 -0.3465 -0.9710 -0.1231
  120OSM    H7S12641   6.643   1.999   7.222 -0.8099 -1.3921 -0.3015
  120OSM    H7T12642   6.527   2.050   7.333 -0.5934 -2.0821 -0.5337
  120OSM    C8S12643   6.615   2.221   7.255  0.2806  0.5256  0.0201
  120OSM    H8S12644   6.533   2.285   7.296 -1.1915 -0.6617 -1.0315
  120OSM    H8T12645   6.649   2.275   7.165  0.3326 -0.3191 -0.4695
  120OSM    C9S12646   6.739   2.222   7.349  0.1107 -0.1604 -0.1541
  120OSM    H9S12647   6.779   2.325   7.358  2.6919 -1.2101  1.0860
  120OSM    H9T12648   6.810   2.164   7.286 -1.2706 -0.3814 -1.5376
  120OSM   C10S12649   6.708   2.178   7.494 -0.5052  0.4200  0.7549
  120OSM   H10S12650   6.679   2.071   7.497  0.3793  0.1103 -0.9440
  120OSM   H10T12651   6.619   2.233   7.531 -1.8388  0.2815 -2.0518
  120OSM   C11S12652   6.829   2.208   7.584 -0.2211  0.5357 -0.5151
  120OSM   H11S12653   6.844   2.318   7.583  0.6041  0.4720  1.8222
  120OSM   H11T12654   6.918   2.167   7.531 -2.1622 -1.5613 -2.2428
  120OSM   C12S12655   6.824   2.150   7.730 -0.0658 -0.1738 -0.1441
  120OSM   H12S12656   6.927   2.175   7.764 -0.8251  1.4545  1.0195
  120OSM   H12T12657   6.821   2.040   7.714  4.2726 -0.7546  2.2806
  120OSM   C13S12658   6.726   2.219   7.819 -0.3915 -0.0155 -0.1650
  120OSM   H13S12659   6.629   2.196   7.770 -0.3607  0.0139 -0.2385
  120OSM   H13T12660   6.745   2.328   7.827  1.5126 -0.5067  2.8919
  120OSM   C14S12661   6.713   2.158   7.962  0.4002 -0.0365  1.0173
  120OSM   H14S12662   6.718   2.047   7.962 -0.5970 -0.1124 -1.1855
  120OSM   H14T12663   6.622   2.208   8.000 -0.3773 -2.4593  2.3851
  120OSM   C15S12664   6.835   2.202   8.052 -0.0171 -0.1653  0.5499
  120OSM   H15S12665   6.856   2.311   8.053  0.7615 -0.3103  1.7001
  120OSM   H15T12666   6.929   2.160   8.009  0.2142  0.1683  0.7302
  120OSM   C16S12667   6.811   2.160   8.196 -0.0539 -0.0472  0.1866
  120OSM   H16S12668   6.803   2.050   8.212  0.5815 -0.0637  0.4140
  120OSM   H16T12669   6.719   2.217   8.222 -1.1097 -0.9324 -1.5616
  120OSM   C17S12670   6.921   2.211   8.293 -0.1947  0.6664 -0.7477
  120OSM   H17S12671   6.881   2.213   8.397  3.2316  0.1955  0.6673
  120OSM   H17T12672   6.967   2.309   8.269 -0.2807  0.9628  0.2490
  120OSM   C18S12673   7.040   2.108   8.310 -0.3461 -0.0282 -0.9074
  120OSM   H18S12674   7.098   2.106   8.215  1.1756 -1.6314  0.0381
  120OSM   H18T12675   6.992   2.010   8.329 -0.9164  0.4427  0.1144
  120OSM   H18U12676   7.097   2.132   8.402  1.5044 -0.0586 -2.0323
  120OSM    C1F12677   6.761   2.505   6.971  0.4136 -0.0821  0.8743
  120OSM     OF12678   6.733   2.627   6.964  0.4608  0.0645  0.2025
  120OSM    C2F12679   6.885   2.456   7.048 -0.2824 -0.5187 -0.9459
  120OSM    H2F12680   6.919   2.368   6.989  1.7464  0.3421 -1.1146
  120OSM    H2G12681   6.844   2.412   7.142  2.1911  1.4392  1.1267
  120OSM    C3F12682   7.000   2.544   7.095  0.1033 -0.3718 -0.1705
  120OSM    H3F12683   6.960   2.598   7.183  1.0319 -0.0337  0.0419
  120OSM    H3G12684   7.023   2.607   7.006 -0.1091 -0.0856 -0.0243
  120OSM    C4F12685   7.110   2.469   7.153 -0.1922  0.2532 -0.4699
  120OSM    H4F12686   7.163   2.400   7.084  1.4705 -0.3706  1.3820
  120OSM    H4G12687   7.074   2.398   7.231  1.6174  1.6862  1.7559
  120OSM    C5F12688   7.220   2.570   7.203 -0.1969  0.0105 -0.3034
  120OSM    H5F12689   7.262   2.640   7.128  0.8691 -3.7400 -3.3219
  120OSM    H5G12690   7.303   2.512   7.250  1.4501  1.2675 -1.6017
  120OSM    C6F12691   7.173   2.659   7.319 -0.0195 -0.3451 -0.0442
  120OSM    H6F12692   7.143   2.590   7.400  0.6607 -1.5753 -0.8201
  120OSM    H6G12693   7.084   2.718   7.288 -0.0670  0.0346  0.8095
  120OSM    C7F12694   7.275   2.758   7.379 -0.1759  0.1817  0.6376
  120OSM    H7F12695   7.311   2.831   7.304  0.2070 -0.7974 -0.1322
  120OSM    H7G12696   7.358   2.700   7.424  0.7576  1.1779  0.2022
  120OSM    C8F12697   7.221   2.847   7.488  0.1547 -0.2022  0.0249
  120OSM    H8F12698   7.145   2.918   7.449  0.7305  0.2891 -0.1940
  120OSM    H8G12699   7.305   2.906   7.529  0.0881  0.0606 -0.2215
  120OSM    C9F12700   7.160   2.765   7.598 -0.5571  0.1788  0.7482
  120OSM    H9F12701   7.087   2.690   7.566 -1.1068 -0.2028  2.8233
  120OSM   C10F12702   7.191   2.770   7.729 -0.1904  0.7484  0.3825
  120OSM   H10F12703   7.132   2.704   7.794  1.2800  0.0087  0.9973
  120OSM   C11F12704   7.289   2.860   7.799  0.3012  0.4065 -0.5292
  120OSM   H11F12705   7.389   2.861   7.750  0.4535  1.6788 -0.1980
  120OSM   H11G12706   7.309   2.820   7.901  0.5610 -1.0341 -1.1392
  120OSM   C12F12707   7.245   3.002   7.823 -1.1037  0.0149  0.0428
  120OSM   H12F12708   7.221   3.041   7.722 -1.6121  1.8504  0.8545
  120OSM   H12G12709   7.338   3.051   7.858 -0.5196 -2.0416  1.4738
  120OSM   C13F12710   7.135   3.027   7.931 -0.5431  0.2591 -0.2808
  120OSM   H13F12711   7.053   2.968   7.885  0.2101 -0.0177 -1.2943
  120OSM   H13G12712   7.091   3.129   7.928 -0.4206  0.3068 -0.5202
  120OSM   C14F12713   7.159   2.982   8.079  0.3820 -0.8416  0.0607
  120OSM   H14F12714   7.183   2.874   8.072  0.3160 -0.8074 -0.8415
  120OSM   H14G12715   7.075   2.994   8.150  0.1074  0.9438 -0.5422
  120OSM   C15F12716   7.280   3.050   8.141  0.3543 -0.0924  0.3719
  120OSM   H15F12717   7.269   3.161   8.147 -0.6080  0.0896 -3.3200
  120OSM   H15G12718   7.370   3.019   8.084  2.3681  2.9826  1.7303
  120OSM   C16F12719   7.298   3.012   8.288  0.3619 -0.6590  0.5733
  120OSM   H16F12720   7.303   2.901   8.294  0.0445 -0.6415  1.2133
  120OSM   H16G12721   7.208   3.048   8.342  0.2660 -0.0868  0.0292
  120OSM   C17F12722   7.420   3.063   8.359 -0.0096 -0.0385  0.1221
  120OSM   H17F12723   7.513   3.041   8.302 -0.1675 -1.7478  0.5193
  120OSM   H17G12724   7.416   2.993   8.445 -3.0770  0.1289  0.1555
  120OSM   C18F12725   7.419   3.214   8.402  0.2133  0.0298  0.0089
  120OSM   H18F12726   7.398   3.280   8.315 -1.3403 -0.5841 -0.1048
  120OSM   H18G12727   7.507   3.244   8.463  0.2686  1.2296 -0.6460
  120OSM   H18H12728   7.327   3.219   8.463 -0.7412 -2.7128 -1.0930
  121OSM      N12729   1.679   3.810   5.808 -0.2777  0.5902  0.5313
  121OSM    C1512730   1.675   3.668   5.748  0.0964  0.3468  0.5583
  121OSM   H15A12731   1.600   3.608   5.797  1.0863  0.1800  1.9051
  121OSM   H15B12732   1.772   3.621   5.749  0.2660  0.7117  2.0214
  121OSM   H15C12733   1.643   3.675   5.645  1.0712 -1.4006  0.1067
  121OSM    C1412734   1.771   3.895   5.737  0.3047  0.1266  0.1688
  121OSM   H14A12735   1.751   3.916   5.632  1.8548 -0.9161 -0.3442
  121OSM   H14B12736   1.863   3.842   5.719  1.9285  3.1406 -0.7756
  121OSM   H14C12737   1.792   3.988   5.788 -0.2277 -1.1629  2.8184
  121OSM    C1312738   1.540   3.856   5.802 -0.1884  0.0464  0.1026
  121OSM   H13A12739   1.537   3.955   5.847 -0.6207  0.3841 -0.6620
  121OSM   H13B12740   1.473   3.788   5.852 -0.1648 -1.6005 -2.0533
  121OSM   H13C12741   1.511   3.861   5.698 -1.0829  3.3013  0.4434
  121OSM    C1212742   1.719   3.795   5.958  0.8127 -0.3072 -0.7998
  121OSM   H12A12743   1.747   3.887   6.008 -0.3281 -0.6250  0.4622
  121OSM   H12B12744   1.811   3.741   5.965  0.3079 -1.2212 -1.1214
  121OSM    C1112745   1.617   3.717   6.052 -0.0652 -0.9763 -0.0428
  121OSM   H11A12746   1.512   3.752   6.044  0.3555  0.5749  0.8183
  121OSM   H11B12747   1.644   3.751   6.155  1.1197  1.8673 -1.2112
  121OSM      P12748   1.735   3.499   6.114 -0.4557  0.5813  0.1163
  121OSM    O1312749   1.714   3.360   6.082 -1.0619  0.2631  0.1506
  121OSM    O1412750   1.868   3.551   6.086  0.3279  0.2907  0.2816
  121OSM    O1112751   1.701   3.527   6.264  0.6888 -0.2863  0.5993
  121OSM    O1212752   1.623   3.578   6.037  0.1486 -0.1131  0.2493
  121OSM    C1S12753   1.795   3.609   6.339 -0.5286 -0.0921  0.2112
  121OSM    H1S12754   1.858   3.680   6.282  1.8318 -1.5871  0.8489
  121OSM    H1T12755   1.868   3.546   6.395 -0.0495 -1.4355 -1.8825
  121OSM     NF12756   1.822   3.775   6.519 -0.2859 -0.0456  0.4371
  121OSM    HNF12757   1.857   3.743   6.607  2.3071  0.7098 -0.2853
  121OSM    C2S12758   1.729   3.683   6.455  0.1787 -0.4256  0.5820
  121OSM    H2S12759   1.649   3.744   6.408 -0.1117 -1.5659 -0.4407
  121OSM    C3S12760   1.662   3.590   6.563  0.2367 -0.6303  0.5453
  121OSM    H3S12761   1.732   3.522   6.615  0.4678 -0.4880  0.4206
  121OSM     O312762   1.568   3.512   6.496  0.2965  0.1066 -0.4618
  121OSM    HO312763   1.589   3.536   6.406 -0.7675 -0.1235 -0.7780
  121OSM    C4S12764   1.583   3.671   6.657 -0.2198  0.5015 -0.1145
  121OSM    H4S12765   1.535   3.764   6.623  0.1890  1.3058  1.4646
  121OSM    C5S12766   1.571   3.637   6.787 -0.2076 -0.4683 -0.1905
  121OSM    H5S12767   1.595   3.538   6.827 -0.8569 -0.6367 -0.2271
  121OSM    C6S12768   1.502   3.734   6.884  0.3548 -0.0663 -0.4136
  121OSM    H6S12769   1.573   3.761   6.965 -0.3828 -1.2374  0.6410
  121OSM    H6T12770   1.421   3.674   6.930  0.5192 -1.0742 -1.4289
  121OSM    C7S12771   1.445   3.862   6.830 -0.5146 -0.2253 -0.5514
  121OSM    H7S12772   1.363   3.831   6.762  0.1137  1.8622 -2.3091
  121OSM    H7T12773   1.519   3.921   6.772 -1.1609 -0.1166 -1.2631
  121OSM    C8S12774   1.385   3.941   6.953  0.0505  0.5265 -0.0429
  121OSM    H8S12775   1.332   3.871   7.021  0.3663 -2.7087 -2.9932
  121OSM    H8T12776   1.319   4.021   6.912  1.2780  1.4826 -0.1556
  121OSM    C9S12777   1.489   4.014   7.040 -0.5011  0.3506 -0.1363
  121OSM    H9S12778   1.548   4.091   6.987  1.0567 -1.4319 -1.0537
  121OSM    H9T12779   1.565   3.942   7.077 -0.4726  0.9685  1.0528
  121OSM   C10S12780   1.421   4.090   7.152 -0.1445 -0.0743  0.3517
  121OSM   H10S12781   1.328   4.135   7.111 -0.2994 -0.0065  0.7671
  121OSM   H10T12782   1.493   4.166   7.190  1.0145  0.8462 -3.4789
  121OSM   C11S12783   1.383   3.999   7.270  0.5680 -0.2789  0.9575
  121OSM   H11S12784   1.477   3.975   7.324  0.3889 -0.2089  1.3038
  121OSM   H11T12785   1.330   3.905   7.244 -1.3048 -0.2969  4.5788
  121OSM   C12S12786   1.288   4.086   7.360 -0.3358  0.3775  0.2229
  121OSM   H12S12787   1.191   4.105   7.310  0.9318  2.5664 -1.5199
  121OSM   H12T12788   1.321   4.192   7.371 -0.9252  0.6966 -0.9559
  121OSM   C13S12789   1.269   4.025   7.503  0.6185 -0.5724  0.1710
  121OSM   H13S12790   1.369   4.008   7.548  2.0545  3.1750 -1.3529
  121OSM   H13T12791   1.219   3.927   7.488 -1.2419  0.1599  1.3905
  121OSM   C14S12792   1.196   4.120   7.599 -0.3465  0.1855 -0.3393
  121OSM   H14S12793   1.087   4.126   7.579  0.0571  0.7104 -2.5733
  121OSM   H14T12794   1.242   4.221   7.588  1.7942 -0.7267  0.0138
  121OSM   C15S12795   1.216   4.083   7.743 -0.7074 -0.4006 -0.0986
  121OSM   H15S12796   1.170   4.166   7.800 -0.5465 -1.3187  1.4053
  121OSM   H15T12797   1.325   4.078   7.766 -0.6952 -2.5482 -0.5215
  121OSM   C16S12798   1.147   3.950   7.779  0.9279  0.3590 -0.4065
  121OSM   H16S12799   1.217   3.864   7.781  1.1117  0.5230  1.4955
  121OSM   H16T12800   1.061   3.940   7.710  0.5705  1.4489 -0.1284
  121OSM   C17S12801   1.078   3.963   7.917 -0.2295 -0.6128  0.7936
  121OSM   H17S12802   1.037   4.066   7.928  2.2278  0.2766  1.9492
  121OSM   H17T12803   1.165   3.951   7.985 -0.4422 -0.8709  1.0201
  121OSM   C18S12804   0.976   3.855   7.932  1.0873 -0.3475 -0.0633
  121OSM   H18S12805   0.912   3.866   8.022  0.3216 -0.4813 -0.5891
  121OSM   H18T12806   1.024   3.755   7.930  3.6121  0.7965  0.6311
  121OSM   H18U12807   0.903   3.853   7.849 -1.1498  3.4933  1.6725
  121OSM    C1F12808   1.873   3.878   6.450 -0.9366 -0.6620  0.1346
  121OSM     OF12809   1.812   3.911   6.346 -0.5158 -0.0971  0.6030
  121OSM    C2F12810   1.991   3.947   6.509  0.7653 -0.4603 -0.1158
  121OSM    H2F12811   1.966   4.055   6.505  2.0486 -0.1350  0.3253
  121OSM    H2G12812   2.088   3.919   6.461  0.7388 -0.2071 -0.3177
  121OSM    C3F12813   1.997   3.935   6.664 -0.2244 -0.1018 -0.3087
  121OSM    H3F12814   2.094   3.979   6.697 -1.1714  0.5116  1.7216
  121OSM    H3G12815   2.001   3.829   6.696  0.4050  0.0784  0.2504
  121OSM    C4F12816   1.886   4.013   6.737  0.0107 -0.1835  0.0724
  121OSM    H4F12817   1.787   3.969   6.713  0.8217 -1.6871 -0.5873
  121OSM    H4G12818   1.891   4.118   6.700  0.4470 -0.1391  0.2565
  121OSM    C5F12819   1.904   4.001   6.886 -0.0034 -0.1223  0.0338
  121OSM    H5F12820   1.847   4.080   6.940  0.6190 -1.9832  3.5766
  121OSM    H5G12821   2.012   4.021   6.906 -0.0072  2.1676 -1.9124
  121OSM    C6F12822   1.865   3.863   6.946 -0.4025 -0.7983  0.0333
  121OSM    H6F12823   1.900   3.782   6.878  0.0393 -1.0208  0.5121
  121OSM    H6G12824   1.755   3.873   6.950 -0.5584 -1.7630 -1.3608
  121OSM    C7F12825   1.937   3.861   7.083 -0.9119 -0.1084 -0.2974
  121OSM    H7F12826   1.911   3.945   7.151  0.8276 -0.3725  0.7493
  121OSM    H7G12827   2.046   3.880   7.072 -1.0979  0.0129 -2.0767
  121OSM    C8F12828   1.893   3.739   7.162 -0.4639 -0.2549  0.2461
  121OSM    H8F12829   1.942   3.650   7.117  1.5009  0.5107  0.8063
  121OSM    H8G12830   1.785   3.720   7.150 -0.2306 -1.2155 -0.3170
  121OSM    C9F12831   1.944   3.748   7.305  0.0159 -0.6449 -1.0388
  121OSM    H9F12832   2.052   3.766   7.314  0.0070  0.0132 -2.1026
  121OSM   C10F12833   1.861   3.758   7.409  0.2444 -0.1456  0.2937
  121OSM   H10F12834   1.902   3.770   7.510 -0.6748  2.8445  0.3840
  121OSM   C11F12835   1.715   3.750   7.399 -0.4499  0.8232 -0.4795
  121OSM   H11F12836   1.686   3.643   7.392  2.4550  0.0746 -2.2231
  121OSM   H11G12837   1.676   3.798   7.307 -0.8501 -0.4108 -0.9725
  121OSM   C12F12838   1.657   3.814   7.524  0.2241 -0.1850  0.3218
  121OSM   H12F12839   1.549   3.794   7.514  0.6244 -1.5425 -1.5205
  121OSM   H12G12840   1.688   3.921   7.530  0.7749 -0.2409 -1.4231
  121OSM   C13F12841   1.694   3.755   7.660  0.0098  0.1096 -0.3672
  121OSM   H13F12842   1.799   3.772   7.694  0.8144 -1.2270 -2.1181
  121OSM   H13G12843   1.690   3.648   7.630  2.1127  0.6479 -2.6965
  121OSM   C14F12844   1.596   3.773   7.782 -0.3011 -0.9163  0.4565
  121OSM   H14F12845   1.644   3.720   7.867 -2.6348 -3.8124  0.0465
  121OSM   H14G12846   1.493   3.738   7.760 -0.5069  0.6935 -1.2604
  121OSM   C15F12847   1.582   3.917   7.826 -0.1387  0.2109 -0.2200
  121OSM   H15F12848   1.539   3.985   7.750  2.5712  0.2482 -1.7726
  121OSM   H15G12849   1.684   3.955   7.843 -0.1813  1.6010 -2.8949
  121OSM   C16F12850   1.506   3.919   7.961  0.5187 -0.2747  0.1109
  121OSM   H16F12851   1.545   3.850   8.038  0.3332 -1.0376 -0.4675
  121OSM   H16G12852   1.400   3.892   7.940  0.4868 -0.8072  0.9541
  121OSM   C17F12853   1.504   4.069   8.014 -0.3052  0.3086 -0.7486
  121OSM   H17F12854   1.473   4.130   7.927  0.1100  1.9256  0.2088
  121OSM   H17G12855   1.606   4.092   8.052 -0.5296 -0.8829  0.5949
  121OSM   C18F12856   1.405   4.097   8.129 -0.4020 -0.0314 -0.6672
  121OSM   H18F12857   1.298   4.079   8.106 -1.2152 -0.4668  3.0679
  121OSM   H18G12858   1.406   4.202   8.166  2.8281 -0.3913  0.3849
  121OSM   H18H12859   1.428   4.024   8.209  1.2212 -0.2090 -1.2783
  122OSM      N12860   1.284   6.700   6.146 -0.2680 -0.4583 -0.3486
  122OSM    C1512861   1.349   6.594   6.235  0.6556 -0.4895  0.3913
  122OSM   H15A12862   1.327   6.496   6.195  1.6204  0.0891 -1.6624
  122OSM   H15B12863   1.315   6.590   6.337 -0.3939  2.7433  0.2349
  122OSM   H15C12864   1.455   6.593   6.219  0.7466  2.6446  0.4586
  122OSM    C1412865   1.280   6.830   6.220 -0.2392  0.0600  0.2958
  122OSM   H14A12866   1.217   6.830   6.308  0.4449  2.2561  0.7988
  122OSM   H14B12867   1.241   6.911   6.159  0.1918  0.1722  0.1698
  122OSM   H14C12868   1.380   6.846   6.258  0.0015  0.6158 -0.5487
  122OSM    C1312869   1.359   6.731   6.015  0.1990 -0.2019 -0.0458
  122OSM   H13A12870   1.381   6.636   5.970  1.2008 -0.6005  1.2491
  122OSM   H13B12871   1.459   6.769   6.028  0.0635  0.4980 -0.9962
  122OSM   H13C12872   1.303   6.795   5.948 -0.2313 -1.6514 -1.0721
  122OSM    C1212873   1.145   6.655   6.111 -0.2338 -0.2481  0.0862
  122OSM   H12A12874   1.106   6.743   6.061 -0.3974  1.4155  3.0526
  122OSM   H12B12875   1.082   6.655   6.198  0.5695 -1.6673  0.6914
  122OSM    C1112876   1.119   6.530   6.030  0.5827  0.2524  0.1199
  122OSM   H11A12877   1.148   6.543   5.924 -1.0033 -0.2029 -0.3847
  122OSM   H11B12878   1.009   6.518   6.032  0.8913 -3.3443 -1.0729
  122OSM      P12879   1.103   6.278   6.070 -0.3095  0.2275 -0.1033
  122OSM    O1312880   0.989   6.295   5.971  0.5062 -0.2660 -0.0808
  122OSM    O1412881   1.203   6.176   6.025 -0.3236 -0.6866 -0.3563
  122OSM    O1112882   1.047   6.251   6.222  0.4276 -0.4551  0.0983
  122OSM    O1212883   1.180   6.414   6.089 -0.6304 -0.2167  0.1382
  122OSM    C1S12884   1.134   6.231   6.333  0.2503  0.2874  0.2422
  122OSM    H1S12885   1.217   6.305   6.339  1.2912 -0.9375  1.3267
  122OSM    H1T12886   1.180   6.129   6.333  2.8607  1.4154  1.6697
  122OSM     NF12887   1.158   6.236   6.573  0.2864  0.0242 -0.1291
  122OSM    HNF12888   1.177   6.150   6.620  0.6556  0.4393  0.4771
  122OSM    C2S12889   1.058   6.236   6.462 -0.3923  0.9401 -0.7937
  122OSM    H2S12890   1.001   6.331   6.464 -2.8070 -0.4929  0.0370
  122OSM    C3S12891   0.947   6.123   6.470  0.0418 -0.8458 -0.2877
  122OSM    H3S12892   1.007   6.029   6.476 -1.1508 -1.7159 -1.7096
  122OSM     O312893   0.865   6.109   6.356  0.2228 -0.0047 -0.1344
  122OSM    HO312894   0.910   6.168   6.295 -1.6882 -0.8749 -2.4708
  122OSM    C4S12895   0.859   6.130   6.598 -0.1658  1.1044  1.3672
  122OSM    H4S12896   0.897   6.067   6.680  1.0316  0.0199  0.0086
  122OSM    C5S12897   0.741   6.192   6.616 -0.4699 -0.2187  0.1382
  122OSM    H5S12898   0.706   6.257   6.534  1.5431 -0.6739 -1.1297
  122OSM    C6S12899   0.655   6.198   6.740 -0.4510  0.2019 -0.0828
  122OSM    H6S12900   0.602   6.103   6.760 -0.0134 -0.0913 -0.3175
  122OSM    H6T12901   0.583   6.281   6.728 -0.6640  0.1768  0.9690
  122OSM    C7S12902   0.743   6.230   6.865  1.0016  1.0715  0.4355
  122OSM    H7S12903   0.795   6.326   6.843  0.9745  0.5828 -1.8689
  122OSM    H7T12904   0.812   6.144   6.880  1.8554  1.9662  1.6943
  122OSM    C8S12905   0.657   6.250   6.993 -0.1163 -0.1522 -0.0661
  122OSM    H8S12906   0.587   6.169   7.021  0.3905 -0.8563 -0.8280
  122OSM    H8T12907   0.594   6.342   6.997 -0.2122 -0.2378  0.4809
  122OSM    C9S12908   0.749   6.272   7.115 -0.5665  0.2616  0.0922
  122OSM    H9S12909   0.805   6.365   7.091  1.0534 -1.1906 -1.9348
  122OSM    H9T12910   0.828   6.195   7.124 -1.9087 -0.9954  1.3936
  122OSM   C10S12911   0.677   6.272   7.243 -0.0682  0.5962 -1.4880
  122OSM   H10S12912   0.625   6.177   7.269  0.6812  0.5055 -0.2759
  122OSM   H10T12913   0.595   6.345   7.228  0.7446  0.8316 -5.2067
  122OSM   C11S12914   0.763   6.306   7.367  0.1618 -0.9313 -0.5444
  122OSM   H11S12915   0.811   6.406   7.360 -0.5097 -0.5485  0.2023
  122OSM   H11T12916   0.852   6.241   7.378 -1.0161 -2.3338  0.9542
  122OSM   C12S12917   0.695   6.289   7.505 -0.6817  0.0698  0.1095
  122OSM   H12S12918   0.638   6.194   7.503  0.8149 -0.8368 -2.5969
  122OSM   H12T12919   0.616   6.365   7.523 -0.4107  0.4205 -0.1681
  122OSM   C13S12920   0.807   6.284   7.617 -0.1800  0.2843  0.0606
  122OSM   H13S12921   0.837   6.387   7.645  2.9906 -0.6628  0.3602
  122OSM   H13T12922   0.901   6.242   7.576 -0.9651 -0.3179 -1.1712
  122OSM   C14S12923   0.755   6.214   7.743 -0.3576  0.3480  0.1385
  122OSM   H14S12924   0.710   6.118   7.712 -1.6357  0.6119  1.1717
  122OSM   H14T12925   0.671   6.274   7.784 -0.6360 -0.3490  0.5849
  122OSM   C15S12926   0.850   6.206   7.862 -0.3181  0.1320 -0.3688
  122OSM   H15S12927   0.926   6.287   7.858 -1.3582  1.1588  0.3577
  122OSM   H15T12928   0.910   6.113   7.857 -0.9729 -0.4294  1.7956
  122OSM   C16S12929   0.773   6.214   8.002  0.1597 -0.0882 -0.3894
  122OSM   H16S12930   0.710   6.122   8.005  1.6067 -1.1186 -0.9188
  122OSM   H16T12931   0.704   6.300   7.998 -0.6301 -0.6751  0.4428
  122OSM   C17S12932   0.838   6.221   8.145  0.5075  0.1721  0.9462
  122OSM   H17S12933   0.884   6.122   8.165 -1.2962 -1.1082 -1.0427
  122OSM   H17T12934   0.764   6.240   8.226 -0.0962  0.0135  0.4354
  122OSM   C18S12935   0.941   6.332   8.168  1.0274  0.1660 -1.1897
  122OSM   H18S12936   0.966   6.345   8.276  2.7882 -0.5669 -1.4936
  122OSM   H18T12937   0.917   6.431   8.125 -1.4664 -0.4470 -1.3328
  122OSM   H18U12938   1.025   6.286   8.112  3.0064  0.1180  1.7087
  122OSM    C1F12939   1.227   6.351   6.600  0.3354  0.2687 -0.2271
  122OSM     OF12940   1.205   6.463   6.552 -0.1588  0.0222  0.2709
  122OSM    C2F12941   1.333   6.340   6.708 -0.4412 -0.2869  0.2200
  122OSM    H2F12942   1.424   6.394   6.676  1.2663 -0.5335  4.3168
  122OSM    H2G12943   1.359   6.234   6.729  0.0201  0.2640  2.5508
  122OSM    C3F12944   1.294   6.414   6.840 -0.2767 -0.0560 -0.1041
  122OSM    H3F12945   1.279   6.521   6.815  0.2375  0.3480  1.2652
  122OSM    H3G12946   1.367   6.401   6.923 -1.6849  0.0645  1.1869
  122OSM    C4F12947   1.159   6.368   6.901 -0.1783 -0.3296  0.0168
  122OSM    H4F12948   1.178   6.264   6.932  2.9286  0.1401 -0.1572
  122OSM    H4G12949   1.083   6.369   6.820 -3.8317 -1.2106  3.2709
  122OSM    C5F12950   1.120   6.446   7.029 -0.2248  0.2445  0.2805
  122OSM    H5F12951   1.010   6.433   7.038 -0.1309 -1.0280 -0.2802
  122OSM    H5G12952   1.141   6.554   7.011 -1.2173  0.3724 -0.1358
  122OSM    C6F12953   1.197   6.408   7.159  0.6241 -0.0296 -0.0246
  122OSM    H6F12954   1.301   6.446   7.152  1.4039 -1.9898  0.4630
  122OSM    H6G12955   1.216   6.299   7.170 -1.3462 -0.2781  1.1687
  122OSM    C7F12956   1.145   6.464   7.290 -0.4063  0.1042 -0.0756
  122OSM    H7F12957   1.037   6.438   7.291 -0.6563  1.0959 -0.3816
  122OSM    H7G12958   1.165   6.573   7.297  1.0571 -0.1625 -0.0237
  122OSM    C8F12959   1.214   6.411   7.420  0.1889  0.2090  0.8086
  122OSM    H8F12960   1.321   6.437   7.409  0.0894 -0.2284 -1.3660
  122OSM    H8G12961   1.202   6.300   7.420 -0.9752  0.3274  0.5535
  122OSM    C9F12962   1.158   6.474   7.542 -0.5230 -0.1630 -0.5501
  122OSM    H9F12963   1.069   6.537   7.533 -0.9524 -0.7385 -0.3829
  122OSM   C10F12964   1.223   6.477   7.658 -0.3614  0.5261 -0.5276
  122OSM   H10F12965   1.177   6.520   7.749 -1.2488 -0.9214 -0.2826
  122OSM   C11F12966   1.358   6.413   7.693  0.0894 -0.7023  0.0180
  122OSM   H11F12967   1.407   6.362   7.608 -0.4792 -1.1396 -0.0480
  122OSM   H11G12968   1.352   6.338   7.775 -1.3006  2.1666  2.6689
  122OSM   C12F12969   1.470   6.513   7.745  0.1787  0.3989  0.2913
  122OSM   H12F12970   1.478   6.603   7.680 -4.5433  3.4950  3.6096
  122OSM   H12G12971   1.568   6.462   7.750 -0.3876 -0.8290 -0.7361
  122OSM   C13F12972   1.443   6.572   7.881 -0.5941 -0.0487  1.0787
  122OSM   H13F12973   1.357   6.641   7.870 -0.5907 -0.2397 -0.1622
  122OSM   H13G12974   1.525   6.639   7.915 -0.2470 -0.6495  1.4355
  122OSM   C14F12975   1.416   6.469   7.997 -0.0575  0.4907  1.4466
  122OSM   H14F12976   1.500   6.398   8.013 -0.7535 -0.3637  1.3473
  122OSM   H14G12977   1.333   6.404   7.961  0.2047  0.5522  0.7249
  122OSM   C15F12978   1.373   6.536   8.124 -1.0599  0.2535  0.1461
  122OSM   H15F12979   1.441   6.622   8.142  1.5742 -1.6693 -0.3491
  122OSM   H15G12980   1.376   6.453   8.198 -1.3123  1.4768  1.5483
  122OSM   C16F12981   1.227   6.602   8.121 -0.5650  0.6516 -0.3759
  122OSM   H16F12982   1.155   6.519   8.105  0.1394  0.3031 -1.7430
  122OSM   H16G12983   1.200   6.668   8.036  0.1426 -1.4708 -2.2707
  122OSM   C17F12984   1.192   6.682   8.244  0.5207  0.9329  0.0168
  122OSM   H17F12985   1.092   6.729   8.238  1.5912  3.2488 -0.2252
  122OSM   H17G12986   1.257   6.771   8.259  0.4886  0.6757  1.7586
  122OSM   C18F12987   1.196   6.604   8.372  0.2371 -0.3289  0.3273
  122OSM   H18F12988   1.304   6.582   8.388  0.4572  0.4346 -0.1465
  122OSM   H18G12989   1.138   6.509   8.369  0.7009 -0.5924 -0.3679
  122OSM   H18H12990   1.156   6.672   8.450 -2.3972 -1.4294 -0.0150
  123OSM      N12991   5.481   1.621   6.322 -0.1483  0.2804 -0.5117
  123OSM    C1512992   5.359   1.543   6.368 -0.0327 -0.2242  0.9914
  123OSM   H15A12993   5.373   1.436   6.373 -2.3857 -0.5946  0.1637
  123OSM   H15B12994   5.269   1.560   6.311  0.1057 -2.3804  0.0547
  123OSM   H15C12995   5.343   1.573   6.470 -1.3877 -0.0626  0.7338
  123OSM    C1412996   5.607   1.581   6.388  0.2951 -0.0331 -0.2102
  123OSM   H14A12997   5.687   1.648   6.360 -0.0137  0.6482  0.5146
  123OSM   H14B12998   5.637   1.479   6.371 -0.8791 -0.4272  0.0494
  123OSM   H14C12999   5.587   1.573   6.494 -1.9961 -0.6332 -0.6647
  123OSM    C1313000   5.497   1.601   6.173  0.3421 -0.4352  0.3831
  123OSM   H13A13001   5.523   1.500   6.144  1.0805 -0.2607  0.4306
  123OSM   H13B13002   5.573   1.660   6.123  0.6626 -0.0412  1.3229
  123OSM   H13C13003   5.408   1.636   6.122  1.5302 -1.1479 -2.2811
  123OSM    C1213004   5.445   1.767   6.348 -0.1036 -0.2273  0.3180
  123OSM   H12A13005   5.369   1.802   6.281  2.0497  0.1381 -2.0006
  123OSM   H12B13006   5.522   1.831   6.307 -0.1664 -0.4646 -0.1722
  123OSM    C1113007   5.411   1.812   6.488  0.4795 -0.0081 -0.4812
  123OSM   H11A13008   5.409   1.923   6.490  3.6666  0.1060 -0.6574
  123OSM   H11B13009   5.490   1.792   6.564  0.5416 -0.0893 -0.5650
  123OSM      P13010   5.156   1.853   6.499 -0.0347 -0.2708 -0.0420
  123OSM    O1313011   5.182   1.960   6.397 -0.2866  0.3785  0.0602
  123OSM    O1413012   5.033   1.770   6.478 -0.3333 -0.4611  0.3388
  123OSM    O1113013   5.143   1.934   6.637 -0.0714 -0.0877  0.7328
  123OSM    O1213014   5.280   1.757   6.528  0.7969 -0.3369  0.2388
  123OSM    C1S13015   5.247   1.953   6.737  0.0031  0.1587 -0.9565
  123OSM    H1S13016   5.304   2.045   6.708  0.1570  0.6236  0.7958
  123OSM    H1T13017   5.321   1.871   6.732  0.3840  0.2708  2.2000
  123OSM     NF13018   5.319   1.970   6.978  0.2308 -0.5389 -0.3681
  123OSM    HNF13019   5.318   1.901   7.050  0.5819  1.2261  1.3785
  123OSM    C2S13020   5.202   1.960   6.888  0.6250  0.2496  0.3789
  123OSM    H2S13021   5.143   2.054   6.893 -0.3550 -0.4048  1.1347
  123OSM    C3S13022   5.099   1.835   6.919 -0.0808 -0.9182 -0.7898
  123OSM    H3S13023   5.139   1.732   6.927 -0.0293 -0.9108 -0.9542
  123OSM     O313024   4.991   1.830   6.824 -0.5929 -0.2546 -0.3499
  123OSM    HO313025   5.029   1.869   6.744  0.8988  1.1100  1.0006
  123OSM    C4S13026   5.046   1.851   7.059 -0.5607 -0.4944  0.4533
  123OSM    H4S13027   5.095   1.786   7.132  1.1641 -3.1846 -2.9508
  123OSM    C5S13028   4.941   1.942   7.087 -0.3263  0.2133 -0.8521
  123OSM    H5S13029   4.914   1.998   6.996  0.6755 -0.1760 -1.3977
  123OSM    C6S13030   4.873   1.958   7.219 -0.1610 -0.3559  0.2414
  123OSM    H6S13031   4.781   1.896   7.224 -0.8677  0.7967  1.8478
  123OSM    H6T13032   4.836   2.059   7.248 -0.2596 -0.1435 -0.6335
  123OSM    C7S13033   4.955   1.914   7.339  1.0241  0.1632  0.6193
  123OSM    H7S13034   5.054   1.964   7.334  0.5052  1.3018  1.4300
  123OSM    H7T13035   4.981   1.807   7.324  4.6024  0.8958  1.0794
  123OSM    C8S13036   4.881   1.934   7.479  0.2305 -0.8323 -0.1469
  123OSM    H8S13037   4.776   1.896   7.472 -1.9711  4.5160  1.1383
  123OSM    H8T13038   4.872   2.044   7.485 -0.0893 -0.7675 -1.6721
  123OSM    C9S13039   4.965   1.888   7.601 -0.4614 -0.1591  0.4360
  123OSM    H9S13040   5.042   1.959   7.639 -0.4587 -0.5197  1.1109
  123OSM    H9T13041   5.026   1.799   7.574  0.1966  0.0832  1.0762
  123OSM   C10S13042   4.865   1.856   7.711  0.1826 -0.5592 -0.1881
  123OSM   H10S13043   4.792   1.789   7.661 -1.1320  1.9323 -1.6781
  123OSM   H10T13044   4.822   1.953   7.742  1.7754 -0.0390  0.4348
  123OSM   C11S13045   4.938   1.778   7.832  0.0797 -0.4541  0.5880
  123OSM   H11S13046   5.019   1.841   7.874  0.9861 -1.0821 -0.2146
  123OSM   H11T13047   4.967   1.680   7.790  1.7269  0.2858 -0.0313
  123OSM   C12S13048   4.830   1.751   7.938 -0.5187  0.5674 -0.1316
  123OSM   H12S13049   4.744   1.696   7.894 -0.6792 -0.6526  1.6579
  123OSM   H12T13050   4.782   1.848   7.963  0.4411  1.0259 -0.0823
  123OSM   C13S13051   4.879   1.680   8.062 -0.3793  0.3370  0.0807
  123OSM   H13S13052   4.933   1.589   8.029 -2.8527 -0.6570 -1.3308
  123OSM   H13T13053   4.795   1.636   8.121 -0.6350  3.3450  2.0548
  123OSM   C14S13054   4.953   1.770   8.157  0.2797  0.3416 -0.9961
  123OSM   H14S13055   4.901   1.868   8.159 -1.3446 -0.5236 -0.0876
  123OSM   H14T13056   5.056   1.789   8.119  0.1134  0.8084 -1.2155
  123OSM   C15S13057   4.972   1.721   8.305 -0.0674 -0.8437 -0.1343
  123OSM   H15S13058   5.026   1.624   8.303 -1.6619 -1.7913  1.1710
  123OSM   H15T13059   4.873   1.699   8.350  0.8541  1.5975  3.2229
  123OSM   C16S13060   5.032   1.823   8.397 -0.7199  0.2414  0.6356
  123OSM   H16S13061   4.946   1.892   8.415 -0.5166  0.3306  1.2786
  123OSM   H16T13062   5.108   1.873   8.334 -1.0877  1.6782  1.3072
  123OSM   C17S13063   5.088   1.769   8.524 -0.8947  0.4847  0.5651
  123OSM   H17S13064   5.127   1.846   8.593 -0.1582 -0.5747  1.3581
  123OSM   H17T13065   5.179   1.712   8.496 -0.1099  2.5261 -1.1791
  123OSM   C18S13066   4.999   1.668   8.600  0.1588  0.5993  0.1583
  123OSM   H18S13067   5.018   1.570   8.551 -1.3329  1.7778 -2.8391
  123OSM   H18T13068   4.893   1.697   8.589  0.8728  3.1107 -0.3679
  123OSM   H18U13069   5.030   1.663   8.707 -0.4098  0.4130  0.3155
  123OSM    C1F13070   5.413   2.067   6.975 -0.3086 -0.5709  0.4940
  123OSM     OF13071   5.409   2.148   6.882 -0.2118 -0.6429 -0.2960
  123OSM    C2F13072   5.512   2.069   7.085 -0.7065 -0.4256 -0.2850
  123OSM    H2F13073   5.592   1.996   7.059  0.4137  1.3073 -1.7673
  123OSM    H2G13074   5.451   2.042   7.174 -1.4337 -0.2379 -0.7248
  123OSM    C3F13075   5.581   2.204   7.109 -0.1025  0.5595  0.8190
  123OSM    H3F13076   5.514   2.292   7.123 -1.1489  0.2038 -1.6929
  123OSM    H3G13077   5.622   2.229   7.009 -1.6129  1.2421  0.3591
  123OSM    C4F13078   5.676   2.205   7.222 -0.1481  0.6128 -0.8216
  123OSM    H4F13079   5.709   2.310   7.237  0.6723  0.0968  1.1515
  123OSM    H4G13080   5.770   2.154   7.194  0.7515  1.6763  0.1994
  123OSM    C5F13081   5.614   2.152   7.357  0.0099  0.0244  1.0967
  123OSM    H5F13082   5.587   2.045   7.344 -3.6946  1.0111 -0.0102
  123OSM    H5G13083   5.525   2.219   7.367 -0.7075 -0.5291 -1.2995
  123OSM    C6F13084   5.700   2.172   7.476  0.7082 -0.2923 -0.0022
  123OSM    H6F13085   5.747   2.272   7.466  1.3485 -0.7712 -2.2616
  123OSM    H6G13086   5.789   2.105   7.475  0.5157 -0.5506 -0.5673
  123OSM    C7F13087   5.633   2.152   7.612 -0.3836 -0.1422  0.1306
  123OSM    H7F13088   5.626   2.048   7.649  0.4576  0.3715  1.8093
  123OSM    H7G13089   5.533   2.200   7.601 -0.2945 -0.4547 -2.2853
  123OSM    C8F13090   5.701   2.239   7.724 -0.1948 -0.2114 -1.3470
  123OSM    H8F13091   5.627   2.240   7.806  0.0468 -0.2214 -1.1281
  123OSM    H8G13092   5.696   2.346   7.694  0.5858  0.5846  1.2426
  123OSM    C9F13093   5.836   2.196   7.780  0.3136  0.5511  0.6178
  123OSM    H9F13094   5.886   2.120   7.718 -0.3437  1.6071 -1.2384
  123OSM   C10F13095   5.889   2.227   7.900 -0.0782 -0.8040 -0.0812
  123OSM   H10F13096   5.983   2.183   7.934 -0.3156 -2.0100 -0.9446
  123OSM   C11F13097   5.815   2.315   7.994  0.1954  0.0654 -0.1265
  123OSM   H11F13098   5.731   2.368   7.946 -0.8388 -1.3683  0.0613
  123OSM   H11G13099   5.887   2.380   8.049 -0.9477  0.8951  0.4072
  123OSM   C12F13100   5.746   2.229   8.108  0.5329 -0.6808 -0.0417
  123OSM   H12F13101   5.827   2.178   8.166  1.4889 -1.6081 -2.1371
  123OSM   H12G13102   5.683   2.153   8.057  1.1223 -0.7728 -0.6275
  123OSM   C13F13103   5.653   2.314   8.186 -0.5344  0.3360  0.4960
  123OSM   H13F13104   5.575   2.250   8.231 -2.7535  2.9069  0.4414
  123OSM   H13G13105   5.604   2.384   8.115 -4.1650 -1.0001  1.6002
  123OSM   C14F13106   5.729   2.381   8.306  0.0696 -0.9779  0.4683
  123OSM   H14F13107   5.810   2.442   8.260  0.7574 -2.3541 -0.1786
  123OSM   H14G13108   5.773   2.307   8.376 -1.9901 -0.9063  1.8794
  123OSM   C15F13109   5.636   2.459   8.390 -0.1838  0.1867  1.0519
  123OSM   H15F13110   5.683   2.509   8.478 -0.2550  2.4401 -0.1339
  123OSM   H15G13111   5.565   2.385   8.433  0.7221 -1.4014 -0.1551
  123OSM   C16F13112   5.545   2.560   8.316 -0.4742 -0.3610  0.4000
  123OSM   H16F13113   5.483   2.503   8.243 -1.7092 -2.0717  2.7154
  123OSM   H16G13114   5.593   2.640   8.255  1.2595 -2.2713 -0.8270
  123OSM   C17F13115   5.440   2.630   8.401 -0.2148  0.1495 -0.8112
  123OSM   H17F13116   5.362   2.558   8.436 -0.8876  0.4924 -1.6207
  123OSM   H17G13117   5.377   2.707   8.353  0.4135  0.3856 -1.2629
  123OSM   C18F13118   5.499   2.707   8.523 -0.8043  0.6849 -0.0434
  123OSM   H18F13119   5.539   2.629   8.591 -1.0515  0.3400 -0.2936
  123OSM   H18G13120   5.415   2.770   8.559  0.0337  0.1039  3.0997
  123OSM   H18H13121   5.584   2.775   8.498  1.3582 -1.2875  1.7366
  124OSM      N13122   6.315   3.952   6.380 -0.5115 -0.5163  0.1944
  124OSM    C1513123   6.342   3.811   6.349  0.4648  0.4656  0.2846
  124OSM   H15A13124   6.438   3.789   6.305  0.2786  1.6236 -0.7458
  124OSM   H15B13125   6.272   3.781   6.272  1.7197 -1.9818  0.0749
  124OSM   H15C13126   6.331   3.736   6.426 -0.9799  0.2507 -0.1174
  124OSM    C1413127   6.326   4.031   6.251 -0.5721 -0.0462 -1.1304
  124OSM   H14A13128   6.427   4.028   6.211  0.3471 -0.0033  1.1349
  124OSM   H14B13129   6.308   4.132   6.284  0.0845 -0.4409  0.4552
  124OSM   H14C13130   6.255   3.994   6.179 -1.3307 -0.5384 -0.1273
  124OSM    C1313131   6.163   3.960   6.405  0.0271 -0.2042  0.3054
  124OSM   H13A13132   6.100   3.916   6.329 -2.1057  1.0758  1.3006
  124OSM   H13B13133   6.136   4.061   6.433  0.6880  0.5918 -1.8113
  124OSM   H13C13134   6.150   3.913   6.501 -0.2167 -0.3517  0.2021
  124OSM    C1213135   6.406   4.010   6.487  0.3226 -0.4334  0.0252
  124OSM   H12A13136   6.507   3.979   6.464  0.0028 -2.0505  0.7031
  124OSM   H12B13137   6.387   3.958   6.580 -1.5320  1.0033  0.4758
  124OSM    C1113138   6.403   4.161   6.512  0.0502  0.6689  0.2726
  124OSM   H11A13139   6.461   4.190   6.602  0.3207  1.1007 -0.0336
  124OSM   H11B13140   6.300   4.196   6.533 -0.0147  0.6843 -0.0693
  124OSM      P13141   6.617   4.224   6.382  0.1383 -0.1579  0.1889
  124OSM    O1313142   6.656   4.078   6.379 -0.3144  0.1257 -0.4330
  124OSM    O1413143   6.651   4.303   6.259 -0.1293 -0.7282  0.4298
  124OSM    O1113144   6.677   4.291   6.511  0.2680 -0.4591  0.5716
  124OSM    O1213145   6.458   4.238   6.397 -1.2732  0.7376 -0.7158
  124OSM    C1S13146   6.653   4.428   6.522 -0.7779 -0.2105 -0.5363
  124OSM    H1S13147   6.545   4.453   6.527 -0.7060 -0.0330  0.2195
  124OSM    H1T13148   6.687   4.489   6.435 -0.8700 -0.1697 -0.5430
  124OSM     NF13149   6.659   4.621   6.678 -0.4684  0.3582  0.1672
  124OSM    HNF13150   6.728   4.693   6.680 -0.8574  0.7064  2.4834
  124OSM    C2S13151   6.710   4.486   6.650 -0.2869 -0.2529  0.9207
  124OSM    H2S13152   6.679   4.427   6.739  2.0585 -0.4348  1.6422
  124OSM    C3S13153   6.862   4.480   6.640  0.1242  0.4206  0.2925
  124OSM    H3S13154   6.898   4.553   6.565 -1.2142  1.6607  0.8207
  124OSM     O313155   6.918   4.348   6.614  0.2609 -0.2590  0.6785
  124OSM    HO313156   6.841   4.299   6.587 -0.9732  1.4702  1.0141
  124OSM    C4S13157   6.909   4.530   6.774 -0.2112 -0.5526 -0.0835
  124OSM    H4S13158   6.896   4.460   6.858  0.4714  1.5770  1.8407
  124OSM    C5S13159   6.998   4.630   6.786  0.6865  0.7791  0.4205
  124OSM    H5S13160   7.032   4.691   6.702 -2.4662  3.4978  1.0126
  124OSM    C6S13161   7.058   4.673   6.923 -0.2649 -0.4133 -0.5990
  124OSM    H6S13162   7.020   4.777   6.933  0.7498  0.0282 -1.1955
  124OSM    H6T13163   7.168   4.685   6.911 -0.1204  0.0756  1.0928
  124OSM    C7S13164   7.014   4.607   7.048  0.3436  0.1717 -0.2163
  124OSM    H7S13165   7.085   4.522   7.052 -1.2100 -1.0659  2.3402
  124OSM    H7T13166   6.910   4.568   7.058  0.3183 -0.1438 -1.6754
  124OSM    C8S13167   7.047   4.689   7.173  0.2725 -0.0669 -0.0696
  124OSM    H8S13168   6.977   4.773   7.188  0.3085 -0.1303  0.4785
  124OSM    H8T13169   7.147   4.733   7.153  1.3155 -2.7227 -0.9783
  124OSM    C9S13170   7.032   4.608   7.299 -0.1624 -0.2560 -0.1308
  124OSM    H9S13171   7.091   4.514   7.300  0.0966 -0.1047 -0.7815
  124OSM    H9T13172   6.934   4.557   7.311  0.0635 -0.1295  2.4014
  124OSM   C10S13173   7.061   4.695   7.423 -0.1231 -0.2986  0.1763
  124OSM   H10S13174   6.990   4.780   7.413 -2.0710 -1.7803  0.9604
  124OSM   H10T13175   7.165   4.732   7.423 -0.0308 -0.4873  2.1672
  124OSM   C11S13176   7.042   4.633   7.564  0.3344  0.1136 -0.1483
  124OSM   H11S13177   7.125   4.564   7.589 -1.2476 -1.4839  0.8679
  124OSM   H11T13178   6.951   4.569   7.563 -0.2109  0.8584  1.1090
  124OSM   C12S13179   7.035   4.745   7.667 -0.2185  0.4081  0.7679
  124OSM   H12S13180   6.938   4.800   7.660  1.2927  3.0557 -0.1096
  124OSM   H12T13181   7.112   4.822   7.645  0.9730 -1.0513 -0.2578
  124OSM   C13S13182   7.040   4.708   7.813 -0.1656  0.1819 -0.1363
  124OSM   H13S13183   7.141   4.673   7.843 -0.0272  0.7664  0.0922
  124OSM   H13T13184   6.968   4.624   7.819 -1.1232  0.9179 -1.0311
  124OSM   C14S13185   6.999   4.826   7.906  0.2864 -0.1863  0.0214
  124OSM   H14S13186   6.907   4.881   7.874 -0.7004 -0.5048  2.2447
  124OSM   H14T13187   7.072   4.909   7.915  2.1294 -1.5121 -2.2682
  124OSM   C15S13188   6.972   4.763   8.044  0.5104  0.3256 -0.1613
  124OSM   H15S13189   7.065   4.714   8.081  0.8508  0.2832 -1.0793
  124OSM   H15T13190   6.887   4.691   8.047  0.9230 -0.1115  1.4368
  124OSM   C16S13191   6.925   4.874   8.141 -1.2203  0.1444  0.6912
  124OSM   H16S13192   6.857   4.946   8.091 -1.8562 -1.9948 -1.6607
  124OSM   H16T13193   7.018   4.925   8.174  1.0791 -2.8776 -0.7474
  124OSM   C17S13194   6.856   4.820   8.268 -0.0161 -0.1922  0.1020
  124OSM   H17S13195   6.923   4.760   8.332 -0.3280 -0.5435  0.0989
  124OSM   H17T13196   6.784   4.741   8.238  2.1720 -1.3880 -2.2060
  124OSM   C18S13197   6.801   4.934   8.352  0.4206 -0.0614 -0.4102
  124OSM   H18S13198   6.720   4.975   8.287  0.9060 -1.5367 -1.9852
  124OSM   H18T13199   6.871   5.014   8.384  1.7557 -2.3739  2.5894
  124OSM   H18U13200   6.762   4.891   8.447  0.6877  0.2938 -0.1417
  124OSM    C1F13201   6.538   4.648   6.725 -0.5324  0.0455 -0.4144
  124OSM     OF13202   6.444   4.568   6.715 -0.3909  0.1682 -0.5519
  124OSM    C2F13203   6.514   4.782   6.789  0.7030  0.6230 -1.2598
  124OSM    H2F13204   6.407   4.796   6.815  1.0423  1.7807 -0.4157
  124OSM    H2G13205   6.541   4.872   6.730  3.0244  1.0436  0.3445
  124OSM    C3F13206   6.595   4.795   6.924 -0.1774 -0.3302 -0.1629
  124OSM    H3F13207   6.581   4.899   6.958 -2.7845 -0.4482 -0.8223
  124OSM    H3G13208   6.704   4.775   6.911  0.1148 -1.9131  3.8393
  124OSM    C4F13209   6.552   4.701   7.035  0.7379 -0.3519 -0.4475
  124OSM    H4F13210   6.559   4.597   6.998  0.3342  0.2391 -2.2308
  124OSM    H4G13211   6.446   4.715   7.063  1.1930 -0.9062  1.6468
  124OSM    C5F13212   6.638   4.720   7.157 -0.5012 -0.2786 -0.3430
  124OSM    H5F13213   6.605   4.811   7.212 -2.4906 -1.9862  1.3596
  124OSM    H5G13214   6.748   4.715   7.140 -0.6829  0.0641 -1.7505
  124OSM    C6F13215   6.598   4.613   7.255 -0.2317 -0.0405  0.2695
  124OSM    H6F13216   6.638   4.517   7.217 -1.4507 -0.6395  0.4746
  124OSM    H6G13217   6.489   4.596   7.266 -0.1367  0.1482  1.5713
  124OSM    C7F13218   6.659   4.637   7.392 -0.1136  0.4474  0.1443
  124OSM    H7F13219   6.703   4.738   7.400 -1.2105  1.0298 -0.8685
  124OSM    H7G13220   6.735   4.560   7.416 -1.3580 -1.2878 -1.3057
  124OSM    C8F13221   6.552   4.632   7.505 -0.2749 -0.5680  0.3561
  124OSM    H8F13222   6.500   4.534   7.504 -1.0357 -0.1714 -2.1355
  124OSM    H8G13223   6.474   4.708   7.481 -2.8633 -3.3297 -0.1950
  124OSM    C9F13224   6.626   4.652   7.637  0.7529 -0.1502  0.1786
  124OSM    H9F13225   6.734   4.634   7.634  0.7372 -0.7358  2.6882
  124OSM   C10F13226   6.568   4.707   7.744 -0.1664 -0.2554  1.1687
  124OSM   H10F13227   6.623   4.709   7.840  1.0645  3.3838  0.4611
  124OSM   C11F13228   6.420   4.737   7.756  0.1473  0.2768  0.1497
  124OSM   H11F13229   6.383   4.705   7.856  2.4329  1.9477  1.5842
  124OSM   H11G13230   6.366   4.686   7.673  0.3849  0.8975 -0.3890
  124OSM   C12F13231   6.389   4.886   7.750  0.6775 -0.1027  0.2308
  124OSM   H12F13232   6.284   4.897   7.716  0.2159  0.1024  1.7206
  124OSM   H12G13233   6.452   4.922   7.666  0.2840  1.2964  0.5261
  124OSM   C13F13234   6.431   4.972   7.874 -0.1049 -0.6403  0.2282
  124OSM   H13F13235   6.418   5.078   7.846  0.2036 -0.9101 -0.9906
  124OSM   H13G13236   6.537   4.953   7.903  0.4079  1.0783 -0.4627
  124OSM   C14F13237   6.347   4.954   8.002 -0.0116  0.6019 -1.0056
  124OSM   H14F13238   6.302   4.853   8.003  0.4774  0.3876  1.7499
  124OSM   H14G13239   6.259   5.019   7.984 -0.5353  0.3826  0.7666
  124OSM   C15F13240   6.426   4.949   8.135  0.1865  0.4429 -0.0677
  124OSM   H15F13241   6.515   5.014   8.121  0.0238  0.4988 -0.8955
  124OSM   H15G13242   6.459   4.845   8.156  0.7619  0.9711  1.7367
  124OSM   C16F13243   6.340   4.999   8.254  0.2320 -0.8791 -0.4462
  124OSM   H16F13244   6.296   5.098   8.229  0.1097 -0.6897  0.4993
  124OSM   H16G13245   6.407   5.009   8.342  0.3887 -2.4603 -0.3607
  124OSM   C17F13246   6.220   4.901   8.284  0.1370  0.1496  0.0310
  124OSM   H17F13247   6.261   4.808   8.328 -3.5470 -1.6841 -0.2175
  124OSM   H17G13248   6.172   4.869   8.189  0.2726  0.2006 -0.0554
  124OSM   C18F13249   6.120   4.963   8.379 -0.2619  0.0387  0.1308
  124OSM   H18F13250   6.038   4.892   8.401 -0.8096 -0.2355 -2.5968
  124OSM   H18G13251   6.078   5.049   8.324  0.3447  0.7710  0.7988
  124OSM   H18H13252   6.162   4.992   8.477 -1.5914 -0.9713  1.0250
  125OSM      N13253   2.820   4.291   6.115  0.4310  0.6229  0.2780
  125OSM    C1513254   2.726   4.237   6.019 -0.2273 -0.4686  0.1659
  125OSM   H15A13255   2.638   4.213   6.077 -1.0477  1.2697 -0.3208
  125OSM   H15B13256   2.753   4.143   5.972 -1.4878 -0.8162  0.1311
  125OSM   H15C13257   2.706   4.309   5.941 -0.0889 -1.0381 -0.4024
  125OSM    C1413258   2.928   4.362   6.041 -0.6482 -0.2234  0.8928
  125OSM   H14A13259   2.886   4.440   5.980  0.0182  0.5172  1.3691
  125OSM   H14B13260   2.982   4.297   5.973  2.7718  2.7972  0.6125
  125OSM   H14C13261   2.992   4.418   6.107 -0.7423  1.5807 -0.5125
  125OSM    C1313262   2.752   4.394   6.194 -0.1833 -1.3213 -0.3137
  125OSM   H13A13263   2.735   4.473   6.123  1.8996 -2.2564 -1.9153
  125OSM   H13B13264   2.808   4.430   6.280 -0.8055  1.0817 -0.8978
  125OSM   H13C13265   2.661   4.363   6.243  0.4164 -1.6399  0.6237
  125OSM    C1213266   2.871   4.180   6.207 -0.3165 -0.4840 -0.8465
  125OSM   H12A13267   2.784   4.138   6.256 -1.5202  3.0230  0.2374
  125OSM   H12B13268   2.940   4.216   6.281 -2.2748 -0.1763  0.8732
  125OSM    C1113269   2.941   4.066   6.131 -0.1683  0.8274  0.3894
  125OSM   H11A13270   2.998   4.003   6.203 -0.7054 -1.1422 -0.8788
  125OSM   H11B13271   3.030   4.110   6.081  0.6453 -0.5774  0.5833
  125OSM      P13272   2.778   3.862   6.112 -0.0619 -0.0553  0.5223
  125OSM    O1313273   2.635   3.870   6.077  0.1334  0.4401  0.5791
  125OSM    O1413274   2.842   3.732   6.072 -0.1272  0.0889 -0.4471
  125OSM    O1113275   2.790   3.895   6.263  0.3089 -0.2182 -0.4434
  125OSM    O1213276   2.857   3.983   6.055 -0.1897 -0.2299  0.2941
  125OSM    C1S13277   2.798   3.785   6.355 -0.0593  0.1143  0.1184
  125OSM    H1S13278   2.906   3.771   6.377  0.0116  1.1864  0.5179
  125OSM    H1T13279   2.753   3.691   6.316 -1.2659  1.4446 -1.8292
  125OSM     NF13280   2.731   3.708   6.586 -0.1572 -0.3330 -0.0506
  125OSM    HNF13281   2.645   3.659   6.601  0.0550 -0.9143 -0.7067
  125OSM    C2S13282   2.721   3.817   6.484  0.1300 -0.0582 -0.2161
  125OSM    H2S13283   2.761   3.916   6.515  2.5846 -0.3603 -2.2408
  125OSM    C3S13284   2.575   3.851   6.444 -0.1810  0.3145 -0.3739
  125OSM    H3S13285   2.545   3.759   6.389  0.3157  0.1173 -0.3161
  125OSM     O313286   2.562   3.971   6.360 -0.1921 -0.3027 -0.2092
  125OSM    HO313287   2.650   4.006   6.346 -0.5237  0.3145 -0.7851
  125OSM    C4S13288   2.479   3.852   6.551  0.8184 -0.8823 -0.4764
  125OSM    H4S13289   2.395   3.783   6.536  0.5571 -0.0795 -2.8959
  125OSM    C5S13290   2.482   3.943   6.649  0.1799 -0.8068  0.0465
  125OSM    H5S13291   2.552   4.028   6.643 -1.6084  0.7538  0.6428
  125OSM    C6S13292   2.377   3.953   6.756 -0.2624 -0.1000 -0.0938
  125OSM    H6S13293   2.297   3.882   6.724 -1.1382  1.3510 -1.1924
  125OSM    H6T13294   2.336   4.056   6.751  0.6775  0.2490 -0.8619
  125OSM    C7S13295   2.433   3.925   6.895 -0.3153 -0.5974 -0.8551
  125OSM    H7S13296   2.505   4.006   6.920  0.1222 -1.3928  0.4731
  125OSM    H7T13297   2.489   3.829   6.901 -3.1425 -2.2097  0.9287
  125OSM    C8S13298   2.321   3.919   6.999 -0.1829 -0.0542 -0.1341
  125OSM    H8S13299   2.263   3.825   6.985 -1.4347  0.6412  0.3048
  125OSM    H8T13300   2.257   4.009   6.987  2.7236  2.2246  0.9258
  125OSM    C9S13301   2.386   3.921   7.142 -0.0631  0.5197  0.1242
  125OSM    H9S13302   2.392   4.027   7.172 -2.1308  0.3754  1.0612
  125OSM    H9T13303   2.487   3.876   7.129  0.3158  0.5595  2.6869
  125OSM   C10S13304   2.304   3.848   7.250  0.9268  0.1448 -0.7227
  125OSM   H10S13305   2.308   3.739   7.228  0.4522 -0.0821  0.2513
  125OSM   H10T13306   2.196   3.872   7.242  0.6031 -0.2485  1.7817
  125OSM   C11S13307   2.360   3.856   7.392  0.4367 -0.0918 -0.8565
  125OSM   H11S13308   2.384   3.963   7.410 -3.3157  0.4121  1.8971
  125OSM   H11T13309   2.463   3.816   7.400  0.2348 -0.9946 -2.4425
  125OSM   C12S13310   2.268   3.800   7.500 -0.3142  0.3702  0.1757
  125OSM   H12S13311   2.244   3.694   7.476  2.1104 -0.7975  2.6858
  125OSM   H12T13312   2.168   3.848   7.499 -1.5248 -2.0754 -0.8226
  125OSM   C13S13313   2.329   3.800   7.645 -0.5568 -0.0394 -0.3974
  125OSM   H13S13314   2.382   3.897   7.653  2.0581 -1.4618 -0.1411
  125OSM   H13T13315   2.421   3.738   7.655  0.6466  2.0762  2.3201
  125OSM   C14S13316   2.241   3.786   7.763 -0.1162 -0.5381 -1.0425
  125OSM   H14S13317   2.166   3.868   7.761 -0.7352 -1.1197 -2.3869
  125OSM   H14T13318   2.295   3.808   7.858 -2.8247  1.2096  0.1662
  125OSM   C15S13319   2.163   3.655   7.774  0.0475  0.4587 -0.2787
  125OSM   H15S13320   2.243   3.579   7.774  1.1571  1.6099  0.6935
  125OSM   H15T13321   2.098   3.640   7.685 -0.9756  0.5999  0.4319
  125OSM   C16S13322   2.088   3.660   7.897  0.5209  0.0345  0.5039
  125OSM   H16S13323   1.991   3.711   7.878  1.5495  1.7158 -0.3736
  125OSM   H16T13324   2.143   3.720   7.972 -0.2398  0.9093  0.3799
  125OSM   C17S13325   2.052   3.517   7.944 -0.5449  0.1775  0.5115
  125OSM   H17S13326   2.149   3.470   7.972  0.1580  1.9499  1.1220
  125OSM   H17T13327   2.005   3.464   7.859 -2.8199  0.4838  1.5462
  125OSM   C18S13328   1.966   3.520   8.070  0.3272  0.3985  0.0690
  125OSM   H18S13329   1.879   3.589   8.071  0.0352  0.0695 -1.1700
  125OSM   H18T13330   2.023   3.552   8.159 -0.5869 -0.1318  0.8547
  125OSM   H18U13331   1.923   3.419   8.090 -2.2291  1.7726  1.7337
  125OSM    C1F13332   2.850   3.677   6.648  0.2639 -0.1711  0.5606
  125OSM     OF13333   2.960   3.725   6.614  0.0553  0.2779 -0.4164
  125OSM    C2F13334   2.845   3.574   6.769  0.4392 -0.3511  0.5687
  125OSM    H2F13335   2.803   3.480   6.726 -0.2993  0.3969 -0.3776
  125OSM    H2G13336   2.775   3.622   6.842  0.2800 -1.2967  1.0469
  125OSM    C3F13337   2.984   3.539   6.830 -0.0674  0.2344 -0.7515
  125OSM    H3F13338   3.048   3.630   6.835  1.2242 -0.6669 -0.5203
  125OSM    H3G13339   3.026   3.467   6.756  2.1954 -0.0065  0.7057
  125OSM    C4F13340   2.981   3.477   6.964 -0.5117 -0.4683  0.2051
  125OSM    H4F13341   2.930   3.543   7.038  1.1877  1.3341 -0.1841
  125OSM    H4G13342   3.088   3.463   6.988 -0.3623 -1.7497 -1.1570
  125OSM    C5F13343   2.913   3.338   6.978  0.5187  0.6035  0.9919
  125OSM    H5F13344   2.975   3.263   6.925 -2.0893  0.5184 -2.0651
  125OSM    H5G13345   2.812   3.340   6.931  0.4833  1.0858  1.0812
  125OSM    C6F13346   2.907   3.288   7.125  0.4719  0.1607  0.5108
  125OSM    H6F13347   2.844   3.358   7.182 -0.3114  0.7687 -1.0870
  125OSM    H6G13348   3.007   3.307   7.170  1.6131 -1.8494 -1.0835
  125OSM    C7F13349   2.870   3.144   7.132  0.0538  1.0075  0.5966
  125OSM    H7F13350   2.927   3.100   7.048 -1.0586 -0.9772  0.8543
  125OSM    H7G13351   2.762   3.125   7.114  0.6806 -0.3587 -1.8396
  125OSM    C8F13352   2.906   3.072   7.263 -0.0216 -0.1692  0.3015
  125OSM    H8F13353   3.016   3.092   7.262 -0.2497  1.1463  0.3122
  125OSM    H8G13354   2.883   2.964   7.250 -0.4944 -0.4172  3.0316
  125OSM    C9F13355   2.841   3.144   7.378 -0.2070 -0.3083 -0.0298
  125OSM    H9F13356   2.858   3.251   7.399 -1.1237 -0.3321  0.8636
  125OSM   C10F13357   2.773   3.080   7.475 -0.3290  0.3151  0.3667
  125OSM   H10F13358   2.735   3.139   7.560 -1.6900  0.0622 -0.0551
  125OSM   C11F13359   2.744   2.934   7.494 -0.1163  0.2612 -0.0575
  125OSM   H11F13360   2.833   2.876   7.525  1.3654  1.5958 -1.7027
  125OSM   H11G13361   2.708   2.893   7.397  0.9868  0.6139 -0.6300
  125OSM   C12F13362   2.621   2.910   7.578  0.0911  0.0471  0.2111
  125OSM   H12F13363   2.596   2.802   7.576  0.3729 -0.0092 -2.5896
  125OSM   H12G13364   2.529   2.954   7.535 -0.6754 -0.5357  1.2334
  125OSM   C13F13365   2.631   2.954   7.724 -0.2432 -0.3626  0.1461
  125OSM   H13F13366   2.533   2.984   7.767  0.1438 -0.0873  0.8416
  125OSM   H13G13367   2.690   3.048   7.734 -1.3295  0.1367  2.1727
  125OSM   C14F13368   2.720   2.862   7.811  0.7971 -0.5889 -0.0346
  125OSM   H14F13369   2.825   2.864   7.775  0.3675 -0.3891 -1.3145
  125OSM   H14G13370   2.680   2.759   7.822  1.7044 -1.0999 -1.3691
  125OSM   C15F13371   2.711   2.918   7.952 -0.1881 -0.0341  0.6161
  125OSM   H15F13372   2.603   2.919   7.978 -0.5214 -0.2300 -0.6867
  125OSM   H15G13373   2.750   3.022   7.944  1.8471 -0.9552 -2.0261
  125OSM   C16F13374   2.812   2.861   8.057 -0.0438  0.0837  0.2169
  125OSM   H16F13375   2.812   2.914   8.154 -1.4775  0.8541 -0.1884
  125OSM   H16G13376   2.914   2.868   8.014 -0.6287  1.6472 -0.9742
  125OSM   C17F13377   2.792   2.709   8.098  0.1107 -0.0393 -0.5186
  125OSM   H17F13378   2.873   2.680   8.168  0.5081 -1.6622 -1.6349
  125OSM   H17G13379   2.808   2.641   8.012  2.5647  1.4185 -1.2392
  125OSM   C18F13380   2.664   2.686   8.169  0.2257  0.3175 -0.0175
  125OSM   H18F13381   2.581   2.746   8.125  0.8510  0.6708 -0.7269
  125OSM   H18G13382   2.663   2.724   8.273 -0.1415  2.4999 -0.7952
  125OSM   H18H13383   2.638   2.578   8.180 -2.1217  0.9816  1.4323
  126OSM      N13384   0.119   1.304   6.545  0.3119 -0.0659  0.6007
  126OSM    C1513385   0.192   1.214   6.637  0.1978  0.4678  0.0445
  126OSM   H15A13386   0.245   1.138   6.581  1.0896  2.0964 -1.3727
  126OSM   H15B13387   0.125   1.167   6.708  1.6155  0.8723  1.6951
  126OSM   H15C13388   0.262   1.262   6.704  0.2960  0.7789 -0.2800
  126OSM    C1413389   0.213   1.369   6.450 -0.4081 -0.1180  0.1422
  126OSM   H14A13390   0.263   1.297   6.387 -2.4192 -0.9220 -0.5615
  126OSM   H14B13391   0.274   1.433   6.513 -1.5587  0.4545  0.6925
  126OSM   H14C13392   0.165   1.439   6.383 -1.3307 -0.1605  0.7486
  126OSM    C1313393   0.032   1.223   6.455  0.2058 -0.7478  0.3462
  126OSM   H13A13394  -0.018   1.284   6.381  1.1333  0.1762  0.4686
  126OSM   H13B13395  -0.042   1.169   6.511 -1.2281  1.8224  0.9993
  126OSM   H13C13396   0.091   1.156   6.393  1.6997  0.0973  0.8419
  126OSM    C1213397   0.038   1.407   6.616 -0.5905 -0.4230 -0.0907
  126OSM   H12A13398  -0.028   1.459   6.549  1.7642  3.1830  0.2975
  126OSM   H12B13399   0.106   1.477   6.661  3.4166 -2.2341 -3.0820
  126OSM    C1113400  -0.060   1.355   6.724 -0.4655  0.0667  0.0556
  126OSM   H11A13401  -0.096   1.443   6.783  0.4637  0.0476  0.6566
  126OSM   H11B13402  -0.011   1.300   6.807 -3.4875 -0.1546  1.7872
  126OSM      P13403  -0.272   1.343   6.581  0.3219 -0.4239  0.1660
  126OSM    O1313404  -0.231   1.479   6.540  0.0926  0.4791  0.4111
  126OSM    O1413405  -0.309   1.239   6.480 -0.0140 -0.0338 -0.1738
  126OSM    O1113406  -0.404   1.354   6.673 -0.4131 -0.3374  0.2032
  126OSM    O1213407  -0.166   1.281   6.671  0.2719  0.6571 -0.3565
  126OSM    C1S13408  -0.449   1.251   6.756  0.0868 -0.6234 -0.4672
  126OSM    H1S13409  -0.408   1.153   6.723  0.9505  0.2908 -2.1758
  126OSM    H1T13410  -0.560   1.255   6.751  0.0784  1.0528  0.7689
  126OSM     NF13411  -0.456   1.182   6.990  0.3421  0.1518 -0.4688
  126OSM    HNF13412  -0.547   1.187   7.031  0.4904  1.8316 -0.3319
  126OSM    C2S13413  -0.413   1.287   6.907  0.1962  0.5911 -0.5047
  126OSM    H2S13414  -0.302   1.284   6.910  0.2681 -0.0469 -2.8104
  126OSM    C3S13415  -0.465   1.425   6.958 -0.5537 -0.0713  0.3896
  126OSM    H3S13416  -0.576   1.418   6.951 -0.7058  0.2366  2.2633
  126OSM     O313417  -0.432   1.542   6.872  0.5570 -0.7009  0.0866
  126OSM    HO313418  -0.403   1.497   6.792 -0.7290 -1.9628  0.2973
  126OSM    C4S13419  -0.430   1.452   7.097 -0.3775  0.2385  0.3419
  126OSM    H4S13420  -0.495   1.398   7.168  0.4841 -1.2834  0.0122
  126OSM    C5S13421  -0.314   1.522   7.134  0.1513  0.1412  0.1360
  126OSM    H5S13422  -0.248   1.565   7.058  1.7727 -0.7606  1.0139
  126OSM    C6S13423  -0.264   1.564   7.275  0.4253 -0.2876  0.1595
  126OSM    H6S13424  -0.244   1.673   7.275  2.2713 -0.6159 -0.6824
  126OSM    H6T13425  -0.178   1.505   7.313  0.0486 -3.3424 -3.4916
  126OSM    C7S13426  -0.373   1.552   7.389 -0.4727  0.1250  0.4532
  126OSM    H7S13427  -0.399   1.444   7.391  1.6372 -0.4182 -0.3206
  126OSM    H7T13428  -0.471   1.596   7.363 -0.4172 -1.3205 -2.4211
  126OSM    C8S13429  -0.313   1.596   7.523 -0.1188 -0.3037  0.1959
  126OSM    H8S13430  -0.207   1.565   7.530  1.5279  4.6164 -1.1237
  126OSM    H8T13431  -0.364   1.541   7.605 -0.4903 -0.0522  0.1360
  126OSM    C9S13432  -0.317   1.748   7.546 -0.2231  0.1336 -0.6846
  126OSM    H9S13433  -0.419   1.789   7.563 -0.1127  0.8714 -1.7056
  126OSM    H9T13434  -0.274   1.811   7.464  2.2768  1.1966  1.3680
  126OSM   C10S13435  -0.243   1.780   7.676 -0.7110 -0.3834 -0.6595
  126OSM   H10S13436  -0.222   1.887   7.696  0.6937 -1.0559  1.6561
  126OSM   H10T13437  -0.139   1.738   7.671 -0.1752  1.1094 -2.7161
  126OSM   C11S13438  -0.324   1.747   7.804  1.4898  0.4912 -0.5895
  126OSM   H11S13439  -0.321   1.640   7.834 -0.6379  0.5807 -0.0244
  126OSM   H11T13440  -0.431   1.769   7.786  0.8197 -1.9645  0.1395
  126OSM   C12S13441  -0.288   1.824   7.928  0.2055  0.4900  0.0971
  126OSM   H12S13442  -0.293   1.935   7.919  0.5207  0.5572  0.7331
  126OSM   H12T13443  -0.189   1.792   7.965 -0.7038 -0.9710  1.2724
  126OSM   C13S13444  -0.387   1.800   8.040 -0.1483  0.3511  0.7184
  126OSM   H13S13445  -0.404   1.691   8.055  2.2937  0.1052  1.8236
  126OSM   H13T13446  -0.477   1.865   8.031  0.3148  1.3118  2.7775
  126OSM   C14S13447  -0.322   1.832   8.178 -0.6928 -0.7749  0.1697
  126OSM   H14S13448  -0.280   1.935   8.170  0.7740 -1.3521  0.4285
  126OSM   H14T13449  -0.245   1.756   8.200 -1.0103 -0.9043  0.8249
  126OSM   C15S13450  -0.416   1.831   8.298  0.5191  0.0466  0.2545
  126OSM   H15S13451  -0.460   1.729   8.297  0.2449  0.1617 -1.3213
  126OSM   H15T13452  -0.506   1.894   8.280 -2.1900 -3.0505  2.3007
  126OSM   C16S13453  -0.356   1.866   8.433  0.3430 -0.9565 -0.7485
  126OSM   H16S13454  -0.320   1.971   8.435  1.6616 -1.3851  3.8173
  126OSM   H16T13455  -0.275   1.803   8.475  0.5852  0.2956  0.7045
  126OSM   C17S13456  -0.463   1.872   8.555  0.2344  0.3609 -0.5522
  126OSM   H17S13457  -0.505   1.771   8.568 -2.2949  1.1433 -2.3379
  126OSM   H17T13458  -0.549   1.938   8.529 -0.8655 -1.6500 -2.1412
  126OSM   C18S13459  -0.392   1.930   8.688  0.1899 -0.7930 -0.2909
  126OSM   H18S13460  -0.301   1.872   8.715  1.2612  0.5846 -0.8584
  126OSM   H18T13461  -0.467   1.935   8.769 -2.0242  0.7194 -2.3442
  126OSM   H18U13462  -0.355   2.034   8.674  1.5080 -0.8692  2.2513
  126OSM    C1F13463  -0.411   1.056   6.986 -0.6475  0.8919  0.1303
  126OSM     OF13464  -0.302   1.027   6.939  0.1417 -0.6601  0.4779
  126OSM    C2F13465  -0.491   0.945   7.049 -0.8015 -0.6761 -0.3284
  126OSM    H2F13466  -0.513   0.870   6.970 -2.0436  0.6081 -1.2413
  126OSM    H2G13467  -0.584   0.986   7.093 -0.3584  0.3304 -0.3187
  126OSM    C3F13468  -0.409   0.879   7.169  0.2495  0.2987 -0.2857
  126OSM    H3F13469  -0.362   0.956   7.234  1.8857  1.1953 -2.4738
  126OSM    H3G13470  -0.329   0.817   7.123 -0.2282 -0.2401 -0.3921
  126OSM    C4F13471  -0.501   0.788   7.250  0.4157 -0.4965  0.2465
  126OSM    H4F13472  -0.447   0.692   7.264  0.5202 -0.7395 -1.6288
  126OSM    H4G13473  -0.599   0.766   7.203 -0.1262 -0.4524  1.3309
  126OSM    C5F13474  -0.524   0.836   7.396  0.0274  0.3349 -0.3373
  126OSM    H5F13475  -0.596   0.921   7.402 -0.4348 -0.2530  3.4538
  126OSM    H5G13476  -0.427   0.870   7.438  0.6797 -1.1198 -0.6322
  126OSM    C6F13477  -0.578   0.724   7.488 -0.8065  0.2993  0.2164
  126OSM    H6F13478  -0.517   0.630   7.490 -2.8626 -1.0873 -0.4637
  126OSM    H6G13479  -0.673   0.696   7.437  0.2567 -0.1965 -1.5360
  126OSM    C7F13480  -0.592   0.779   7.629 -0.3589 -0.8580  0.5873
  126OSM    H7F13481  -0.650   0.709   7.692 -0.1732 -0.3677  1.3080
  126OSM    H7G13482  -0.646   0.874   7.609 -0.9850 -1.5548 -1.1535
  126OSM    C8F13483  -0.458   0.806   7.708  0.3282 -0.7854  0.1191
  126OSM    H8F13484  -0.377   0.856   7.650 -0.3549 -1.9371 -1.8734
  126OSM    H8G13485  -0.423   0.704   7.735  4.4405  0.0692 -1.5480
  126OSM    C9F13486  -0.486   0.901   7.822 -0.3688  0.7155 -0.3432
  126OSM    H9F13487  -0.520   1.000   7.787  1.0206  0.8807 -1.2385
  126OSM   C10F13488  -0.484   0.872   7.957 -0.3147  0.0874 -0.5177
  126OSM   H10F13489  -0.521   0.951   8.024  1.0169  1.0301 -0.8606
  126OSM   C11F13490  -0.444   0.749   8.029  0.3245  0.6101 -0.2226
  126OSM   H11F13491  -0.396   0.673   7.963 -0.7092  0.2843 -0.6204
  126OSM   H11G13492  -0.536   0.700   8.068 -1.0848  3.3028 -0.0772
  126OSM   C12F13493  -0.353   0.758   8.153  0.1286 -0.9728 -0.4391
  126OSM   H12F13494  -0.251   0.788   8.120 -0.1723 -0.5929 -1.0183
  126OSM   H12G13495  -0.342   0.657   8.200 -1.1613 -0.9898 -0.1672
  126OSM   C13F13496  -0.399   0.864   8.263 -0.0622  0.8999  0.0962
  126OSM   H13F13497  -0.508   0.848   8.275  0.0467  0.5747  0.6694
  126OSM   H13G13498  -0.382   0.965   8.220 -3.2814  1.7884  0.8417
  126OSM   C14F13499  -0.311   0.862   8.386 -0.4675  0.3099 -0.0913
  126OSM   H14F13500  -0.342   0.958   8.433  0.3128  0.1224  0.8214
  126OSM   H14G13501  -0.203   0.871   8.364 -0.0038 -0.2688  1.8528
  126OSM   C15F13502  -0.339   0.749   8.484 -0.6422 -0.7027 -0.8638
  126OSM   H15F13503  -0.243   0.698   8.504 -0.0763  0.3555 -0.8355
  126OSM   H15G13504  -0.407   0.680   8.430  0.0383 -0.5669 -1.8980
  126OSM   C16F13505  -0.406   0.785   8.619 -0.1774  0.2135 -0.7623
  126OSM   H16F13506  -0.427   0.685   8.662  0.0806  0.6371  0.3751
  126OSM   H16G13507  -0.500   0.838   8.593 -0.5561 -1.5877 -3.3197
  126OSM   C17F13508  -0.331   0.870   8.720 -0.4423 -0.7484 -0.3520
  126OSM   H17F13509  -0.388   0.859   8.815  0.3562 -1.9979  0.0068
  126OSM   H17G13510  -0.319   0.974   8.683  1.5702 -1.3368 -1.4143
  126OSM   C18F13511  -0.190   0.819   8.738  0.0141  0.3972  0.3136
  126OSM   H18F13512  -0.191   0.712   8.765 -2.1209  0.7199  1.6209
  126OSM   H18G13513  -0.139   0.881   8.814  0.4716  1.0656 -0.5269
  126OSM   H18H13514  -0.126   0.837   8.648  0.4898  1.5922  0.8832
  127OSM      N13515   4.333   2.682   6.139 -0.4302  0.2279  0.8098
  127OSM    C1513516   4.258   2.560   6.086  0.0709  0.3635  0.3995
  127OSM   H15A13517   4.151   2.578   6.092  0.1212  0.6746  0.3478
  127OSM   H15B13518   4.284   2.468   6.136 -0.0036  0.2679  0.2654
  127OSM   H15C13519   4.291   2.545   5.984 -0.4678 -0.8272  0.3916
  127OSM    C1413520   4.484   2.653   6.120  0.2336  0.5346  0.3525
  127OSM   H14A13521   4.508   2.559   6.167 -1.0152  0.1914  0.3161
  127OSM   H14B13522   4.544   2.738   6.147  0.9016  0.8590 -2.0348
  127OSM   H14C13523   4.508   2.648   6.015 -2.3045  1.2701 -0.3054
  127OSM    C1313524   4.286   2.808   6.067 -0.2466 -0.4917 -0.9127
  127OSM   H13A13525   4.178   2.818   6.061 -0.1059  1.5698 -0.3679
  127OSM   H13B13526   4.321   2.816   5.966 -0.2071  2.9134 -0.6707
  127OSM   H13C13527   4.317   2.898   6.118 -1.9932 -0.6036  0.4259
  127OSM    C1213528   4.303   2.696   6.286  0.2078 -0.0278  0.0834
  127OSM   H12A13529   4.350   2.786   6.323  1.6708 -0.8965  0.3624
  127OSM   H12B13530   4.344   2.612   6.341 -0.5234  0.1528  0.9323
  127OSM    C1113531   4.156   2.726   6.339 -0.7004  0.3473  0.2944
  127OSM   H11A13532   4.104   2.803   6.278 -0.0372 -0.0187 -0.7441
  127OSM   H11B13533   4.153   2.761   6.444 -1.7907  1.2130 -0.0238
  127OSM      P13534   3.939   2.568   6.374  0.1241 -0.3757  0.0335
  127OSM    O1313535   3.862   2.684   6.329 -0.2861  0.1845  0.0511
  127OSM    O1413536   3.895   2.430   6.336 -0.5848  0.3108  0.4875
  127OSM    O1113537   3.944   2.572   6.529  0.0877  0.2811  0.0486
  127OSM    O1213538   4.091   2.597   6.332 -0.1393 -0.6998  0.1846
  127OSM    C1S13539   3.994   2.471   6.617 -0.2592 -0.6275 -0.0675
  127OSM    H1S13540   4.067   2.409   6.561 -0.0383  0.0375 -0.5226
  127OSM    H1T13541   3.907   2.419   6.663 -0.2557  0.7854  1.5755
  127OSM     NF13542   4.146   2.424   6.811 -0.8282  0.1096  0.5788
  127OSM    HNF13543   4.086   2.383   6.880 -3.2279 -0.8379 -1.9736
  127OSM    C2S13544   4.072   2.531   6.736  0.1696 -0.2478  0.1069
  127OSM    H2S13545   4.145   2.597   6.685 -0.9337  1.1926  0.3511
  127OSM    C3S13546   3.992   2.618   6.821 -0.1806 -0.5803 -0.4531
  127OSM    H3S13547   3.894   2.569   6.839  0.2290 -0.2984  2.7981
  127OSM     O313548   3.948   2.739   6.761 -0.1523  0.1164  0.4563
  127OSM    HO313549   3.969   2.723   6.668  1.7200  0.5472  0.7842
  127OSM    C4S13550   4.077   2.650   6.942  0.0240 -0.4654  0.3273
  127OSM    H4S13551   4.173   2.694   6.911  0.1083 -0.1467  1.0299
  127OSM    C5S13552   4.031   2.656   7.070 -0.6454  0.2030 -0.1550
  127OSM    H5S13553   3.925   2.637   7.096 -0.0037  2.2791  4.3231
  127OSM    C6S13554   4.119   2.696   7.190 -0.2612 -0.4235  1.1761
  127OSM    H6S13555   4.088   2.795   7.229 -0.1385 -0.7511  2.1098
  127OSM    H6T13556   4.225   2.707   7.157 -0.8060  0.6710 -0.2651
  127OSM    C7S13557   4.110   2.585   7.293  0.3184 -0.0885  0.1001
  127OSM    H7S13558   4.156   2.494   7.247  1.3243  1.6891 -2.4894
  127OSM    H7T13559   4.002   2.562   7.303  0.3824 -0.0241  1.0622
  127OSM    C8S13560   4.178   2.619   7.421  0.2212 -0.5140  0.3422
  127OSM    H8S13561   4.184   2.525   7.479  0.0798 -1.4117 -1.0578
  127OSM    H8T13562   4.121   2.694   7.480 -2.3656 -1.2711 -1.0771
  127OSM    C9S13563   4.309   2.694   7.401 -0.5852 -0.1764 -0.1693
  127OSM    H9S13564   4.309   2.798   7.361 -1.3324 -0.0706  0.0849
  127OSM    H9T13565   4.374   2.626   7.343  0.9832  0.1455  1.1746
  127OSM   C10S13566   4.382   2.700   7.535  0.2456  0.3798  0.0786
  127OSM   H10S13567   4.396   2.595   7.568  0.2196 -0.7429 -3.2779
  127OSM   H10T13568   4.321   2.744   7.617 -2.5244 -0.6500 -1.3494
  127OSM   C11S13569   4.522   2.767   7.508 -0.1870 -0.1535  0.4022
  127OSM   H11S13570   4.493   2.870   7.477  3.2262  0.2648 -1.7337
  127OSM   H11T13571   4.561   2.719   7.416  0.3154 -2.1723  1.6529
  127OSM   C12S13572   4.624   2.742   7.619  0.8270  1.2979  0.1259
  127OSM   H12S13573   4.721   2.750   7.566  0.2967 -1.2338 -1.3113
  127OSM   H12T13574   4.613   2.638   7.657  1.8811  0.7546 -1.0174
  127OSM   C13S13575   4.620   2.846   7.729  0.0133 -0.1008 -0.3024
  127OSM   H13S13576   4.519   2.834   7.773 -0.6649  1.1117 -1.4846
  127OSM   H13T13577   4.638   2.949   7.691  0.3131  0.2001  0.6406
  127OSM   C14S13578   4.733   2.826   7.839 -0.3853  0.3421 -0.5139
  127OSM   H14S13579   4.724   2.902   7.920  1.0610  0.5698 -0.5643
  127OSM   H14T13580   4.827   2.841   7.782  0.2624 -1.4410  0.0419
  127OSM   C15S13581   4.717   2.690   7.899 -0.0173 -0.4052  0.2145
  127OSM   H15S13582   4.737   2.605   7.829  0.6157  1.2564 -1.6716
  127OSM   H15T13583   4.611   2.671   7.926  0.0428  0.0115  0.7305
  127OSM   C16S13584   4.796   2.669   8.025 -0.5710  0.4221  0.1355
  127OSM   H16S13585   4.767   2.574   8.074  2.0137 -1.5912 -2.0925
  127OSM   H16T13586   4.769   2.760   8.082 -2.1954  0.3858 -0.5380
  127OSM   C17S13587   4.953   2.682   8.010 -0.3927 -0.7756 -0.0750
  127OSM   H17S13588   4.973   2.784   7.971 -0.0231 -1.3689 -1.4931
  127OSM   H17T13589   4.993   2.604   7.941 -1.2047 -1.5730  0.3466
  127OSM   C18S13590   5.033   2.686   8.152 -0.0295 -0.1115  0.0474
  127OSM   H18S13591   4.998   2.781   8.198 -4.3071 -1.9327  0.8037
  127OSM   H18T13592   5.141   2.704   8.135  0.6829 -4.2306 -0.2614
  127OSM   H18U13593   5.015   2.602   8.222  0.2219  0.8110  1.2405
  127OSM    C1F13594   4.249   2.360   6.763  0.1060  0.3892 -0.1634
  127OSM     OF13595   4.321   2.405   6.684 -0.6653 -0.0065 -0.5441
  127OSM    C2F13596   4.259   2.222   6.817 -0.2171 -0.0400 -0.1329
  127OSM    H2F13597   4.306   2.156   6.741 -0.9533  2.6352 -2.9566
  127OSM    H2G13598   4.158   2.179   6.830 -0.5253  0.9017  0.6024
  127OSM    C3F13599   4.349   2.213   6.941  1.2032  0.0656 -0.6814
  127OSM    H3F13600   4.452   2.251   6.926  1.3514  0.4196  1.1184
  127OSM    H3G13601   4.361   2.104   6.961 -1.2217 -0.6390 -2.7154
  127OSM    C4F13602   4.301   2.282   7.074 -0.2954  0.9131 -0.4266
  127OSM    H4F13603   4.198   2.257   7.106  0.1359  1.5789  1.5113
  127OSM    H4G13604   4.305   2.393   7.061  0.8606  0.8740 -0.4439
  127OSM    C5F13605   4.389   2.232   7.185  0.1193 -0.0690  0.3572
  127OSM    H5F13606   4.494   2.259   7.160  0.3599 -0.3324  1.0679
  127OSM    H5G13607   4.365   2.124   7.197  1.5217 -0.4691 -0.2752
  127OSM    C6F13608   4.359   2.304   7.314  0.4114 -0.3870 -1.0551
  127OSM    H6F13609   4.250   2.299   7.335  0.8028 -2.6783  0.6096
  127OSM    H6G13610   4.395   2.408   7.298 -0.4025 -0.0324 -0.6248
  127OSM    C7F13611   4.416   2.244   7.443 -0.3438  0.0918  0.0711
  127OSM    H7F13612   4.358   2.150   7.456  1.5641 -1.3348 -1.3804
  127OSM    H7G13613   4.388   2.315   7.525 -0.1656 -1.1059  1.1917
  127OSM    C8F13614   4.568   2.219   7.445  0.4247  0.3774  0.4564
  127OSM    H8F13615   4.618   2.317   7.436  2.1239 -0.6817 -2.1241
  127OSM    H8G13616   4.604   2.167   7.353 -0.8485  3.0365 -1.5901
  127OSM    C9F13617   4.613   2.152   7.575  0.1062 -0.1053 -0.6353
  127OSM    H9F13618   4.633   2.044   7.567 -0.3010 -0.2060 -0.2940
  127OSM   C10F13619   4.612   2.207   7.692 -0.3720 -0.9612 -0.3076
  127OSM   H10F13620   4.652   2.152   7.779  1.9135 -1.5046 -1.6576
  127OSM   C11F13621   4.584   2.353   7.743 -0.4232 -0.2987  0.2347
  127OSM   H11F13622   4.570   2.427   7.662  1.1570  1.5771  1.6346
  127OSM   H11G13623   4.684   2.390   7.773 -0.4601  2.6520 -2.9437
  127OSM   C12F13624   4.492   2.363   7.868  0.4078  0.1777  0.3325
  127OSM   H12F13625   4.522   2.454   7.925 -0.0681 -0.4922  1.6704
  127OSM   H12G13626   4.523   2.278   7.933  2.3578  0.5315 -0.0840
  127OSM   C13F13627   4.336   2.367   7.841 -0.3334  0.0617  0.6844
  127OSM   H13F13628   4.298   2.269   7.806  1.3714 -0.5678  0.5662
  127OSM   H13G13629   4.313   2.437   7.757 -1.6069 -3.6278 -2.1511
  127OSM   C14F13630   4.265   2.404   7.976  0.3483 -0.6885  0.4356
  127OSM   H14F13631   4.296   2.506   8.007  1.0344 -0.7362 -0.0944
  127OSM   H14G13632   4.304   2.336   8.055 -0.3062 -0.7438  0.7236
  127OSM   C15F13633   4.110   2.397   7.962  0.8597  0.0444  0.2360
  127OSM   H15F13634   4.091   2.297   7.917  1.6883  0.3802 -0.8712
  127OSM   H15G13635   4.086   2.479   7.891 -1.7220  0.6682  1.7666
  127OSM   C16F13636   4.041   2.403   8.100  0.0567 -0.0149  0.1212
  127OSM   H16F13637   4.089   2.485   8.157 -0.3735 -1.3713  2.4755
  127OSM   H16G13638   4.090   2.316   8.150 -2.0553 -0.7414  0.9540
  127OSM   C17F13639   3.887   2.408   8.098  0.3861 -0.0355 -0.0164
  127OSM   H17F13640   3.846   2.314   8.056  0.7908 -0.7348  1.1432
  127OSM   H17G13641   3.854   2.491   8.032  0.4153  0.5275  0.6636
  127OSM   C18F13642   3.811   2.422   8.226  0.6502 -0.0303 -0.3880
  127OSM   H18F13643   3.804   2.523   8.273 -1.3110 -1.0902  1.7145
  127OSM   H18G13644   3.850   2.350   8.301 -0.1988 -1.0762 -0.9396
  127OSM   H18H13645   3.705   2.393   8.211  0.1304  0.5188  1.9389
  128OSM      N13646   4.490   6.139   6.115  0.5281  0.3628 -0.4556
  128OSM    C1513647   4.506   5.996   6.145 -0.4225  0.2135  0.2303
  128OSM   H15A13648   4.608   5.960   6.144 -0.4461  0.1281  0.8890
  128OSM   H15B13649   4.459   5.936   6.069  1.4288 -0.1152 -0.6847
  128OSM   H15C13650   4.479   5.968   6.246  0.6674  1.7623  0.9714
  128OSM    C1413651   4.530   6.160   5.967  0.0581  0.1367  0.3461
  128OSM   H14A13652   4.630   6.124   5.948 -0.4632 -1.1787  0.0667
  128OSM   H14B13653   4.534   6.267   5.952 -0.0229  0.0598 -0.2298
  128OSM   H14C13654   4.456   6.118   5.902 -0.9101 -0.6412  1.9245
  128OSM    C1313655   4.343   6.157   6.117 -0.7282  0.1167  0.7320
  128OSM   H13A13656   4.305   6.144   6.218 -1.9375  0.0018  0.2734
  128OSM   H13B13657   4.295   6.090   6.046 -0.8383  0.1342  0.7897
  128OSM   H13C13658   4.318   6.257   6.085  0.3077 -0.9146 -3.6025
  128OSM    C1213659   4.567   6.237   6.205 -0.5193 -0.0309  0.1164
  128OSM   H12A13660   4.561   6.337   6.164  2.8503 -0.7647 -2.3964
  128OSM   H12B13661   4.671   6.211   6.212  0.2291  1.9490 -2.6929
  128OSM    C1113662   4.523   6.250   6.351  0.0983 -0.6142 -0.9408
  128OSM   H11A13663   4.592   6.316   6.407  0.0245  1.8495 -3.6224
  128OSM   H11B13664   4.525   6.149   6.399  1.4055  0.3316  1.0520
  128OSM      P13665   4.356   6.462   6.332  0.4167  0.1163  0.1214
  128OSM    O1313666   4.468   6.539   6.271  0.3825 -0.0604 -0.6828
  128OSM    O1413667   4.227   6.467   6.266  0.2527  0.2974  0.0527
  128OSM    O1113668   4.342   6.520   6.473  0.1613  0.0102 -0.1450
  128OSM    O1213669   4.388   6.311   6.362 -0.0167  0.0763 -0.4955
  128OSM    C1S13670   4.233   6.481   6.560  0.7349 -0.2339  0.1763
  128OSM    H1S13671   4.177   6.387   6.539  3.2323 -1.4322 -1.4259
  128OSM    H1T13672   4.153   6.557   6.558 -0.6495 -1.7137 -2.3556
  128OSM     NF13673   4.175   6.395   6.786  0.0265 -0.0931 -0.0208
  128OSM    HNF13674   4.103   6.447   6.832  1.1456  1.1001  0.4140
  128OSM    C2S13675   4.281   6.457   6.711 -0.2018 -0.5445  0.2696
  128OSM    H2S13676   4.371   6.392   6.706 -1.0401 -1.8476  1.8966
  128OSM    C3S13677   4.328   6.595   6.758  0.1499  0.8756 -1.1042
  128OSM    H3S13678   4.247   6.669   6.740 -0.0936  1.0600  0.6280
  128OSM     O313679   4.440   6.642   6.684  0.2388 -0.0748  0.2011
  128OSM    HO313680   4.432   6.602   6.597 -1.0251 -0.0595  0.3017
  128OSM    C4S13681   4.366   6.584   6.901 -0.6432 -0.1818  0.2730
  128OSM    H4S13682   4.426   6.497   6.929 -1.2555 -0.5232  0.5326
  128OSM    C5S13683   4.309   6.653   6.996 -0.6068  0.1837  0.2740
  128OSM    H5S13684   4.225   6.722   6.977  0.3120  1.0273 -0.7706
  128OSM    C6S13685   4.342   6.623   7.140 -0.6832  0.1615  0.5538
  128OSM    H6S13686   4.359   6.711   7.206  1.2750  1.6166 -1.8436
  128OSM    H6T13687   4.437   6.567   7.146 -0.8992 -0.3486 -0.8370
  128OSM    C7S13688   4.235   6.528   7.206 -0.4646 -0.7409  0.5695
  128OSM    H7S13689   4.205   6.439   7.146  0.3900 -0.3694 -0.4338
  128OSM    H7T13690   4.148   6.597   7.204 -1.2607 -1.7333 -1.2238
  128OSM    C8S13691   4.272   6.478   7.348 -0.1887 -0.3202 -0.0523
  128OSM    H8S13692   4.341   6.550   7.398  1.0017 -2.1617  0.9930
  128OSM    H8T13693   4.335   6.387   7.347 -1.9857 -1.5691  0.1716
  128OSM    C9S13694   4.149   6.459   7.428  0.5135  0.3663 -0.2415
  128OSM    H9S13695   4.071   6.408   7.367 -0.1298  0.8025  0.2166
  128OSM    H9T13696   4.102   6.555   7.458 -0.0599 -0.0612  0.2278
  128OSM   C10S13697   4.177   6.377   7.557 -0.4288  0.4906  0.3006
  128OSM   H10S13698   4.247   6.439   7.617  1.0674 -0.7421 -0.1614
  128OSM   H10T13699   4.239   6.292   7.522  0.1327  2.0099 -2.6155
  128OSM   C11S13700   4.055   6.332   7.636 -0.2156  0.8655  0.2424
  128OSM   H11S13701   4.000   6.263   7.569  0.8660  1.4603 -1.2802
  128OSM   H11T13702   3.997   6.425   7.654  2.9593  3.1039 -0.6102
  128OSM   C12S13703   4.088   6.279   7.787  0.4054 -0.3111  0.3778
  128OSM   H12S13704   4.024   6.321   7.868  0.1438  0.1324 -0.0561
  128OSM   H12T13705   4.189   6.315   7.818 -0.2789  0.5731  1.6336
  128OSM   C13S13706   4.096   6.124   7.776  0.3640  0.0943 -0.0296
  128OSM   H13S13707   4.172   6.098   7.699  1.9195  0.4376  1.3588
  128OSM   H13T13708   3.997   6.083   7.747  0.7147 -0.7457 -0.0306
  128OSM   C14S13709   4.135   6.064   7.918  0.9651  0.1520  0.2242
  128OSM   H14S13710   4.066   6.104   7.995 -0.4084 -1.6516 -0.0408
  128OSM   H14T13711   4.230   6.113   7.948  1.5222 -0.7929  0.0260
  128OSM   C15S13712   4.131   5.916   7.920 -0.5342 -0.3521 -0.2262
  128OSM   H15S13713   4.194   5.878   7.837  0.8152 -1.9152  1.4618
  128OSM   H15T13714   4.031   5.874   7.898 -0.1684 -2.5859  2.1539
  128OSM   C16S13715   4.172   5.863   8.052 -0.4266 -1.2208 -0.5944
  128OSM   H16S13716   4.105   5.891   8.136 -0.6440  1.0541 -1.5036
  128OSM   H16T13717   4.265   5.920   8.073 -0.8404 -0.9259  0.5010
  128OSM   C17S13718   4.207   5.717   8.062  0.6111  0.0453  0.6945
  128OSM   H17S13719   4.290   5.689   7.994  1.3701  1.7031  0.8865
  128OSM   H17T13720   4.123   5.655   8.028  1.6309 -0.2599 -1.3177
  128OSM   C18S13721   4.251   5.665   8.200  0.1605 -0.1372  0.0009
  128OSM   H18S13722   4.320   5.742   8.240  1.0405 -0.6375 -0.5510
  128OSM   H18T13723   4.308   5.570   8.193 -0.3077 -0.5973  2.0677
  128OSM   H18U13724   4.166   5.656   8.271 -2.4075  0.3444 -2.9140
  128OSM    C1F13725   4.155   6.267   6.789  0.4832 -0.5373  0.3280
  128OSM     OF13726   4.225   6.194   6.722  0.2488  0.4918 -0.2119
  128OSM    C2F13727   4.038   6.217   6.870 -0.4183  0.4222  0.1741
  128OSM    H2F13728   3.955   6.205   6.797  0.2259  0.0048 -0.4982
  128OSM    H2G13729   4.017   6.298   6.943  2.9570  0.0134  1.6753
  128OSM    C3F13730   4.074   6.092   6.939  0.0154 -0.1629  0.3638
  128OSM    H3F13731   4.107   6.019   6.862 -2.8788 -0.6842 -0.4311
  128OSM    H3G13732   3.983   6.056   6.991 -0.5642  1.3730  0.4372
  128OSM    C4F13733   4.179   6.111   7.043  0.4049 -0.2312  0.1482
  128OSM    H4F13734   4.224   6.212   7.056  3.0019 -1.4565  1.0086
  128OSM    H4G13735   4.265   6.056   7.001 -0.8158 -1.9441 -0.1791
  128OSM    C5F13736   4.147   6.033   7.172 -0.1165  0.4676  0.5706
  128OSM    H5F13737   4.152   5.923   7.157  2.3947  0.5562  0.5016
  128OSM    H5G13738   4.043   6.061   7.199 -0.4096 -1.3764  1.4993
  128OSM    C6F13739   4.234   6.073   7.296 -0.3777 -0.3530 -0.1794
  128OSM    H6F13740   4.193   6.160   7.352 -0.5818 -0.4621 -0.1592
  128OSM    H6G13741   4.331   6.108   7.255 -0.5670  2.0169  1.3102
  128OSM    C7F13742   4.268   5.954   7.386  0.2877  0.3384 -0.1172
  128OSM    H7F13743   4.306   5.880   7.313 -3.7821 -2.0416 -0.0187
  128OSM    H7G13744   4.175   5.905   7.424 -0.0659  0.9525 -0.1811
  128OSM    C8F13745   4.358   5.982   7.501 -0.1959 -0.6440 -0.0071
  128OSM    H8F13746   4.374   5.886   7.556 -0.6323  1.3296  3.7555
  128OSM    H8G13747   4.308   6.040   7.581 -0.5144  0.5469 -1.0637
  128OSM    C9F13748   4.497   6.034   7.471 -0.2160 -0.0896 -0.7663
  128OSM    H9F13749   4.506   6.079   7.371 -2.2048 -1.4821 -1.6060
  128OSM   C10F13750   4.609   6.037   7.552 -0.2732 -0.4897 -0.6480
  128OSM   H10F13751   4.703   6.080   7.514 -0.4002  0.1590 -0.2352
  128OSM   C11F13752   4.620   5.984   7.696 -0.3800 -0.1560 -0.0218
  128OSM   H11F13753   4.714   5.926   7.704  1.4060  2.5954 -0.5368
  128OSM   H11G13754   4.538   5.913   7.720  1.6220 -2.5252 -0.0430
  128OSM   C12F13755   4.615   6.107   7.787 -0.8464 -0.0339 -0.1183
  128OSM   H12F13756   4.534   6.173   7.748 -0.7294 -1.1432 -2.3409
  128OSM   H12G13757   4.708   6.167   7.782  0.9128 -2.5757  0.8107
  128OSM   C13F13758   4.581   6.069   7.933 -0.2236  0.1199  0.8047
  128OSM   H13F13759   4.511   5.982   7.929 -2.5331  1.9246  0.8479
  128OSM   H13G13760   4.524   6.152   7.981 -1.7144 -1.2228  1.4038
  128OSM   C14F13761   4.691   6.014   8.026 -0.6924  0.5960 -0.4034
  128OSM   H14F13762   4.769   6.089   8.050  0.8442 -1.0646 -0.1131
  128OSM   H14G13763   4.741   5.925   7.982 -1.2223  0.1716 -0.1500
  128OSM   C15F13764   4.642   5.983   8.170 -0.1941  0.1179 -0.1748
  128OSM   H15F13765   4.559   5.909   8.157 -1.0887  1.3291 -1.5111
  128OSM   H15G13766   4.592   6.063   8.229  2.9575  2.0826 -0.0589
  128OSM   C16F13767   4.750   5.926   8.253 -0.8842  0.5406  0.5987
  128OSM   H16F13768   4.797   5.847   8.190 -0.7600  0.8876  0.2550
  128OSM   H16G13769   4.718   5.874   8.346  2.5323 -0.5892  1.2241
  128OSM   C17F13770   4.842   6.037   8.291  0.1436  0.2696 -0.7102
  128OSM   H17F13771   4.780   6.112   8.346  0.6728 -0.7130  1.2903
  128OSM   H17G13772   4.883   6.100   8.209 -0.7621  0.5495 -0.9531
  128OSM   C18F13773   4.964   5.993   8.369  0.1818  0.4157 -0.7983
  128OSM   H18F13774   5.023   5.925   8.305 -0.8932 -1.9376  0.6414
  128OSM   H18G13775   4.941   5.928   8.456  1.2888  0.2834 -0.5977
  128OSM   H18H13776   5.035   6.072   8.403 -1.3841  1.8590 -0.7999
  129OSM      N13777   3.187   1.435   6.314 -0.9831  0.3324 -0.3054
  129OSM    C1513778   3.273   1.561   6.309 -0.0536 -0.4406 -0.3010
  129OSM   H15A13779   3.368   1.549   6.258 -0.4791 -0.9547 -0.9895
  129OSM   H15B13780   3.288   1.609   6.404  0.3111 -0.9768 -0.0837
  129OSM   H15C13781   3.216   1.631   6.250  1.0343 -1.2599 -2.4004
  129OSM    C1413782   3.199   1.351   6.192 -0.7354 -0.2458  0.5810
  129OSM   H14A13783   3.200   1.407   6.099 -0.2975  1.1395  1.4032
  129OSM   H14B13784   3.125   1.275   6.173 -1.6225  1.1283 -1.6293
  129OSM   H14C13785   3.292   1.296   6.196  0.6782  1.5669 -3.6587
  129OSM    C1313786   3.245   1.354   6.426  0.1185 -0.1189 -0.3710
  129OSM   H13A13787   3.353   1.349   6.425  0.2869  2.6538 -1.6238
  129OSM   H13B13788   3.221   1.251   6.405 -0.5049  0.2532 -1.5492
  129OSM   H13C13789   3.214   1.385   6.525  1.1689 -0.8882  0.2100
  129OSM    C1213790   3.040   1.470   6.340  0.3746 -0.3199  0.1881
  129OSM   H12A13791   3.019   1.533   6.255 -1.7592 -0.3615  0.6528
  129OSM   H12B13792   3.037   1.540   6.422 -2.2634 -1.9410  1.5473
  129OSM    C1113793   2.950   1.348   6.369 -0.0267  0.4584  0.9060
  129OSM   H11A13794   2.855   1.387   6.411 -0.8156 -1.0989  0.5955
  129OSM   H11B13795   2.995   1.281   6.445 -1.3922  0.6700  1.9201
  129OSM      P13796   2.885   1.124   6.252  0.1692  0.0986  0.0609
  129OSM    O1313797   2.773   1.095   6.163 -0.2599 -0.0826  0.1742
  129OSM    O1413798   3.012   1.052   6.209  0.7458  0.3951 -0.3838
  129OSM    O1113799   2.845   1.089   6.391  0.6908 -0.2030 -0.2555
  129OSM    O1213800   2.918   1.279   6.247  0.1748 -1.0097 -0.1685
  129OSM    C1S13801   2.810   0.954   6.430 -0.0572 -0.2289 -0.5859
  129OSM    H1S13802   2.886   0.879   6.400 -0.6863 -3.1584  4.5867
  129OSM    H1T13803   2.711   0.923   6.388 -0.6690  0.2044  0.5168
  129OSM     NF13804   2.739   0.787   6.603 -0.5571 -0.3250 -0.1519
  129OSM    HNF13805   2.646   0.769   6.634 -0.0679 -0.4495  1.2769
  129OSM    C2S13806   2.777   0.929   6.577  0.3497 -0.1059  0.1899
  129OSM    H2S13807   2.875   0.945   6.625 -0.3576  0.5665  1.4286
  129OSM    C3S13808   2.680   1.037   6.637  0.3683  0.1673  0.5499
  129OSM    H3S13809   2.586   1.039   6.579  0.2684  0.9264  0.7425
  129OSM     O313810   2.715   1.173   6.617 -0.5776  0.2979 -0.1443
  129OSM    HO313811   2.782   1.167   6.549  0.6842  0.2737  1.0657
  129OSM    C4S13812   2.654   1.003   6.772 -0.3889  0.4650  0.2008
  129OSM    H4S13813   2.559   0.949   6.784 -0.3128  0.9249  3.0668
  129OSM    C5S13814   2.728   1.029   6.882  0.1430  0.1152 -0.2106
  129OSM    H5S13815   2.824   1.080   6.862  0.5745 -0.9015 -0.7785
  129OSM    C6S13816   2.690   0.981   7.019 -0.1859 -0.0670  0.3282
  129OSM    H6S13817   2.687   1.058   7.099 -1.8027  1.8141 -1.4545
  129OSM    H6T13818   2.766   0.910   7.057 -0.6815 -1.7153 -1.7001
  129OSM    C7S13819   2.555   0.916   7.026 -0.0150 -0.2600  0.4422
  129OSM    H7S13820   2.556   0.833   6.951  1.6494  0.4153 -0.2978
  129OSM    H7T13821   2.487   0.988   6.976  0.7169 -1.0327 -1.7229
  129OSM    C8S13822   2.489   0.872   7.161  0.0667  0.2393 -0.7977
  129OSM    H8S13823   2.523   0.768   7.176 -1.3272 -0.2427 -0.9704
  129OSM    H8T13824   2.380   0.855   7.147 -0.0471  0.1643  0.1560
  129OSM    C9S13825   2.515   0.971   7.278  0.6590  0.1598  0.1517
  129OSM    H9S13826   2.478   1.072   7.249  0.6149  0.6483  1.8590
  129OSM    H9T13827   2.623   0.979   7.302  0.7243  0.5762 -0.2649
  129OSM   C10S13828   2.437   0.938   7.408  0.4273 -0.4065 -0.7124
  129OSM   H10S13829   2.335   0.980   7.394  0.0382 -0.7384  0.9920
  129OSM   H10T13830   2.474   0.997   7.494  2.0987  1.1616 -2.4664
  129OSM   C11S13831   2.433   0.787   7.439  0.4391  0.1444  0.0635
  129OSM   H11S13832   2.397   0.731   7.350 -0.0765  1.0823 -0.3262
  129OSM   H11T13833   2.354   0.787   7.517  0.3052  2.1671 -0.0482
  129OSM   C12S13834   2.564   0.752   7.497 -0.8391 -0.1620 -0.6009
  129OSM   H12S13835   2.588   0.821   7.580 -2.7438 -0.2233  0.0335
  129OSM   H12T13836   2.641   0.777   7.421  0.9575 -0.0031  1.2025
  129OSM   C13S13837   2.584   0.609   7.550 -0.3552  0.5044  0.7388
  129OSM   H13S13838   2.512   0.596   7.634 -1.2015  0.0103 -0.0610
  129OSM   H13T13839   2.690   0.598   7.583  0.5933  2.3026 -1.5575
  129OSM   C14S13840   2.557   0.493   7.454  0.2875  0.2931  0.3262
  129OSM   H14S13841   2.455   0.510   7.413  0.4741 -1.6053 -1.0009
  129OSM   H14T13842   2.557   0.405   7.521  2.2253  1.2691  1.6347
  129OSM   C15S13843   2.651   0.488   7.338 -0.1526 -0.2206 -0.3208
  129OSM   H15S13844   2.753   0.474   7.380 -0.8970 -2.5681  0.8612
  129OSM   H15T13845   2.636   0.585   7.288 -0.7943  0.3261  0.9105
  129OSM   C16S13846   2.606   0.374   7.237 -0.2619  0.0660 -0.3172
  129OSM   H16S13847   2.677   0.379   7.151 -1.4576 -3.2172 -1.5758
  129OSM   H16T13848   2.510   0.412   7.197 -0.3816 -0.5624 -0.6398
  129OSM   C17S13849   2.574   0.228   7.284  0.2719 -0.2058 -0.3458
  129OSM   H17S13850   2.510   0.246   7.373  1.7861  0.7796  0.5837
  129OSM   H17T13851   2.671   0.191   7.324 -0.9847 -1.5700  1.5111
  129OSM   C18S13852   2.529   0.126   7.179 -0.4749  0.5287 -0.2702
  129OSM   H18S13853   2.572   0.152   7.079 -1.1719  1.0741 -0.4314
  129OSM   H18T13854   2.419   0.128   7.164 -0.2424 -1.4941 -2.6574
  129OSM   H18U13855   2.565   0.026   7.209 -0.1174  0.5621 -0.5749
  129OSM    C1F13856   2.821   0.681   6.594 -0.4167 -0.3619  0.3686
  129OSM     OF13857   2.941   0.700   6.568  0.3237  0.1747  0.4077
  129OSM    C2F13858   2.772   0.547   6.638  1.3926 -0.5191 -0.3156
  129OSM    H2F13859   2.747   0.493   6.545  2.9127  1.0670 -1.6917
  129OSM    H2G13860   2.680   0.558   6.699  0.6685  1.1592 -1.6725
  129OSM    C3F13861   2.889   0.471   6.699  0.2182  0.6073 -0.3923
  129OSM    H3F13862   2.971   0.453   6.627 -0.6706 -0.5316 -1.1291
  129OSM    H3G13863   2.856   0.366   6.714  1.7699 -0.2476 -2.6538
  129OSM    C4F13864   2.947   0.537   6.825  0.0384  0.1402  0.1905
  129OSM    H4F13865   3.021   0.618   6.810  0.0994 -0.0171 -0.3493
  129OSM    H4G13866   3.006   0.456   6.874 -3.4064 -1.2932  2.1422
  129OSM    C5F13867   2.836   0.575   6.925 -0.0353  0.2046 -0.1069
  129OSM    H5F13868   2.787   0.479   6.953  1.5486 -0.9598 -1.2332
  129OSM    H5G13869   2.754   0.634   6.879 -0.6015 -0.0025  0.6249
  129OSM    C6F13870   2.898   0.641   7.053  0.1516  0.1119 -0.3698
  129OSM    H6F13871   2.821   0.683   7.122 -1.3629  1.5852 -2.8493
  129OSM    H6G13872   2.950   0.731   7.013 -1.6743  2.3037  1.9910
  129OSM    C7F13873   2.988   0.547   7.130 -0.0117  0.3182  0.0510
  129OSM    H7F13874   3.082   0.525   7.077  0.0328  1.3090 -0.2996
  129OSM    H7G13875   2.925   0.457   7.144  0.5880 -0.0810  0.1603
  129OSM    C8F13876   3.026   0.607   7.274  0.0623  0.2207  0.3280
  129OSM    H8F13877   2.927   0.622   7.322  1.1809  0.8802  2.5196
  129OSM    H8G13878   3.071   0.708   7.265 -0.1302  0.2240 -0.6496
  129OSM    C9F13879   3.122   0.514   7.347  0.8239  0.1845  0.1965
  129OSM    H9F13880   3.195   0.462   7.283 -0.1771 -1.0070 -0.0002
  129OSM   C10F13881   3.119   0.484   7.474 -0.2666  0.8717  0.2338
  129OSM   H10F13882   3.188   0.414   7.524  0.4788  1.9291  0.6940
  129OSM   C11F13883   3.023   0.546   7.573 -0.7824 -0.0768  0.0487
  129OSM   H11F13884   2.933   0.585   7.521 -1.6604 -1.7036  0.3104
  129OSM   H11G13885   3.071   0.633   7.622  0.7509 -0.2083 -1.1492
  129OSM   C12F13886   2.980   0.452   7.683  0.1842 -0.4291 -0.5829
  129OSM   H12F13887   3.069   0.395   7.714 -0.2328  0.8518  3.2025
  129OSM   H12G13888   2.910   0.374   7.646  1.3082 -1.2864 -0.9266
  129OSM   C13F13889   2.925   0.525   7.809 -1.2220  0.0484 -0.0861
  129OSM   H13F13890   2.875   0.620   7.780  0.7868  1.0627 -0.2815
  129OSM   H13G13891   3.010   0.555   7.875 -0.4524  0.3564 -1.2118
  129OSM   C14F13892   2.832   0.442   7.885 -0.7437  0.5755 -0.0742
  129OSM   H14F13893   2.874   0.339   7.884 -0.7280  0.5599 -2.3445
  129OSM   H14G13894   2.733   0.441   7.833 -0.0674  2.9494 -1.4599
  129OSM   C15F13895   2.797   0.482   8.030  0.1364  0.2053  0.0723
  129OSM   H15F13896   2.755   0.584   8.014 -0.0996 -0.0298 -0.8194
  129OSM   H15G13897   2.886   0.481   8.097  0.3296  1.1117 -0.1669
  129OSM   C16F13898   2.682   0.399   8.091  0.4224  0.3053  0.5579
  129OSM   H16F13899   2.649   0.324   8.016  0.3207  0.8103  0.0924
  129OSM   H16G13900   2.595   0.467   8.104  0.1884  0.3915 -1.3603
  129OSM   C17F13901   2.722   0.321   8.213 -0.0148 -0.2764 -0.4464
  129OSM   H17F13902   2.766   0.374   8.300 -0.1470 -1.1270  0.1475
  129OSM   H17G13903   2.803   0.250   8.185  1.7404  0.2993  2.8919
  129OSM   C18F13904   2.611   0.226   8.258 -0.0090  0.1138 -0.2235
  129OSM   H18F13905   2.518   0.281   8.285  0.8792 -0.1140  3.5580
  129OSM   H18G13906   2.622   0.170   8.353  1.4003 -0.5349 -0.7438
  129OSM   H18H13907   2.578   0.143   8.191 -1.5559 -0.4121  1.1704
  130OSM      N13908   3.193   4.859   6.267 -0.1320  0.0308  0.2266
  130OSM    C1513909   3.204   4.751   6.159  0.0897  0.5144 -0.0969
  130OSM   H15A13910   3.163   4.785   6.065 -0.0598  0.4928 -0.0391
  130OSM   H15B13911   3.151   4.663   6.194  0.3736  0.6382  0.6592
  130OSM   H15C13912   3.310   4.730   6.148  0.4795  3.1432 -1.7633
  130OSM    C1413913   3.267   4.814   6.390 -0.1249  0.2616 -0.5040
  130OSM   H14A13914   3.374   4.801   6.376  0.2557  0.5759  1.9806
  130OSM   H14B13915   3.220   4.729   6.437  1.9519 -0.7834 -0.2761
  130OSM   H14C13916   3.269   4.893   6.463 -0.4710 -0.3512  0.1736
  130OSM    C1313917   3.253   4.985   6.215 -0.4967  0.5791 -0.5147
  130OSM   H13A13918   3.243   5.071   6.279 -1.0285  0.0549  0.1086
  130OSM   H13B13919   3.200   5.026   6.130  2.3335  2.6474 -1.3796
  130OSM   H13C13920   3.357   4.972   6.191 -1.1414 -3.0132 -1.6320
  130OSM    C1213921   3.049   4.880   6.292 -1.0554  0.2427  0.0289
  130OSM   H12A13922   3.012   4.935   6.206 -1.8946 -0.2921  0.0536
  130OSM   H12B13923   3.037   4.946   6.377  3.6203 -0.4747  1.4303
  130OSM    C1113924   2.959   4.752   6.315 -0.2537  0.2130 -0.3572
  130OSM   H11A13925   2.973   4.680   6.231 -0.6144 -1.5727  1.0871
  130OSM   H11B13926   2.850   4.771   6.316 -0.7975 -2.6372  0.0018
  130OSM      P13927   3.038   4.534   6.437  0.0829 -0.1280  0.0145
  130OSM    O1313928   2.939   4.435   6.491  0.2203  0.1710  0.5529
  130OSM    O1413929   3.104   4.498   6.310  0.1465 -0.3581 -0.0675
  130OSM    O1113930   3.153   4.556   6.544 -0.1943 -0.0192 -0.5711
  130OSM    O1213931   2.984   4.684   6.436 -0.0012 -0.0985 -0.1091
  130OSM    C1S13932   3.124   4.618   6.670 -0.2814 -0.0108  0.7042
  130OSM    H1S13933   3.018   4.604   6.698 -0.3722 -1.3533 -0.2574
  130OSM    H1T13934   3.135   4.728   6.659 -0.8060 -0.2187 -2.2440
  130OSM     NF13935   3.171   4.633   6.895  0.0516  0.5500  0.4208
  130OSM    HNF13936   3.208   4.725   6.904 -1.6584  1.5715 -2.1488
  130OSM    C2S13937   3.219   4.572   6.776  0.8998  0.0697 -0.1157
  130OSM    H2S13938   3.194   4.465   6.788 -0.3315  0.3111 -0.4096
  130OSM    C3S13939   3.368   4.600   6.750  0.5604  0.5179 -0.2291
  130OSM    H3S13940   3.380   4.710   6.733 -1.6922  0.6978 -0.8171
  130OSM     O313941   3.410   4.542   6.624  0.2035 -0.6426 -0.7254
  130OSM    HO313942   3.328   4.518   6.579 -0.9053  1.9050 -0.1878
  130OSM    C4S13943   3.462   4.550   6.858  0.2142 -0.5104 -0.3858
  130OSM    H4S13944   3.458   4.441   6.870  0.9711 -0.5342 -0.2900
  130OSM    C5S13945   3.537   4.628   6.935  0.8802  0.0753  1.1898
  130OSM    H5S13946   3.536   4.734   6.906  0.6164 -0.2782 -0.1256
  130OSM    C6S13947   3.636   4.586   7.044 -0.0680 -0.1229 -0.3990
  130OSM    H6S13948   3.656   4.662   7.123  2.3664  0.4379 -1.5297
  130OSM    H6T13949   3.742   4.579   7.012 -0.3456  2.7486 -2.1158
  130OSM    C7S13950   3.598   4.451   7.126 -0.2332  0.0841  0.2867
  130OSM    H7S13951   3.590   4.366   7.056 -1.1086 -0.3566  0.9103
  130OSM    H7T13952   3.491   4.465   7.153 -0.7159 -1.8778 -0.5521
  130OSM    C8S13953   3.708   4.406   7.225  0.2793  0.4454 -0.3404
  130OSM    H8S13954   3.740   4.495   7.283  0.8099  0.7585 -1.0977
  130OSM    H8T13955   3.791   4.367   7.161  0.1387 -0.6233  0.1184
  130OSM    C9S13956   3.651   4.307   7.326 -0.3540  0.2918  0.4959
  130OSM    H9S13957   3.594   4.230   7.270 -1.2630 -0.0235  1.8397
  130OSM    H9T13958   3.576   4.369   7.379 -0.0638  1.2198 -0.1714
  130OSM   C10S13959   3.752   4.233   7.422  0.3111 -0.3037  0.2873
  130OSM   H10S13960   3.846   4.197   7.375 -0.3324  1.8485 -2.8947
  130OSM   H10T13961   3.715   4.150   7.485 -0.6903  1.3795  1.9480
  130OSM   C11S13962   3.786   4.337   7.528 -0.1326 -0.2455 -0.1761
  130OSM   H11S13963   3.692   4.379   7.570 -0.2352 -0.3848 -0.2670
  130OSM   H11T13964   3.833   4.423   7.474 -0.8214  0.4786  0.3667
  130OSM   C12S13965   3.878   4.300   7.645  0.0748  0.1429  0.6761
  130OSM   H12S13966   3.931   4.388   7.688  1.1482  0.8795 -2.0167
  130OSM   H12T13967   3.962   4.238   7.606  0.1630 -0.0850  1.2352
  130OSM   C13S13968   3.808   4.210   7.750 -0.7212 -0.0947 -0.1860
  130OSM   H13S13969   3.790   4.115   7.695 -0.2361 -0.2473 -0.0868
  130OSM   H13T13970   3.714   4.258   7.784 -0.6859  0.0462 -0.2872
  130OSM   C14S13971   3.891   4.163   7.866 -0.0963  0.4253 -0.4592
  130OSM   H14S13972   3.986   4.134   7.816  0.7458  2.4105 -0.0384
  130OSM   H14T13973   3.842   4.074   7.913  0.2815  0.2340 -0.4269
  130OSM   C15S13974   3.932   4.270   7.969  0.4290  0.4965 -0.3106
  130OSM   H15S13975   3.983   4.357   7.921  0.4596  0.6084 -0.0776
  130OSM   H15T13976   3.988   4.215   8.047  0.3405  0.8676  0.0170
  130OSM   C16S13977   3.806   4.320   8.046  0.2308 -0.1630  0.5304
  130OSM   H16S13978   3.779   4.240   8.118  1.7705  1.5094  3.0410
  130OSM   H16T13979   3.737   4.339   7.961 -0.1207 -0.9487  0.6358
  130OSM   C17S13980   3.827   4.457   8.122  0.2167  0.2311  0.6455
  130OSM   H17S13981   3.888   4.532   8.067  0.8159  1.4053  2.8423
  130OSM   H17T13982   3.901   4.445   8.204  0.3513  0.2497  0.5301
  130OSM   C18S13983   3.699   4.536   8.160  0.1201  0.2714 -0.1857
  130OSM   H18S13984   3.640   4.463   8.220  1.0076 -0.2410  0.0591
  130OSM   H18T13985   3.641   4.561   8.069  1.2094  1.2400 -0.6196
  130OSM   H18U13986   3.719   4.632   8.213 -1.6907  1.0364 -0.8252
  130OSM    C1F13987   3.075   4.589   6.975  0.0832 -0.5274  0.9926
  130OSM     OF13988   3.010   4.488   6.946 -0.3603  0.1095  0.5341
  130OSM    C2F13989   3.033   4.680   7.088  0.0166  0.1260 -0.1112
  130OSM    H2F13990   2.926   4.707   7.082  0.4453  1.8403 -0.4506
  130OSM    H2G13991   3.092   4.774   7.075  1.0464 -0.1808  2.0761
  130OSM    C3F13992   3.072   4.619   7.224 -0.1737  0.7492  0.0146
  130OSM    H3F13993   2.987   4.555   7.257  0.8056 -0.0596  1.0182
  130OSM    H3G13994   3.062   4.699   7.300 -1.2594  2.1534 -1.5555
  130OSM    C4F13995   3.198   4.538   7.230 -0.5923 -0.1316  0.4641
  130OSM    H4F13996   3.258   4.565   7.141 -2.7805  2.6922 -0.2204
  130OSM    H4G13997   3.172   4.431   7.213  0.5223 -0.6333  1.8059
  130OSM    C5F13998   3.276   4.563   7.362 -0.3111  0.7785  0.2877
  130OSM    H5F13999   3.311   4.668   7.372  0.7985  0.3417  1.0613
  130OSM    H5G14000   3.367   4.500   7.352 -0.3579  0.6714  0.5586
  130OSM    C6F14001   3.201   4.538   7.491  0.0440 -0.1825 -0.1487
  130OSM    H6F14002   3.144   4.443   7.474 -3.1868  1.9245 -1.6140
  130OSM    H6G14003   3.120   4.611   7.512  0.7869 -0.0165  2.3485
  130OSM    C7F14004   3.301   4.529   7.604  0.3356  0.5078  0.4289
  130OSM    H7F14005   3.391   4.590   7.579  0.0048  0.0184 -2.0846
  130OSM    H7G14006   3.349   4.430   7.598 -0.7548  0.0040 -0.1040
  130OSM    C8F14007   3.258   4.557   7.750 -0.0542  0.4940 -0.4492
  130OSM    H8F14008   3.190   4.644   7.740  0.9885  1.4394  0.5766
  130OSM    H8G14009   3.350   4.586   7.805 -1.0043  1.3567  0.7041
  130OSM    C9F14010   3.194   4.428   7.803  0.1689 -0.4360  0.8897
  130OSM    H9F14011   3.140   4.372   7.726  1.5222  0.0127 -0.4199
  130OSM   C10F14012   3.203   4.374   7.926  0.1486 -0.1242  0.0757
  130OSM   H10F14013   3.155   4.276   7.943  0.1136  0.3377  2.8315
  130OSM   C11F14014   3.267   4.443   8.045  0.1657  0.1430  0.5489
  130OSM   H11F14015   3.261   4.552   8.021  1.6835  0.6302  2.2101
  130OSM   H11G14016   3.375   4.422   8.054 -0.1451 -2.1438 -0.7842
  130OSM   C12F14017   3.193   4.424   8.179  0.0268  0.5877 -0.7264
  130OSM   H12F14018   3.085   4.446   8.169 -0.2741 -0.6993 -0.4880
  130OSM   H12G14019   3.254   4.494   8.239 -0.1549 -1.5611  2.0565
  130OSM   C13F14020   3.214   4.279   8.231 -0.1968 -0.9050  0.5958
  130OSM   H13F14021   3.317   4.279   8.273  0.8884 -0.5866 -1.9799
  130OSM   H13G14022   3.219   4.210   8.144  3.3225 -1.2628  1.0197
  130OSM   C14F14023   3.112   4.239   8.335  0.1430  0.1572  0.1770
  130OSM   H14F14024   3.007   4.256   8.301  0.1583 -1.1601 -0.5481
  130OSM   H14G14025   3.128   4.291   8.432  0.6245 -1.1718  0.8264
  130OSM   C15F14026   3.105   4.093   8.369 -0.3818  0.9035  0.0032
  130OSM   H15F14027   3.204   4.064   8.411  0.4889  3.1685 -0.4399
  130OSM   H15G14028   3.079   4.029   8.281 -0.5782 -0.0595  0.7503
  130OSM   C16F14029   3.004   4.049   8.471  0.3696  0.1339  0.4560
  130OSM   H16F14030   3.009   3.939   8.463  1.0883  0.1468  0.7290
  130OSM   H16G14031   2.903   4.069   8.430  0.8043  1.2108 -0.1083
  130OSM   C17F14032   3.016   4.088   8.618  0.1598  0.0251 -0.0479
  130OSM   H17F14033   2.997   4.197   8.631 -0.3236 -0.0365 -0.2524
  130OSM   H17G14034   3.120   4.059   8.645  0.4653  1.1209 -0.0171
  130OSM   C18F14035   2.923   4.004   8.704 -0.1915 -0.1127  0.1925
  130OSM   H18F14036   2.953   4.022   8.810  1.2184 -0.5591 -0.1171
  130OSM   H18G14037   2.934   3.897   8.679  2.6183  0.3922 -1.0497
  130OSM   H18H14038   2.818   4.031   8.680  0.9572  2.2578 -2.4301
  131OSM      N14039   4.161   3.657   6.592  1.0216  0.2109 -0.0552
  131OSM    C1514040   4.209   3.648   6.458  0.2207 -0.0623  0.4236
  131OSM   H15A14041   4.292   3.579   6.447 -1.0665 -1.2937 -1.8562
  131OSM   H15B14042   4.249   3.739   6.417  0.9191 -0.5187  0.0927
  131OSM   H15C14043   4.136   3.609   6.390 -0.6656  0.7228  0.9102
  131OSM    C1414044   4.270   3.659   6.692 -0.0682 -0.8824  0.5069
  131OSM   H14A14045   4.337   3.743   6.674  0.1569 -1.1899 -0.1137
  131OSM   H14B14046   4.319   3.563   6.698  1.8621  0.0629  0.4340
  131OSM   H14C14047   4.223   3.676   6.787  0.8031 -0.8123  0.9284
  131OSM    C1314048   4.073   3.777   6.601  0.5200 -0.7821 -0.5554
  131OSM   H13A14049   3.981   3.757   6.549  1.8344  0.0022 -3.2572
  131OSM   H13B14050   4.121   3.867   6.565 -2.3410  2.5167  3.2815
  131OSM   H13C14051   4.055   3.786   6.707 -0.5043  2.3491 -0.9292
  131OSM    C1214052   4.077   3.531   6.614 -0.7975  0.0699  0.4192
  131OSM   H12A14053   4.046   3.530   6.718  1.1983 -0.9138  1.0453
  131OSM   H12B14054   4.151   3.452   6.616 -0.0500  0.7917  2.0266
  131OSM    C1114055   3.964   3.483   6.514 -0.3131  0.1743  0.3483
  131OSM   H11A14056   3.903   3.570   6.480 -0.9463 -0.6382 -0.6007
  131OSM   H11B14057   3.902   3.412   6.572 -1.8297  0.8042 -0.4679
  131OSM      P14058   3.977   3.325   6.297 -0.5036  0.0468 -0.5684
  131OSM    O1314059   3.875   3.389   6.206 -0.6167 -0.5212 -1.0042
  131OSM    O1414060   4.095   3.258   6.232 -0.1069  0.1367  0.3007
  131OSM    O1114061   3.885   3.225   6.378  0.5555  0.0009 -0.0941
  131OSM    O1214062   4.033   3.427   6.407  0.1073  0.0465  0.1509
  131OSM    C1S14063   3.940   3.149   6.483  0.5631 -0.0417  0.2535
  131OSM    H1S14064   4.009   3.200   6.554  2.8641 -1.3048 -1.0262
  131OSM    H1T14065   4.015   3.077   6.445 -2.1228 -2.7295 -0.1160
  131OSM     NF14066   3.903   3.025   6.688  0.0307  0.6524  0.8575
  131OSM    HNF14067   3.932   2.931   6.702  1.1210  1.1861  2.3462
  131OSM    C2S14068   3.841   3.069   6.564  0.6491  0.2746  0.6354
  131OSM    H2S14069   3.757   3.136   6.593 -1.7552 -1.1973 -2.5947
  131OSM    C3S14070   3.769   2.962   6.466  0.4450 -0.0280  0.0222
  131OSM    H3S14071   3.852   2.899   6.428  2.3032  3.1932 -1.5172
  131OSM     O314072   3.709   3.022   6.351 -0.1756  0.2542 -0.0591
  131OSM    HO314073   3.762   3.102   6.342 -2.9633  1.9646 -2.1213
  131OSM    C4S14074   3.673   2.872   6.539  0.3486 -0.5651  0.1714
  131OSM    H4S14075   3.712   2.778   6.579 -0.9535 -0.7866  0.9569
  131OSM    C5S14076   3.542   2.881   6.568  0.3908 -0.4982 -0.6807
  131OSM    H5S14077   3.476   2.961   6.530 -2.1168 -1.1292  2.1085
  131OSM    C6S14078   3.454   2.774   6.636  0.3923 -0.9166  0.0290
  131OSM    H6S14079   3.403   2.714   6.558  0.7611 -0.6530 -0.4181
  131OSM    H6T14080   3.370   2.827   6.686  0.3259 -1.8597  0.9577
  131OSM    C7S14081   3.527   2.679   6.731  0.4871 -0.2734  0.1090
  131OSM    H7S14082   3.599   2.734   6.795  0.5630 -0.4087  0.1387
  131OSM    H7T14083   3.581   2.601   6.674  1.7832  0.7353 -0.0743
  131OSM    C8S14084   3.437   2.583   6.804  0.1742 -0.7641  0.0097
  131OSM    H8S14085   3.395   2.516   6.726  0.6532 -0.1500 -0.7731
  131OSM    H8T14086   3.366   2.652   6.853  0.5097 -0.3070 -0.1430
  131OSM    C9S14087   3.500   2.509   6.919  0.5198  0.9687 -0.0832
  131OSM    H9S14088   3.540   2.570   7.002  0.2328  0.1335  0.6773
  131OSM    H9T14089   3.581   2.445   6.877 -0.5633 -0.6744  0.2872
  131OSM   C10S14090   3.396   2.415   6.983  0.0870  0.3086  0.3572
  131OSM   H10S14091   3.362   2.347   6.902 -0.3074  1.5587 -0.5589
  131OSM   H10T14092   3.308   2.457   7.036 -0.7723  0.4025 -1.1091
  131OSM   C11S14093   3.455   2.315   7.082  0.1923  0.6186 -0.3283
  131OSM   H11S14094   3.549   2.269   7.044  0.3534  0.4739  0.2349
  131OSM   H11T14095   3.379   2.236   7.102 -1.0462  2.2149  1.4692
  131OSM   C12S14096   3.485   2.382   7.220  0.0640  0.3513 -0.1058
  131OSM   H12S14097   3.400   2.440   7.261  0.8027  1.2088  0.2477
  131OSM   H12T14098   3.571   2.453   7.222  1.9479 -1.8925  0.4296
  131OSM   C13S14099   3.526   2.270   7.325 -0.0125  0.3425  0.5792
  131OSM   H13S14100   3.625   2.227   7.301 -0.8564 -2.5617  2.0628
  131OSM   H13T14101   3.456   2.184   7.325 -0.2016  0.4959  0.9796
  131OSM   C14S14102   3.528   2.329   7.468  0.6572 -0.2920 -0.0637
  131OSM   H14S14103   3.421   2.350   7.486  1.1361  1.0006  1.4484
  131OSM   H14T14104   3.587   2.423   7.462 -1.1277  0.7843 -1.1722
  131OSM   C15S14105   3.579   2.231   7.572  0.4936  0.7681  0.2721
  131OSM   H15S14106   3.686   2.210   7.550  0.3672 -1.2456  1.4455
  131OSM   H15T14107   3.516   2.140   7.578  1.9248 -0.3277 -0.9247
  131OSM   C16S14108   3.591   2.288   7.717 -0.1933 -1.5506 -1.1561
  131OSM   H16S14109   3.669   2.367   7.720 -1.2133 -0.5569  0.5470
  131OSM   H16T14110   3.630   2.208   7.783  3.1415  3.2105  3.0166
  131OSM   C17S14111   3.468   2.349   7.786 -0.0368 -0.3656 -0.0804
  131OSM   H17S14112   3.412   2.425   7.727 -1.8190  0.1119  2.1480
  131OSM   H17T14113   3.502   2.402   7.877 -0.7621  0.6564 -0.3900
  131OSM   C18S14114   3.384   2.231   7.833  0.2365  0.3381 -0.0764
  131OSM   H18S14115   3.442   2.138   7.854 -1.0339 -0.3972  0.2121
  131OSM   H18T14116   3.313   2.210   7.751 -2.6917  0.1724  2.4132
  131OSM   H18U14117   3.333   2.272   7.923  1.3471 -1.4766  1.4093
  131OSM    C1F14118   3.937   3.111   6.788 -0.1284  0.4474  0.3552
  131OSM     OF14119   3.919   3.230   6.772 -0.3171 -0.9412 -0.0789
  131OSM    C2F14120   4.014   3.046   6.901  0.3079  0.0834 -0.1828
  131OSM    H2F14121   4.114   3.018   6.862  0.6973 -3.1203  2.8944
  131OSM    H2G14122   3.967   2.950   6.931  0.0005  0.5646  0.8967
  131OSM    C3F14123   4.022   3.143   7.032 -0.0639  0.0725 -0.2384
  131OSM    H3F14124   3.918   3.173   7.055  0.2981  0.9007  0.3565
  131OSM    H3G14125   4.095   3.219   6.996  0.5252  0.2394  1.2778
  131OSM    C4F14126   4.087   3.075   7.156 -0.2709 -0.2354  0.1341
  131OSM    H4F14127   4.160   2.997   7.126  0.0605  0.0873  0.1038
  131OSM    H4G14128   4.007   3.020   7.210  0.1142 -0.2295  0.7132
  131OSM    C5F14129   4.159   3.176   7.245  0.0749  0.7664  0.5012
  131OSM    H5F14130   4.102   3.270   7.260 -0.9875 -0.2230  2.9326
  131OSM    H5G14131   4.253   3.199   7.190 -0.4448  0.4903 -0.5202
  131OSM    C6F14132   4.205   3.122   7.379 -0.6970 -0.5892 -0.0107
  131OSM    H6F14133   4.273   3.035   7.368 -2.6221 -2.2839  1.0918
  131OSM    H6G14134   4.123   3.109   7.454 -0.9586  2.0233  0.2120
  131OSM    C7F14135   4.297   3.220   7.454 -0.7911  0.4713  0.0731
  131OSM    H7F14136   4.229   3.303   7.480  2.3157  2.7203  1.3134
  131OSM    H7G14137   4.381   3.250   7.387  1.8273 -4.6568  0.7332
  131OSM    C8F14138   4.354   3.159   7.583  0.3493  0.9752  0.3160
  131OSM    H8F14139   4.402   3.060   7.573  1.7283  1.4649  1.8602
  131OSM    H8G14140   4.277   3.140   7.660  1.4009  0.2115  1.2058
  131OSM    C9F14141   4.473   3.233   7.637 -0.4999  0.0603  0.3315
  131OSM    H9F14142   4.556   3.256   7.569 -0.0648  0.9108  1.1399
  131OSM   C10F14143   4.481   3.275   7.766  0.0983  0.2679 -0.0373
  131OSM   H10F14144   4.571   3.329   7.800 -0.9671  1.3624  1.0598
  131OSM   C11F14145   4.381   3.265   7.879  0.2565  1.3941  0.4981
  131OSM   H11F14146   4.285   3.221   7.845  1.1030  0.2370 -0.4469
  131OSM   H11G14147   4.346   3.362   7.919 -1.5859 -0.1847  2.8772
  131OSM   C12F14148   4.426   3.178   7.997 -0.7549 -0.6541 -0.1046
  131OSM   H12F14149   4.458   3.078   7.961  1.9215  0.1860 -0.1720
  131OSM   H12G14150   4.348   3.165   8.074  2.1138  2.2277  3.4581
  131OSM   C13F14151   4.544   3.250   8.076 -0.4830 -0.2219  0.3330
  131OSM   H13F14152   4.513   3.338   8.135 -3.5570  0.2023 -1.8038
  131OSM   H13G14153   4.621   3.291   8.007 -0.0764  0.4884  1.2005
  131OSM   C14F14154   4.630   3.150   8.164 -0.4542 -0.6130  0.5585
  131OSM   H14F14155   4.703   3.211   8.221 -0.3542  0.0999 -0.3105
  131OSM   H14G14156   4.692   3.085   8.098  1.0959  1.4456 -0.0707
  131OSM   C15F14157   4.550   3.065   8.262  0.4308  0.5789 -0.0064
  131OSM   H15F14158   4.502   2.985   8.201  0.5890  0.3451  0.1756
  131OSM   H15G14159   4.472   3.122   8.317  0.4483  0.5669  0.0301
  131OSM   C16F14160   4.643   3.000   8.374  0.5542  0.2221  0.0327
  131OSM   H16F14161   4.701   3.072   8.435  0.8218 -2.2121  2.7731
  131OSM   H16G14162   4.720   2.953   8.309  0.2575 -0.2046 -0.0112
  131OSM   C17F14163   4.569   2.885   8.445  0.5641 -0.4285 -0.0778
  131OSM   H17F14164   4.516   2.821   8.370  0.2019 -0.8336  0.5258
  131OSM   H17G14165   4.491   2.926   8.513  2.0001  2.8562 -0.3249
  131OSM   C18F14166   4.655   2.800   8.532 -0.2870  0.2924  0.3678
  131OSM   H18F14167   4.599   2.711   8.566  1.5885 -1.6557 -1.4542
  131OSM   H18G14168   4.690   2.865   8.615 -1.6604  1.2618  0.2103
  131OSM   H18H14169   4.753   2.773   8.488 -1.6270 -0.3677 -2.3026
  132OSM      N14170   5.405   5.617   6.579  0.1643 -0.0809  0.6718
  132OSM    C1514171   5.541   5.637   6.644  0.1296 -0.1888  1.0358
  132OSM   H15A14172   5.627   5.630   6.578 -0.0370 -1.2040  0.9249
  132OSM   H15B14173   5.558   5.561   6.719 -0.7309  0.1393  1.5620
  132OSM   H15C14174   5.550   5.735   6.688 -0.6647  1.4930 -2.3452
  132OSM    C1414175   5.419   5.478   6.511 -0.6903 -0.4478 -0.1595
  132OSM   H14A14176   5.506   5.484   6.448 -0.9152  0.1032 -0.4248
  132OSM   H14B14177   5.334   5.452   6.450 -0.8178 -2.3264  0.7900
  132OSM   H14C14178   5.450   5.408   6.587  0.1174  1.5793  1.4387
  132OSM    C1314179   5.313   5.604   6.693 -0.0204  0.0393 -0.3522
  132OSM   H13A14180   5.207   5.595   6.676 -0.3718  1.3693  1.0137
  132OSM   H13B14181   5.329   5.691   6.755 -1.4018 -0.7267  1.1199
  132OSM   H13C14182   5.343   5.524   6.760 -1.2478  1.6897  2.2772
  132OSM    C1214183   5.370   5.726   6.484 -0.3179  0.0228 -0.5321
  132OSM   H12A14184   5.278   5.700   6.434 -0.6931  0.5631 -0.1348
  132OSM   H12B14185   5.445   5.730   6.407 -0.9358  0.1614 -1.1287
  132OSM    C1114186   5.362   5.867   6.548  0.0497  0.0215  0.8988
  132OSM   H11A14187   5.444   5.890   6.619  0.6863 -0.6752  0.3885
  132OSM   H11B14188   5.270   5.866   6.611 -0.6942  1.5527 -0.1577
  132OSM      P14189   5.467   6.020   6.375 -0.0361  0.1703 -0.5291
  132OSM    O1314190   5.547   5.918   6.301  0.3416 -0.5191  0.5527
  132OSM    O1414191   5.419   6.137   6.296  0.3821 -0.4464 -0.1243
  132OSM    O1114192   5.551   6.080   6.495 -0.0326 -0.2044  0.2616
  132OSM    O1214193   5.344   5.955   6.444 -0.1468 -0.1913 -0.5915
  132OSM    C1S14194   5.483   6.163   6.587 -0.1647  0.0289 -0.5157
  132OSM    H1S14195   5.398   6.112   6.638  0.7339 -1.4798 -0.4861
  132OSM    H1T14196   5.436   6.248   6.533 -0.9394 -0.0380  0.0454
  132OSM     NF14197   5.500   6.325   6.766 -0.3003  0.0494 -0.2023
  132OSM    HNF14198   5.504   6.423   6.745  3.1048  0.7844  3.3065
  132OSM    C2S14199   5.580   6.237   6.685 -0.3816 -0.6227 -0.7500
  132OSM    H2S14200   5.621   6.153   6.745  0.3182  0.5430  0.4234
  132OSM    C3S14201   5.679   6.317   6.610  0.0973  0.1006  0.3932
  132OSM    H3S14202   5.624   6.389   6.546  1.3091  0.4993 -0.2122
  132OSM     O314203   5.762   6.246   6.518 -0.1518  0.0783 -0.3215
  132OSM    HO314204   5.708   6.167   6.511 -2.4463  1.6109 -0.2433
  132OSM    C4S14205   5.773   6.395   6.703  0.0315  0.9750 -0.4096
  132OSM    H4S14206   5.817   6.319   6.770  0.3432 -2.2840 -4.0990
  132OSM    C5S14207   5.800   6.528   6.701  0.8519  0.4424  0.2434
  132OSM    H5S14208   5.740   6.602   6.646 -0.3258 -0.0392  0.8805
  132OSM    C6S14209   5.891   6.597   6.801  0.0475  0.2131 -0.8112
  132OSM    H6S14210   5.846   6.694   6.832 -0.4750  0.7454 -3.1852
  132OSM    H6T14211   5.994   6.623   6.768 -0.4450  0.5359 -2.0793
  132OSM    C7S14212   5.920   6.520   6.934 -0.1748 -0.6701  0.0463
  132OSM    H7S14213   6.000   6.446   6.912  0.3170 -0.0803 -0.1631
  132OSM    H7T14214   5.824   6.470   6.961 -1.2003 -0.1718 -2.5306
  132OSM    C8S14215   5.979   6.596   7.056 -0.0230 -0.0062  0.1547
  132OSM    H8S14216   6.052   6.670   7.014 -1.7828  2.0998  0.7034
  132OSM    H8T14217   6.019   6.514   7.120  1.6686  0.8133  0.1844
  132OSM    C9S14218   5.876   6.672   7.139  0.0352  0.2692  0.2609
  132OSM    H9S14219   5.799   6.598   7.172 -0.5373  0.6219 -0.2713
  132OSM    H9T14220   5.833   6.752   7.074 -0.1987 -0.3178 -0.3157
  132OSM   C10S14221   5.932   6.731   7.274 -0.9702  0.0568  0.1343
  132OSM   H10S14222   5.840   6.735   7.337 -0.9944 -1.3719  0.2136
  132OSM   H10T14223   5.974   6.833   7.273  1.9472 -1.1027 -0.7071
  132OSM   C11S14224   6.037   6.639   7.353 -0.2264  0.4035 -0.7398
  132OSM   H11S14225   6.132   6.644   7.295  0.0703  0.4713 -0.2605
  132OSM   H11T14226   6.008   6.533   7.361 -0.8194  0.3341 -3.4192
  132OSM   C12S14227   6.057   6.703   7.489 -0.2517 -0.5714  0.2696
  132OSM   H12S14228   5.962   6.697   7.546 -0.6917 -0.2464 -0.4414
  132OSM   H12T14229   6.088   6.806   7.463 -0.3170 -1.0664 -1.8165
  132OSM   C13S14230   6.172   6.643   7.565 -0.7585 -0.2547  0.1152
  132OSM   H13S14231   6.268   6.652   7.509 -1.1613 -0.6086 -0.6355
  132OSM   H13T14232   6.163   6.533   7.582 -0.7138  0.0543  2.3758
  132OSM   C14S14233   6.173   6.713   7.703  0.2866  0.5431 -0.3876
  132OSM   H14S14234   6.092   6.671   7.767 -1.0233  1.4396 -1.4407
  132OSM   H14T14235   6.165   6.821   7.680 -3.6906  0.3621 -0.3224
  132OSM   C15S14236   6.304   6.683   7.780 -0.6214  0.0544 -0.4481
  132OSM   H15S14237   6.386   6.726   7.719  0.6221  1.5638  2.2033
  132OSM   H15T14238   6.331   6.576   7.792  1.3867  0.5826 -0.0687
  132OSM   C16S14239   6.306   6.731   7.922  0.1319  0.6068  0.7024
  132OSM   H16S14240   6.230   6.812   7.934  1.7780  1.9302  2.5806
  132OSM   H16T14241   6.407   6.767   7.951 -0.6288  2.1897  1.4402
  132OSM   C17S14242   6.260   6.623   8.027  0.0738 -1.0681  1.1438
  132OSM   H17S14243   6.279   6.524   7.980  0.4049  0.8723 -3.0950
  132OSM   H17T14244   6.149   6.626   8.032  0.1404  3.3121  2.2923
  132OSM   C18S14245   6.323   6.650   8.163 -0.7677  0.3361 -0.5966
  132OSM   H18S14246   6.299   6.565   8.231 -2.8223  1.7059  0.4544
  132OSM   H18T14247   6.285   6.743   8.212  0.4263  0.7927 -0.5157
  132OSM   H18U14248   6.434   6.659   8.169 -0.6361  0.7073 -3.2039
  132OSM    C1F14249   5.417   6.287   6.859  0.1321  0.1068  0.3181
  132OSM     OF14250   5.386   6.167   6.863 -0.4018  0.1858  1.1649
  132OSM    C2F14251   5.345   6.381   6.946 -0.3610 -1.4003  0.6088
  132OSM    H2F14252   5.307   6.475   6.901  0.9966 -2.0882 -2.0810
  132OSM    H2G14253   5.423   6.409   7.019 -1.8852 -0.6088  1.9584
  132OSM    C3F14254   5.223   6.299   7.003 -1.0439 -1.0150  0.5344
  132OSM    H3F14255   5.253   6.211   7.065 -0.1775  0.3226  2.0358
  132OSM    H3G14256   5.160   6.250   6.925 -0.4091 -0.1873 -0.5110
  132OSM    C4F14257   5.121   6.376   7.091  0.1769 -0.7204  0.0624
  132OSM    H4F14258   5.036   6.314   7.126 -0.1811 -0.6592 -0.6791
  132OSM    H4G14259   5.074   6.456   7.029  1.0884 -1.3883 -1.5194
  132OSM    C5F14260   5.173   6.432   7.226  0.0942 -0.1415  1.0135
  132OSM    H5F14261   5.104   6.516   7.248 -0.4454  0.4798 -2.7503
  132OSM    H5G14262   5.267   6.490   7.209  1.1131 -2.4415 -1.5804
  132OSM    C6F14263   5.198   6.333   7.339  0.8135  0.8320 -0.0251
  132OSM    H6F14264   5.251   6.247   7.294  1.5785 -0.1487  2.6526
  132OSM    H6G14265   5.099   6.297   7.374  0.7064  2.1886  1.1394
  132OSM    C7F14266   5.272   6.395   7.455  0.5195  0.0887  0.0593
  132OSM    H7F14267   5.231   6.497   7.471  4.0635  1.8710 -1.6340
  132OSM    H7G14268   5.379   6.403   7.428  1.2075 -1.9437  2.0206
  132OSM    C8F14269   5.265   6.300   7.580  0.8655  0.2842 -0.3563
  132OSM    H8F14270   5.331   6.213   7.560 -1.4190 -1.2423 -1.4118
  132OSM    H8G14271   5.159   6.268   7.582  2.0235 -3.7556 -0.0467
  132OSM    C9F14272   5.313   6.377   7.700 -0.6054 -0.5496 -0.3356
  132OSM    H9F14273   5.409   6.424   7.677  0.0504 -0.0532  3.1339
  132OSM   C10F14274   5.252   6.404   7.823 -0.6032 -0.2485 -0.8990
  132OSM   H10F14275   5.309   6.468   7.892  2.9251 -4.0654 -0.0161
  132OSM   C11F14276   5.117   6.367   7.864 -0.3234 -0.3838 -0.0540
  132OSM   H11F14277   5.120   6.259   7.892 -1.4713 -0.2280  0.7149
  132OSM   H11G14278   5.046   6.380   7.779 -2.3937  2.4751  2.0174
  132OSM   C12F14279   5.073   6.437   7.993  0.1895  0.1384  0.3971
  132OSM   H12F14280   5.082   6.547   7.979  1.3672 -0.1274 -1.1035
  132OSM   H12G14281   5.146   6.420   8.074  0.5706 -0.5971 -0.0888
  132OSM   C13F14282   4.927   6.407   8.023 -0.0189 -1.0232 -0.1870
  132OSM   H13F14283   4.910   6.297   8.030  0.0473 -1.1604 -2.0464
  132OSM   H13G14284   4.877   6.445   7.932  0.2726 -0.5352 -0.1393
  132OSM   C14F14285   4.881   6.463   8.156  0.8659 -0.3901 -0.5244
  132OSM   H14F14286   4.915   6.569   8.162  2.8374 -1.0769  1.3738
  132OSM   H14G14287   4.922   6.395   8.234 -0.2901 -1.1915 -0.6094
  132OSM   C15F14288   4.729   6.444   8.169  0.0408 -0.0065  0.2891
  132OSM   H15F14289   4.700   6.337   8.176  1.0476 -0.2821  0.2844
  132OSM   H15G14290   4.679   6.487   8.080 -2.3759  0.7573  1.9669
  132OSM   C16F14291   4.672   6.517   8.293 -0.0229 -0.2587 -0.4857
  132OSM   H16F14292   4.736   6.487   8.378 -1.7505  1.9978  1.6691
  132OSM   H16G14293   4.570   6.482   8.320 -0.0807  0.8321  0.7136
  132OSM   C17F14294   4.677   6.673   8.292  0.9764  0.4394  0.5932
  132OSM   H17F14295   4.616   6.705   8.206 -0.3467 -0.6746  1.0933
  132OSM   H17G14296   4.784   6.702   8.286  0.5652  2.0321  0.8463
  132OSM   C18F14297   4.629   6.721   8.432  0.0710 -0.0384 -0.0057
  132OSM   H18F14298   4.635   6.832   8.439  2.7428 -0.0356 -1.6668
  132OSM   H18G14299   4.700   6.673   8.503 -1.6255  1.0342  2.4773
  132OSM   H18H14300   4.524   6.689   8.449 -0.4605  2.0502  0.7729
  133SAPE     N14301   0.960   3.160  10.793  0.3243  0.5149 -0.5452
  133SAPE   HN114302   0.890   3.114  10.856  2.0503 -2.7295 -0.8613
  133SAPE   HN214303   0.962   3.093  10.713 -0.8449  1.3954 -1.3354
  133SAPE   HN314304   1.051   3.165  10.842 -0.1957  2.5555  0.2754
  133SAPE   C1214305   0.916   3.292  10.752 -0.0345  0.4483 -0.1393
  133SAPE  H12A14306   0.864   3.347  10.834 -0.8445  2.6226 -2.0619
  133SAPE  H12B14307   0.843   3.287  10.669 -1.1058 -1.5908  0.8942
  133SAPE   C1114308   1.033   3.375  10.710  0.1426 -0.3163  0.4416
  133SAPE  H11A14309   1.001   3.477  10.679  1.5320  0.1595  0.4867
  133SAPE  H11B14310   1.091   3.333  10.625  1.0667 -0.0021  0.9010
  133SAPE     P14311   1.141   3.502  10.918 -0.5009  0.1359  0.2999
  133SAPE   O1314312   1.003   3.524  10.971  0.1135  0.2176 -0.3551
  133SAPE   O1414313   1.248   3.474  11.012 -0.4280 -0.0102 -0.0125
  133SAPE   O1214314   1.132   3.383  10.813  0.1621 -0.2607  0.5079
  133SAPE   O1114315   1.182   3.625  10.822 -0.1864 -0.0381 -0.7802
  133SAPE    C114316   1.323   3.642  10.813  0.3416  0.4594 -0.0772
  133SAPE    HA14317   1.357   3.703  10.900  0.8737  1.3900 -0.9319
  133SAPE    HB14318   1.380   3.547  10.800  0.0400  0.5940 -2.6566
  133SAPE    C214319   1.374   3.719  10.691  0.1858  0.1164  0.1352
  133SAPE    HS14320   1.343   3.826  10.690  1.6742  0.5633 -1.6342
  133SAPE   O2114321   1.313   3.660  10.572 -0.2311  0.5776  0.7551
  133SAPE   C2114322   1.183   3.686  10.551 -0.3317 -0.2044  0.4404
  133SAPE   O2214323   1.121   3.769  10.613  0.3207  0.0327  0.4764
  133SAPE   C2214324   1.122   3.601  10.435 -0.0308 -0.7541 -1.0362
  133SAPE   H2R14325   1.196   3.587  10.353 -1.5686  1.9404 -2.9727
  133SAPE   H2S14326   1.113   3.507  10.493  1.4419  0.9296  2.0654
  133SAPE    C314327   1.528   3.727  10.670 -0.2356 -0.3200 -0.2894
  133SAPE    HX14328   1.570   3.624  10.660 -0.2682 -0.3964  0.3150
  133SAPE    HY14329   1.585   3.767  10.756  0.8263  1.0755 -1.6146
  133SAPE   O3114330   1.563   3.814  10.563 -0.4788  0.0025  0.3290
  133SAPE   C3114331   1.634   3.767  10.463 -0.4470  0.2770  0.5289
  133SAPE   O3214332   1.675   3.653  10.459 -0.8858 -0.4181 -0.9335
  133SAPE   C3214333   1.662   3.874  10.361 -0.9002 -0.1344 -0.2650
  133SAPE   H2X14334   1.765   3.907  10.384 -0.9857 -0.5635  0.7604
  133SAPE   H2Y14335   1.585   3.954  10.371 -2.1047 -1.4243  0.9895
  133SAPE   C2314336   0.983   3.641  10.375  0.2431  0.0189  0.6522
  133SAPE   H3R14337   0.993   3.740  10.326 -1.7209  0.2065  0.6171
  133SAPE   H3S14338   0.912   3.665  10.457  1.3358  2.5365  0.9127
  133SAPE   C2414339   0.914   3.537  10.290  0.2256  0.7514  0.0947
  133SAPE   H4R14340   0.984   3.494  10.215  1.1224  1.2666  0.6163
  133SAPE   H4S14341   0.828   3.584  10.237 -1.0516 -1.9785 -0.3140
  133SAPE   C2514342   0.851   3.434  10.374  0.2884  0.1503 -0.0579
  133SAPE   H5R14343   0.785   3.459  10.458 -0.2169 -1.8757  0.1666
  133SAPE   C2614344   0.875   3.300  10.362  1.2821  0.0062 -0.1188
  133SAPE   H6R14345   0.818   3.232  10.428  0.8078  0.8210  0.3271
  133SAPE   C2714346   0.973   3.216  10.281 -0.2944  0.1699  0.2719
  133SAPE   H7R14347   1.020   3.140  10.347 -0.6903  1.0872  1.6277
  133SAPE   H7S14348   1.054   3.280  10.240 -1.5565  2.1118  0.7398
  133SAPE   C2814349   0.895   3.145  10.163 -0.9554 -0.4175  0.4523
  133SAPE   H8R14350   0.818   3.078  10.205 -0.4325  0.5487  3.0814
  133SAPE   C2914351   0.913   3.157  10.030 -0.3277 -0.5584  0.3145
  133SAPE   H9R14352   0.849   3.093   9.968 -0.3051  0.6594 -1.0046
  133SAPE  C21014353   1.018   3.239   9.952  0.2079 -0.6168 -0.3929
  133SAPE  H10R14354   1.026   3.190   9.852  1.9633 -2.7060  0.7381
  133SAPE  H10S14355   1.113   3.216  10.005 -0.3912  0.6595  1.2828
  133SAPE  C21114356   0.995   3.390   9.938  0.6786  0.6998 -0.1211
  133SAPE  H11R14357   0.973   3.434  10.037  0.0254 -1.3106  0.6432
  133SAPE  C21214358   0.982   3.464   9.823 -0.1654  1.1889  0.4394
  133SAPE  H12R14359   0.978   3.574   9.826  1.9570  1.3033  0.0587
  133SAPE  C21314360   0.998   3.406   9.677  0.1396 -0.3642 -0.0242
  133SAPE  H13R14361   0.939   3.312   9.666  0.2868 -0.3298 -1.1636
  133SAPE  H13S14362   1.105   3.376   9.674  0.5724  1.0597  0.8483
  133SAPE  C21414363   0.952   3.506   9.567 -0.0272  0.0184  0.1856
  133SAPE  H14R14364   0.894   3.595   9.596 -1.3166 -0.9452  0.6254
  133SAPE  C21514365   0.985   3.483   9.436  0.3299  0.5637  0.7017
  133SAPE  H15R14366   0.944   3.553   9.362 -0.1901  0.2650  0.7091
  133SAPE  C21614367   1.059   3.364   9.375  0.4899  0.1012 -0.1858
  133SAPE  H16R14368   1.085   3.289   9.453 -0.0982 -1.0888 -1.1206
  133SAPE  H16S14369   1.147   3.391   9.313  0.3488  1.2310  0.0922
  133SAPE  C21714370   0.974   3.298   9.266  0.1973  0.2095 -0.2354
  133SAPE  H17R14371   0.964   3.367   9.180  0.4766 -0.0079 -0.4434
  133SAPE  H17S14372   0.876   3.260   9.302 -0.6809  1.3312 -1.4475
  133SAPE  C21814373   1.058   3.175   9.208 -0.4134 -0.2691 -0.4001
  133SAPE  H18R14374   1.093   3.110   9.292  1.2873  2.2752  0.9155
  133SAPE  H18S14375   1.151   3.208   9.158  0.3448 -0.7549  0.6619
  133SAPE  C21914376   0.982   3.094   9.100  0.4550  0.1200  0.1646
  133SAPE  H19R14377   1.053   3.020   9.057 -0.0467 -2.0840  2.9943
  133SAPE  H19S14378   0.948   3.156   9.014  0.3188  0.1709  0.2550
  133SAPE  C22014379   0.863   3.013   9.154 -0.2494  0.4607 -0.6081
  133SAPE  H20R14380   0.784   3.078   9.197 -1.0085 -1.2203  0.6459
  133SAPE  H20S14381   0.896   2.950   9.240 -2.6320  1.9958  1.5177
  133SAPE  H20T14382   0.823   2.944   9.076 -0.9918  0.8013 -0.5330
  133SAPE   C3314383   1.672   3.824  10.223  0.7086  0.2793 -0.2864
  133SAPE   H3X14384   1.662   3.914  10.158  0.9773  1.2235  0.9505
  133SAPE   H3Y14385   1.575   3.773  10.203 -0.3557  2.0838  0.0828
  133SAPE   C3414386   1.790   3.739  10.188 -0.3506  0.9579  0.0187
  133SAPE   H4X14387   1.763   3.660  10.114  0.2268 -0.7624  1.5951
  133SAPE   H4Y14388   1.841   3.685  10.270 -0.5748  1.2785  0.3707
  133SAPE   C3514389   1.904   3.828  10.136  0.0268  0.0001  0.3092
  133SAPE   H5X14390   1.948   3.890  10.217 -1.6836  1.1339  0.3952
  133SAPE   H5Y14391   1.857   3.893  10.059 -1.4773  1.1847  2.1925
  133SAPE   C3614392   2.010   3.741  10.070 -0.1719 -0.0141  0.2635
  133SAPE   H6X14393   1.977   3.670   9.991  2.1632 -0.1613 -0.5981
  133SAPE   H6Y14394   2.045   3.675  10.153  0.5056  0.7805  0.6114
  133SAPE   C3714395   2.127   3.808  10.001 -0.2098  0.2417 -0.3650
  133SAPE   H7X14396   2.187   3.861  10.078  0.3587 -0.9204 -0.0036
  133SAPE   H7Y14397   2.093   3.896   9.942 -1.8257  0.2432  0.5205
  133SAPE   C3814398   2.206   3.708   9.917 -0.1463  0.2729 -0.5679
  133SAPE   H8X14399   2.145   3.662   9.836 -0.3163 -0.3949 -0.0663
  133SAPE   H8Y14400   2.245   3.622   9.976 -1.1094  0.0118 -0.3002
  133SAPE   C3914401   2.321   3.791   9.842  0.8999 -0.1236 -0.0431
  133SAPE   H9X14402   2.377   3.847   9.919 -0.1101  1.9114 -0.7483
  133SAPE   H9Y14403   2.277   3.858   9.765  0.0281 -1.3154 -0.5979
  133SAPE  C31014404   2.431   3.705   9.778 -0.1211  0.2442  0.0109
  133SAPE  H10X14405   2.451   3.610   9.832 -0.4646  0.0155 -0.2595
  133SAPE  H10Y14406   2.528   3.759   9.777  0.4753 -0.7425  2.5716
  133SAPE  C31114407   2.391   3.675   9.628  0.2584 -0.2402  0.1679
  133SAPE  H11X14408   2.293   3.623   9.626  0.5626 -0.7772 -1.5383
  133SAPE  H11Y14409   2.458   3.600   9.581 -0.4642 -0.6520 -0.2240
  133SAPE  C31214410   2.382   3.790   9.529 -0.0005  0.0562  0.9760
  133SAPE  H12X14411   2.465   3.858   9.557  1.3127 -1.5430  1.0278
  133SAPE  H12Y14412   2.283   3.839   9.546  0.3743  1.6433 -1.2838
  133SAPE  C31314413   2.380   3.756   9.376  0.3608  0.5356 -0.4011
  133SAPE  H13X14414   2.455   3.678   9.355  2.6189  2.5800 -0.1318
  133SAPE  H13Y14415   2.407   3.850   9.323  0.8724  0.7785  0.2780
  133SAPE  C31414416   2.244   3.702   9.326  0.0398 -0.4228  0.1674
  133SAPE  H14X14417   2.169   3.782   9.344 -0.0963 -1.1000  2.6962
  133SAPE  H14Y14418   2.224   3.611   9.386  0.6478  0.8989  2.4200
  133SAPE  C31514419   2.254   3.668   9.175 -0.2555 -0.0608 -0.2750
  133SAPE  H15X14420   2.356   3.637   9.145 -0.7521 -0.1873 -1.8888
  133SAPE  H15Y14421   2.223   3.762   9.125  1.0101  0.3880 -0.2140
  133SAPE  C31614422   2.164   3.549   9.135 -0.3422  0.4698  0.6433
  133SAPE  H16X14423   2.075   3.534   9.201  0.9258  0.5754  2.4197
  133SAPE  H16Y14424   2.215   3.456   9.165 -0.2138  1.2175  2.8756
  133SAPE  C31714425   2.123   3.537   8.990 -0.7506 -0.4074  0.1534
  133SAPE  H17X14426   2.214   3.527   8.927  0.9583  3.4753  1.8361
  133SAPE  H17Y14427   2.071   3.624   8.945 -0.2007 -0.2624 -0.2057
  133SAPE  C31814428   2.040   3.413   8.962 -0.1119 -0.6720  0.4206
  133SAPE  H18X14429   2.061   3.380   8.858  3.5170 -2.7976  1.7449
  133SAPE  H18Y14430   1.934   3.445   8.975  0.4211  1.0316  0.7028
  133SAPE  H18Z14431   2.059   3.326   9.028  2.3541 -0.8589 -0.4929
  134SAPE     N14432   4.354   4.465  10.595 -0.0125  0.3933 -0.5561
  134SAPE   HN114433   4.293   4.519  10.530  0.7863  0.8279 -0.9447
  134SAPE   HN214434   4.404   4.522  10.666  0.9780  2.0483 -2.5226
  134SAPE   HN314435   4.424   4.421  10.533 -1.0718 -0.8767 -0.8629
  134SAPE   C1214436   4.255   4.369  10.661 -0.0338 -0.1348  0.6447
  134SAPE  H12A14437   4.314   4.283  10.698  0.8456 -0.6743 -1.9378
  134SAPE  H12B14438   4.198   4.328  10.575 -2.6558  1.6494  1.4714
  134SAPE   C1114439   4.166   4.439  10.758 -0.0839 -0.4664  0.0679
  134SAPE  H11A14440   4.223   4.491  10.838  0.1654  0.3952 -0.6557
  134SAPE  H11B14441   4.095   4.370  10.809 -1.4278 -0.6011 -1.9194
  134SAPE     P14442   3.988   4.635  10.754  0.0166  0.3829 -0.2661
  134SAPE   O1314443   3.945   4.579  10.886  0.1633 -0.0804  0.0673
  134SAPE   O1414444   4.042   4.772  10.760  1.1494 -0.2060  0.0658
  134SAPE   O1214445   4.083   4.535  10.692 -0.2147 -0.1363 -0.3314
  134SAPE   O1114446   3.867   4.633  10.653 -0.2719  0.2371  0.0457
  134SAPE    C114447   3.848   4.512  10.577  0.1389 -0.4489 -0.5592
  134SAPE    HA14448   3.838   4.416  10.631  2.1600 -1.2609 -1.5690
  134SAPE    HB14449   3.744   4.523  10.540  0.3810  2.7185 -0.4513
  134SAPE    C214450   3.928   4.494  10.448 -0.2318 -0.3465 -0.2624
  134SAPE    HS14451   4.028   4.463  10.486 -0.5384 -0.8376  0.1290
  134SAPE   O2114452   3.922   4.617  10.370  0.1551 -0.4225  0.3876
  134SAPE   C2114453   4.026   4.702  10.374  0.2670 -0.0117  0.1441
  134SAPE   O2214454   4.131   4.676  10.429  0.1458 -0.1032 -0.2393
  134SAPE   C2214455   3.994   4.828  10.308  0.1335  0.0691 -0.4325
  134SAPE   H2R14456   3.888   4.850  10.331 -0.3264 -3.8292  1.6361
  134SAPE   H2S14457   4.045   4.913  10.359 -1.5397  0.1360  1.1724
  134SAPE    C314458   3.855   4.379  10.369 -0.6474  0.1417  0.7159
  134SAPE    HX14459   3.773   4.430  10.315  0.7093  1.6380  0.0183
  134SAPE    HY14460   3.810   4.300  10.433  0.3244 -0.2098  0.9712
  134SAPE   O3114461   3.924   4.323  10.260 -0.3231  0.0270  0.5811
  134SAPE   C3114462   4.012   4.237  10.300 -0.1788  0.6977  0.0455
  134SAPE   O3214463   4.030   4.183  10.413  0.5064 -0.0970  0.5228
  134SAPE   C3214464   4.098   4.205  10.175 -0.0346  0.3999 -0.3790
  134SAPE   H2X14465   4.061   4.255  10.083 -0.9985  0.9256  0.2946
  134SAPE   H2Y14466   4.114   4.097  10.157  1.2590  0.2955  1.2683
  134SAPE   C2314467   4.032   4.810  10.157  0.4096 -0.1226 -0.1538
  134SAPE   H3R14468   4.000   4.712  10.115  0.2595 -0.2536  0.2615
  134SAPE   H3S14469   4.143   4.810  10.148  0.4769 -1.1351  0.6955
  134SAPE   C2414470   3.967   4.916  10.067  0.1120  0.0839  1.1902
  134SAPE   H4R14471   4.013   5.015  10.088  1.3466  0.0489 -1.2485
  134SAPE   H4S14472   3.858   4.917  10.089  0.2581 -0.8284  2.0148
  134SAPE   C2514473   3.994   4.885   9.923 -0.1565  0.2830 -0.3474
  134SAPE   H5R14474   3.986   4.778   9.903  0.0426  0.5204 -1.7387
  134SAPE   C2614475   4.038   4.966   9.826 -0.4259  0.3831  0.2007
  134SAPE   H6R14476   4.061   4.926   9.726 -0.4494 -1.4316  0.8936
  134SAPE   C2714477   4.066   5.117   9.838  0.4993 -0.3306  0.4269
  134SAPE   H7R14478   4.020   5.156   9.932  0.1433  1.9339 -0.6450
  134SAPE   H7S14479   4.011   5.173   9.760  0.1059 -2.3665 -0.7830
  134SAPE   C2814480   4.204   5.169   9.847 -0.7015  0.2381  0.2158
  134SAPE   H8R14481   4.254   5.195   9.942  1.7638  0.7940 -1.1907
  134SAPE   C2914482   4.296   5.169   9.746  0.0222  0.3665  0.6674
  134SAPE   H9R14483   4.396   5.210   9.766 -0.3987  1.1234  1.2561
  134SAPE  C21014484   4.269   5.124   9.607 -0.0819  0.4532  0.1497
  134SAPE  H10R14485   4.160   5.110   9.593  0.1460 -1.4759  0.1852
  134SAPE  H10S14486   4.311   5.021   9.598  1.3101  1.1356 -1.4276
  134SAPE  C21114487   4.339   5.206   9.501 -0.3698 -0.0059  0.3437
  134SAPE  H11R14488   4.444   5.224   9.525 -0.4001 -1.7382  1.8685
  134SAPE  C21214489   4.288   5.251   9.383  0.3009  0.7329 -0.7160
  134SAPE  H12R14490   4.351   5.319   9.323  1.4764  1.7287  1.6080
  134SAPE  C21314491   4.147   5.243   9.336  0.1213 -0.3250  0.0033
  134SAPE  H13R14492   4.116   5.344   9.300  0.9941 -0.3260 -0.7729
  134SAPE  H13S14493   4.075   5.217   9.417 -0.6879  0.0579 -0.5783
  134SAPE  C21414494   4.122   5.134   9.238 -0.0364  0.4093  0.6954
  134SAPE  H14R14495   4.196   5.053   9.236  0.4313  0.7983  2.2094
  134SAPE  C21514496   4.016   5.125   9.160 -0.0611  0.4965 -0.9517
  134SAPE  H15R14497   4.016   5.052   9.077 -1.9124  1.5236 -1.8930
  134SAPE  C21614498   3.908   5.221   9.148  0.9412 -0.1005  0.4352
  134SAPE  H16R14499   3.921   5.316   9.205  2.4206 -0.2656  0.4078
  134SAPE  H16S14500   3.815   5.179   9.190  0.1326  1.6784  0.4718
  134SAPE  C21714501   3.896   5.260   8.998  0.3187 -0.2809 -0.3704
  134SAPE  H17R14502   3.809   5.329   8.999 -1.1465 -2.0894  1.0531
  134SAPE  H17S14503   3.877   5.169   8.937  2.1356 -2.5492  2.2832
  134SAPE  C21814504   4.016   5.333   8.935  0.5105  0.4230 -0.3542
  134SAPE  H18R14505   3.991   5.342   8.827 -2.5116  3.6961  0.5056
  134SAPE  H18S14506   4.103   5.265   8.946  0.5602  0.4026 -0.8509
  134SAPE  C21914507   4.061   5.465   8.990 -0.5370  0.0727 -0.2324
  134SAPE  H19R14508   4.170   5.470   8.970 -0.4208 -0.8818  0.1570
  134SAPE  H19S14509   4.062   5.461   9.101  1.3419  1.0014 -0.1855
  134SAPE  C22014510   3.971   5.587   8.946  0.2561 -0.9956 -0.6852
  134SAPE  H20R14511   3.864   5.557   8.957  0.7538 -2.2613  0.8929
  134SAPE  H20S14512   3.993   5.621   8.842 -2.0242  0.5588 -0.7121
  134SAPE  H20T14513   3.980   5.671   9.017  1.4027 -0.6785 -1.1912
  134SAPE   C3314514   4.245   4.263  10.187 -0.4001  0.4968 -0.3746
  134SAPE   H3X14515   4.296   4.225  10.096  0.7352  0.8828  0.0840
  134SAPE   H3Y14516   4.292   4.214  10.275  0.7725  1.1921 -0.5984
  134SAPE   C3414517   4.269   4.412  10.195 -0.4734 -1.2862  0.4746
  134SAPE   H4X14518   4.376   4.418  10.224 -0.5266 -2.6316  1.0120
  134SAPE   H4Y14519   4.205   4.456  10.274 -0.4850  2.2114 -1.3946
  134SAPE   C3514520   4.225   4.497  10.080  0.4247  0.7540 -0.9947
  134SAPE   H5X14521   4.256   4.601  10.107 -0.9188  0.8116  0.3918
  134SAPE   H5Y14522   4.115   4.510  10.070  0.3784  2.1576  0.9014
  134SAPE   C3614523   4.283   4.448   9.948  0.3282  0.1410  1.0089
  134SAPE   H6X14524   4.244   4.346   9.926  2.3688 -0.2982 -0.6652
  134SAPE   H6Y14525   4.394   4.441   9.946  0.2776 -0.2459 -0.8618
  134SAPE   C3714526   4.233   4.539   9.838  0.1168 -0.6968  0.8077
  134SAPE   H7X14527   4.258   4.640   9.875 -2.8164 -0.2103  1.6010
  134SAPE   H7Y14528   4.123   4.533   9.830  0.1679 -2.2547  0.9953
  134SAPE   C3814529   4.307   4.508   9.705 -0.2625  0.6041  0.1160
  134SAPE   H8X14530   4.249   4.421   9.667 -0.0336 -0.5068  2.2039
  134SAPE   H8Y14531   4.417   4.497   9.711 -0.4063 -2.4947 -1.8278
  134SAPE   C3914532   4.286   4.629   9.615  0.2974 -0.2160 -0.0785
  134SAPE   H9X14533   4.342   4.714   9.660 -0.1467 -0.4996  1.0448
  134SAPE   H9Y14534   4.180   4.664   9.616  0.5074  0.4403 -0.4376
  134SAPE  C31014535   4.338   4.598   9.474 -0.5490  1.0898 -0.7760
  134SAPE  H10X14536   4.273   4.524   9.424 -0.5131 -0.5133  1.4790
  134SAPE  H10Y14537   4.439   4.552   9.472 -0.0014  2.3160 -2.9498
  134SAPE  C31114538   4.327   4.711   9.377 -0.4895  0.4410  0.5275
  134SAPE  H11X14539   4.410   4.781   9.398 -0.2880  0.1112  0.8365
  134SAPE  H11Y14540   4.243   4.782   9.395  0.4724  1.6289  0.3536
  134SAPE  C31214541   4.336   4.661   9.233  0.1822 -0.5718 -0.0785
  134SAPE  H12X14542   4.250   4.597   9.202  0.9033 -1.1040 -0.9831
  134SAPE  H12Y14543   4.428   4.599   9.239 -0.5466 -1.7844 -1.1440
  134SAPE  C31314544   4.355   4.779   9.139  0.2466 -0.6398  0.8157
  134SAPE  H13X14545   4.433   4.850   9.173  2.1004 -1.7773 -0.9819
  134SAPE  H13Y14546   4.269   4.850   9.135 -0.0062 -1.0459 -1.4657
  134SAPE  C31414547   4.389   4.744   8.995  0.2927 -0.5401 -0.0572
  134SAPE  H14X14548   4.480   4.680   9.000 -0.8470 -2.1595  0.4837
  134SAPE  H14Y14549   4.407   4.845   8.953  0.0387 -0.0114  1.0860
  134SAPE  C31514550   4.291   4.665   8.915  0.0169 -0.4465 -0.4738
  134SAPE  H15X14551   4.205   4.734   8.916  0.5379  0.2042 -0.2841
  134SAPE  H15Y14552   4.264   4.566   8.958  2.0739 -1.1374 -0.6806
  134SAPE  C31614553   4.337   4.637   8.769  0.2877  0.4600  0.2431
  134SAPE  H16X14554   4.432   4.580   8.766  0.0028  0.0799 -1.6343
  134SAPE  H16Y14555   4.375   4.728   8.717  0.8247  0.1338  0.0662
  134SAPE  C31714556   4.223   4.578   8.684 -0.0955  0.1202 -0.5808
  134SAPE  H17X14557   4.134   4.640   8.705 -0.9125 -1.6809  1.5073
  134SAPE  H17Y14558   4.193   4.475   8.711 -1.5852  0.3654 -1.2591
  134SAPE  C31814559   4.257   4.592   8.534  0.6389  0.2632 -0.4543
  134SAPE  H18X14560   4.342   4.523   8.515  0.8734  0.0997  1.1396
  134SAPE  H18Y14561   4.297   4.695   8.521  0.9069  0.5965  2.7159
  134SAPE  H18Z14562   4.177   4.577   8.458  1.3827 -0.7291 -1.0550
  135SAPE     N14563   3.801   2.969  10.484  0.0700  0.1475 -0.4910
  135SAPE   HN114564   3.764   3.021  10.402 -1.6460  2.8317  1.8687
  135SAPE   HN214565   3.718   2.942  10.541  0.9726 -2.3066 -0.2908
  135SAPE   HN314566   3.841   3.039  10.550 -0.7613  1.2259 -1.1070
  135SAPE   C1214567   3.892   2.848  10.459 -0.0120 -0.0271  0.0936
  135SAPE  H12A14568   3.905   2.793  10.555  0.4776 -1.8963 -1.0198
  135SAPE  H12B14569   3.992   2.887  10.430  0.7461 -1.7190  0.3720
  135SAPE   C1114570   3.829   2.748  10.360  1.4354  0.5810 -0.6034
  135SAPE  H11A14571   3.889   2.656  10.343  1.5468  0.4725  0.3554
  135SAPE  H11B14572   3.814   2.800  10.263  0.0649 -1.0046 -1.2698
  135SAPE     P14573   3.639   2.561  10.431  0.2481  0.2192  0.1749
  135SAPE   O1314574   3.725   2.494  10.535  0.0288  0.0394  0.1870
  135SAPE   O1414575   3.493   2.578  10.458  0.3358 -0.1952 -0.6085
  135SAPE   O1214576   3.698   2.708  10.414  0.5339  0.4674 -0.7502
  135SAPE   O1114577   3.655   2.488  10.293 -0.1753  0.5206 -0.1254
  135SAPE    C114578   3.597   2.560  10.178 -0.4623  0.5285 -0.8278
  135SAPE    HA14579   3.488   2.544  10.168  0.0333 -4.3378  0.1599
  135SAPE    HB14580   3.630   2.665  10.191  2.5729 -0.5530  0.8852
  135SAPE    C214581   3.635   2.498  10.043  0.2208  0.6497  0.9252
  135SAPE    HS14582   3.579   2.402  10.045 -0.1935  0.8895  3.1409
  135SAPE   O2114583   3.776   2.472  10.028 -0.0152  0.2547  0.2485
  135SAPE   C2114584   3.809   2.345  10.039  0.4101  0.2066  0.4610
  135SAPE   O2214585   3.743   2.247  10.063 -0.1605  0.1209 -0.2906
  135SAPE   C2214586   3.950   2.335   9.986 -0.6607  0.0903  0.1063
  135SAPE   H2R14587   3.942   2.290   9.885  2.7080 -0.5492  0.0437
  135SAPE   H2S14588   3.998   2.435   9.977 -0.0269 -0.3977 -2.0720
  135SAPE    C314589   3.571   2.583   9.926  0.2245 -0.3232 -0.1755
  135SAPE    HX14590   3.628   2.678   9.938  0.2574 -0.5885  2.1025
  135SAPE    HY14591   3.465   2.602   9.954  0.5456 -0.4107  1.1465
  135SAPE   O3114592   3.588   2.509   9.802 -0.0738  0.4916  0.3710
  135SAPE   C3114593   3.634   2.588   9.703 -0.4994  0.3428 -0.7063
  135SAPE   O3214594   3.660   2.709   9.715  0.1369 -0.1450  0.5338
  135SAPE   C3214595   3.661   2.502   9.578  0.4298 -0.2546 -0.5635
  135SAPE   H2X14596   3.573   2.435   9.563  0.9139 -1.3974  1.4574
  135SAPE   H2Y14597   3.757   2.449   9.594 -0.0770 -1.2970 -0.9671
  135SAPE   C2314598   4.052   2.262  10.085  0.1867  0.0395  0.2013
  135SAPE   H3R14599   4.001   2.173  10.126  2.1558  0.5201  3.9126
  135SAPE   H3S14600   4.074   2.317  10.179  1.4036  1.6400 -0.9753
  135SAPE   C2414601   4.182   2.216  10.024  0.0551  0.2031  0.4248
  135SAPE   H4R14602   4.164   2.130   9.956 -0.9530  0.4970  0.3083
  135SAPE   H4S14603   4.244   2.184  10.110 -1.5702  1.4485  2.0862
  135SAPE   C2514604   4.236   2.342   9.968 -0.3530 -0.1755  0.4059
  135SAPE   H5R14605   4.289   2.404  10.042  1.5997 -0.3030 -0.8541
  135SAPE   C2614606   4.246   2.373   9.837  0.5566  0.9318  0.4117
  135SAPE   H6R14607   4.299   2.465   9.810  4.5300 -1.4336 -0.1854
  135SAPE   C2714608   4.195   2.283   9.726 -0.8522 -0.3296 -0.2428
  135SAPE   H7R14609   4.144   2.192   9.764 -0.4619 -0.7224 -0.6533
  135SAPE   H7S14610   4.279   2.246   9.664 -2.1486 -2.8046 -0.5790
  135SAPE   C2814611   4.093   2.354   9.641 -0.5731 -0.4747  0.1975
  135SAPE   H8R14612   4.015   2.413   9.691 -1.4241 -0.9315 -0.5805
  135SAPE   C2914613   4.078   2.350   9.506 -1.0054  0.5451 -0.0720
  135SAPE   H9R14614   3.991   2.402   9.464  0.4748  2.9101 -0.2850
  135SAPE  C21014615   4.166   2.271   9.413 -0.5100 -0.1687  0.5322
  135SAPE  H10R14616   4.115   2.185   9.364 -0.0419 -0.6970  0.9573
  135SAPE  H10S14617   4.259   2.233   9.461  0.7980  0.4365 -1.4453
  135SAPE  C21114618   4.211   2.368   9.311 -0.8563 -0.2332 -1.1713
  135SAPE  H11R14619   4.300   2.425   9.342 -1.4846  0.7992 -1.2315
  135SAPE  C21214620   4.156   2.377   9.186  0.4821 -0.1707  0.1535
  135SAPE  H12R14621   4.201   2.444   9.111  0.5938 -0.2036  0.1914
  135SAPE  C21314622   4.035   2.296   9.133  0.4709 -0.7161  0.9337
  135SAPE  H13R14623   3.968   2.264   9.215  1.6160 -1.2629  1.6765
  135SAPE  H13S14624   4.071   2.197   9.097 -0.6164  0.1366 -2.6982
  135SAPE  C21414625   3.962   2.358   9.018 -0.0258  0.0377  0.7781
  135SAPE  H14R14626   3.890   2.434   9.051  1.2326  0.7130  2.0117
  135SAPE  C21514627   3.970   2.328   8.888  0.1666 -0.3246 -0.5903
  135SAPE  H15R14628   3.919   2.399   8.821  1.8983  1.1376 -0.4065
  135SAPE  C21614629   4.069   2.227   8.830 -0.0226 -0.7728 -0.5503
  135SAPE  H16R14630   4.032   2.179   8.737  0.1234 -3.3616  0.6932
  135SAPE  H16S14631   4.076   2.140   8.898 -3.7486 -0.2265  0.6569
  135SAPE  C21714632   4.203   2.293   8.804  0.1162 -0.2746 -0.6260
  135SAPE  H17R14633   4.237   2.329   8.903  0.8005  2.2126 -1.7362
  135SAPE  H17S14634   4.190   2.386   8.744  0.9628  1.3802  1.6925
  135SAPE  C21814635   4.300   2.212   8.719 -0.4144 -0.4149 -0.3032
  135SAPE  H18R14636   4.324   2.123   8.781  0.2015  1.2395  1.9131
  135SAPE  H18S14637   4.391   2.276   8.718  0.7314 -2.0344 -2.3702
  135SAPE  C21914638   4.266   2.185   8.573 -0.3060  0.1763  0.3540
  135SAPE  H19R14639   4.174   2.123   8.576 -0.9910  1.1776  0.3427
  135SAPE  H19S14640   4.347   2.118   8.539  1.0722  1.1621  1.6547
  135SAPE  C22014641   4.245   2.310   8.482  0.2154  0.8344  0.5733
  135SAPE  H20R14642   4.162   2.370   8.524  0.6145  0.5105  1.8760
  135SAPE  H20S14643   4.214   2.296   8.377 -1.5643  2.4346  0.8662
  135SAPE  H20T14644   4.332   2.378   8.469  0.5916  0.2021 -0.2402
  135SAPE   C3314645   3.685   2.601   9.459  0.7258 -0.2177 -0.1036
  135SAPE   H3X14646   3.779   2.659   9.477  1.4455 -1.0546 -1.1363
  135SAPE   H3Y14647   3.601   2.673   9.455  0.7189 -0.3692 -4.0950
  135SAPE   C3414648   3.701   2.534   9.325 -0.5139 -0.6347  0.1391
  135SAPE   H4X14649   3.600   2.499   9.297  0.1475 -1.3539 -1.3920
  135SAPE   H4Y14650   3.743   2.432   9.333 -3.5012 -1.7899  1.8027
  135SAPE   C3514651   3.764   2.625   9.217 -0.0912 -0.5725 -0.1521
  135SAPE   H5X14652   3.872   2.599   9.207  0.4396  1.0712  1.0843
  135SAPE   H5Y14653   3.765   2.728   9.260  1.6454 -0.3307 -0.7164
  135SAPE   C3614654   3.695   2.623   9.083 -0.7601 -0.1254 -0.4498
  135SAPE   H6X14655   3.593   2.664   9.091 -0.5613  0.2842 -0.0207
  135SAPE   H6Y14656   3.687   2.518   9.046 -0.7347 -0.0475 -0.6767
  135SAPE   C3714657   3.776   2.695   8.978  0.8908  0.5150 -0.3559
  135SAPE   H7X14658   3.885   2.680   8.990  0.7960  1.6127  2.2460
  135SAPE   H7Y14659   3.752   2.803   8.990 -1.4653 -0.3161  3.1244
  135SAPE   C3814660   3.751   2.650   8.828 -0.0141 -0.3016  0.0081
  135SAPE   H8X14661   3.785   2.545   8.813 -1.7867 -1.1549  1.7118
  135SAPE   H8Y14662   3.804   2.716   8.757 -1.1056 -0.4125 -0.9209
  135SAPE   C3914663   3.603   2.669   8.789 -0.3360 -0.0954  0.3823
  135SAPE   H9X14664   3.561   2.754   8.846 -4.1535 -1.5230 -0.1238
  135SAPE   H9Y14665   3.546   2.578   8.819 -1.5197  0.1990 -0.9203
  135SAPE  C31014666   3.597   2.701   8.643 -0.3794  0.4634 -0.3120
  135SAPE  H10X14667   3.657   2.621   8.596  1.1924  0.1800  2.1060
  135SAPE  H10Y14668   3.649   2.797   8.621 -0.7787  1.1052  1.4990
  135SAPE  C31114669   3.460   2.705   8.585 -0.1527  0.2240  0.1178
  135SAPE  H11X14670   3.458   2.762   8.489  0.6504  1.2390  0.6859
  135SAPE  H11Y14671   3.396   2.771   8.648 -0.4128 -1.2097  1.3948
  135SAPE  C31214672   3.392   2.559   8.561  0.5687  0.6749  0.1831
  135SAPE  H12X14673   3.405   2.513   8.661 -0.1459 -0.3963 -0.2037
  135SAPE  H12Y14674   3.445   2.504   8.481 -0.0986  1.3184 -0.7127
  135SAPE  C31314675   3.244   2.576   8.530 -0.5472  0.1388  0.6351
  135SAPE  H13X14676   3.200   2.618   8.623  1.6206  2.9498  0.4475
  135SAPE  H13Y14677   3.202   2.474   8.523 -0.8335  0.2773  0.3485
  135SAPE  C31414678   3.192   2.670   8.420  0.6747 -0.2707  0.4365
  135SAPE  H14X14679   3.278   2.713   8.364  0.2415  1.4292  1.0410
  135SAPE  H14Y14680   3.141   2.760   8.460 -1.7022 -1.6951  0.6765
  135SAPE  C31514681   3.103   2.602   8.318  0.3640 -0.5553 -0.2281
  135SAPE  H15X14682   3.057   2.686   8.264 -0.0976 -0.6471  0.0209
  135SAPE  H15Y14683   3.013   2.557   8.365 -1.5858  1.0005 -2.4065
  135SAPE  C31614684   3.172   2.509   8.217 -0.1081  0.0766 -0.2932
  135SAPE  H16X14685   3.104   2.441   8.162  0.1067 -1.8521  1.7724
  135SAPE  H16Y14686   3.250   2.449   8.270  1.3436 -0.3201 -2.7746
  135SAPE  C31714687   3.254   2.586   8.114 -0.0324  0.3295 -0.5638
  135SAPE  H17X14688   3.319   2.505   8.077  0.6780 -0.0385  1.4296
  135SAPE  H17Y14689   3.333   2.650   8.159 -0.2803 -0.3361  0.8305
  135SAPE  C31814690   3.160   2.666   8.016  0.0723 -0.6217  0.3330
  135SAPE  H18X14691   3.104   2.594   7.952  3.2562 -2.5627 -0.4161
  135SAPE  H18Y14692   3.228   2.713   7.942  0.3334 -3.4383 -1.2835
  135SAPE  H18Z14693   3.093   2.740   8.064  1.2318  0.1776  0.7380
  136SAPE     N14694   5.979   3.049  11.203  0.4456  0.4446 -0.4097
  136SAPE   HN114695   6.053   3.117  11.229  1.2156 -0.3762 -0.4651
  136SAPE   HN214696   5.908   3.075  11.131  0.4966  0.9557 -0.2761
  136SAPE   HN314697   5.916   3.045  11.286 -1.7223 -1.9912 -2.0802
  136SAPE   C1214698   6.025   2.911  11.163  0.9039  0.0911  0.5315
  136SAPE  H12A14699   5.956   2.837  11.209 -1.1797  0.5680 -1.7226
  136SAPE  H12B14700   6.128   2.909  11.205  0.9921  0.5963  0.3399
  136SAPE   C1114701   6.041   2.885  11.011  0.5258  0.0709 -0.0945
  136SAPE  H11A14702   5.947   2.915  10.959  1.9734  1.5793 -1.9271
  136SAPE  H11B14703   6.050   2.775  10.999  2.4222  0.2493 -0.4242
  136SAPE     P14704   6.297   2.882  10.956  0.2529  0.0882  0.0585
  136SAPE   O1314705   6.386   2.956  10.866 -0.8218 -0.1703  0.9505
  136SAPE   O1414706   6.348   2.868  11.094  0.2730  0.3136  0.3611
  136SAPE   O1214707   6.155   2.950  10.964 -0.3056  0.6571  0.9689
  136SAPE   O1114708   6.270   2.734  10.907  0.1852 -0.5566  0.2442
  136SAPE    C114709   6.199   2.704  10.792  0.7863  0.4231 -0.5570
  136SAPE    HA14710   6.147   2.612  10.826 -1.1469  1.4469 -0.7041
  136SAPE    HB14711   6.127   2.782  10.759  0.3584 -0.7446 -2.4871
  136SAPE    C214712   6.291   2.675  10.671 -0.2771 -0.2613  0.7939
  136SAPE    HS14713   6.373   2.607  10.701 -3.4873 -3.6663  2.3557
  136SAPE   O2114714   6.322   2.800  10.611  0.1810 -0.4382  0.1663
  136SAPE   C2114715   6.454   2.827  10.600 -0.2817 -0.0677  0.1531
  136SAPE   O2214716   6.546   2.749  10.613  0.3652  0.4884  0.1760
  136SAPE   C2214717   6.473   2.967  10.566  0.1898 -0.5223 -0.1473
  136SAPE   H2R14718   6.381   3.020  10.599 -0.6395 -1.7886 -0.3756
  136SAPE   H2S14719   6.565   3.006  10.615  1.1367 -3.0360  0.1332
  136SAPE    C314720   6.211   2.592  10.565 -0.4448 -0.3630 -0.1660
  136SAPE    HX14721   6.113   2.642  10.554  0.3027  0.8939 -1.1794
  136SAPE    HY14722   6.196   2.486  10.596  0.6393  0.1061  2.0437
  136SAPE   O3114723   6.273   2.607  10.433  0.4784  0.1275  0.1433
  136SAPE   C3114724   6.365   2.519  10.406 -0.8599 -0.0862  0.2669
  136SAPE   O3214725   6.411   2.436  10.483  0.4395 -0.0690 -0.0797
  136SAPE   C3214726   6.421   2.551  10.268 -0.6650 -0.6205  0.0405
  136SAPE   H2X14727   6.426   2.661  10.258  0.0675 -0.6711 -0.1790
  136SAPE   H2Y14728   6.340   2.520  10.199 -0.2932 -1.4233 -0.0425
  136SAPE   C2314729   6.484   2.989  10.410  0.3461 -0.2580  0.0533
  136SAPE   H3R14730   6.467   3.098  10.393  0.8947 -0.0668  0.6888
  136SAPE   H3S14731   6.403   2.943  10.350 -1.3673  0.3925  1.8303
  136SAPE   C2414732   6.624   2.945  10.358  0.4074  0.0414  0.3531
  136SAPE   H4R14733   6.631   2.835  10.349  1.2166  0.1014  0.2372
  136SAPE   H4S14734   6.704   2.974  10.430  1.4603  0.2122 -0.8739
  136SAPE   C2514735   6.638   3.001  10.217 -0.2293  0.8098  0.2762
  136SAPE   H5R14736   6.554   3.058  10.176 -0.2379  0.4633 -0.1976
  136SAPE   C2614737   6.741   2.969  10.137 -0.8031  0.1930  0.4309
  136SAPE   H6R14738   6.744   3.002  10.032  0.3364  1.8542  0.9779
  136SAPE   C2714739   6.860   2.872  10.164  0.4208 -0.0655 -0.2003
  136SAPE   H7R14740   6.866   2.816  10.068 -0.8178 -0.7305  0.1010
  136SAPE   H7S14741   6.825   2.801  10.242  0.6622 -0.2330 -0.2466
  136SAPE   C2814742   7.000   2.928  10.202  0.3798 -0.5776 -1.1756
  136SAPE   H8R14743   7.026   2.947  10.307  1.3037 -3.7026 -0.7911
  136SAPE   C2914744   7.092   2.963  10.113  0.3443  0.5265  0.5218
  136SAPE   H9R14745   7.197   2.984  10.138  0.8839 -0.8197 -0.5359
  136SAPE  C21014746   7.068   2.959   9.964  0.4897 -0.0084 -0.5609
  136SAPE  H10R14747   7.010   2.875   9.921  2.4162 -0.9356 -1.4477
  136SAPE  H10S14748   7.160   2.934   9.907  0.4905  0.1134 -0.6141
  136SAPE  C21114749   7.036   3.097   9.922 -0.2203  0.5012 -0.3223
  136SAPE  H11R14750   6.978   3.152   9.998 -2.9802 -0.9123 -1.3470
  136SAPE  C21214751   7.084   3.162   9.815  0.6228 -0.0930 -0.0715
  136SAPE  H12R14752   7.055   3.267   9.798 -0.5763 -0.4923 -0.5447
  136SAPE  C21314753   7.177   3.106   9.713  0.0054  0.0127 -1.0259
  136SAPE  H13R14754   7.160   2.997   9.707  1.7872 -0.5903  3.0617
  136SAPE  H13S14755   7.282   3.111   9.751 -0.0366 -0.1470 -0.8912
  136SAPE  C21414756   7.171   3.182   9.579 -0.0319 -0.1993 -0.3317
  136SAPE  H14R14757   7.271   3.215   9.546 -0.5479  2.3107  0.5555
  136SAPE  C21514758   7.068   3.195   9.498 -0.1295 -0.0726  0.2550
  136SAPE  H15R14759   7.094   3.233   9.398  2.3971 -0.5627  0.6891
  136SAPE  C21614760   6.924   3.155   9.508 -0.5467 -0.7355 -0.1615
  136SAPE  H16R14761   6.861   3.246   9.504 -0.9191 -0.9185  1.2532
  136SAPE  H16S14762   6.907   3.107   9.607 -0.7156  0.4382  0.3820
  136SAPE  C21714763   6.888   3.053   9.398 -0.6607  0.6750 -0.9038
  136SAPE  H17R14764   6.783   3.015   9.394  0.1911 -2.0828  1.2501
  136SAPE  H17S14765   6.955   2.969   9.426  0.9403  1.6097 -1.8601
  136SAPE  C21814766   6.906   3.084   9.245  0.2516 -0.5348  0.3713
  136SAPE  H18R14767   7.008   3.128   9.231  0.5518 -0.7936  1.6944
  136SAPE  H18S14768   6.828   3.150   9.202  0.8886  0.8520  1.2803
  136SAPE  C21914769   6.895   2.967   9.149  0.0696 -0.2585  0.6441
  136SAPE  H19R14770   6.791   2.929   9.139 -2.0100  4.7060  2.1616
  136SAPE  H19S14771   6.971   2.891   9.178 -1.5079 -2.5753 -1.1536
  136SAPE  C22014772   6.930   3.021   9.010  0.5067  0.0632 -1.1977
  136SAPE  H20R14773   6.854   3.097   8.980 -1.3590 -1.1370  0.4143
  136SAPE  H20S14774   6.925   2.945   8.929 -2.4677  0.2735 -1.2554
  136SAPE  H20T14775   7.033   3.064   9.004  0.8141 -0.6516 -1.0735
  136SAPE   C3314776   6.558   2.486  10.221  0.2908 -0.3888 -0.2411
  136SAPE   H3X14777   6.555   2.378  10.248 -3.2248 -0.5402 -1.0654
  136SAPE   H3Y14778   6.645   2.534  10.272 -0.2536  0.4793 -0.1275
  136SAPE   C3414779   6.588   2.485  10.069 -0.1074 -0.6951 -0.2113
  136SAPE   H4X14780   6.501   2.462  10.004  1.3186 -1.3657 -1.9163
  136SAPE   H4Y14781   6.661   2.407  10.041 -0.8029 -2.3357  2.4046
  136SAPE   C3514782   6.625   2.618  10.009 -0.4298  0.2763 -0.8493
  136SAPE   H5X14783   6.706   2.671  10.063  1.4670 -1.7659 -1.6013
  136SAPE   H5Y14784   6.534   2.681  10.015  0.5342  1.6741 -0.7366
  136SAPE   C3614785   6.672   2.607   9.866  0.6029  0.1656 -0.1167
  136SAPE   H6X14786   6.609   2.545   9.798  0.8170  0.2354 -0.3810
  136SAPE   H6Y14787   6.775   2.566   9.879  0.7748  1.1680  1.8590
  136SAPE   C3714788   6.702   2.750   9.806 -0.7789 -0.0206  0.5306
  136SAPE   H7X14789   6.769   2.810   9.871  0.2685  1.1163 -1.5222
  136SAPE   H7Y14790   6.607   2.807   9.802 -0.2229  1.0270  1.8629
  136SAPE   C3814791   6.762   2.757   9.666 -1.0783 -0.3373 -0.5159
  136SAPE   H8X14792   6.862   2.708   9.666 -1.4309 -1.2146  2.7684
  136SAPE   H8Y14793   6.775   2.864   9.638  1.3637  0.0532  1.8293
  136SAPE   C3914794   6.683   2.681   9.562 -0.5292  0.0951 -0.7568
  136SAPE   H9X14795   6.585   2.733   9.556 -0.3989  0.1437 -2.5595
  136SAPE   H9Y14796   6.669   2.579   9.606  1.6872 -0.1702 -0.5988
  136SAPE  C31014797   6.748   2.696   9.420 -0.0660 -0.8585  0.2863
  136SAPE  H10X14798   6.857   2.674   9.427 -0.7958 -4.6800  0.6943
  136SAPE  H10Y14799   6.747   2.803   9.390 -2.1695 -0.9338  0.0408
  136SAPE  C31114800   6.686   2.592   9.322  0.7248  0.1923 -0.6609
  136SAPE  H11X14801   6.588   2.631   9.289 -0.0975 -2.0964 -1.0304
  136SAPE  H11Y14802   6.670   2.498   9.379 -0.1618 -0.6849 -2.3086
  136SAPE  C31214803   6.776   2.553   9.197 -0.6053  0.1276 -0.2933
  136SAPE  H12X14804   6.880   2.536   9.232 -1.6805 -4.7918  0.9751
  136SAPE  H12Y14805   6.778   2.630   9.116 -0.6045 -1.9871 -2.3759
  136SAPE  C31314806   6.712   2.430   9.130  0.3387  0.5749 -0.3630
  136SAPE  H13X14807   6.603   2.442   9.147  0.4568  0.3491  0.5996
  136SAPE  H13Y14808   6.743   2.340   9.188 -3.1915 -0.2857  0.3073
  136SAPE  C31414809   6.739   2.406   8.981 -0.6489  0.0986  0.0079
  136SAPE  H14X14810   6.697   2.487   8.917 -0.7620  0.4801  0.5649
  136SAPE  H14Y14811   6.687   2.308   8.971 -2.1125  0.9392 -0.9263
  136SAPE  C31514812   6.888   2.388   8.949  0.5688 -0.2215  0.0420
  136SAPE  H15X14813   6.930   2.327   9.031  0.2268 -1.4742 -0.7031
  136SAPE  H15Y14814   6.938   2.487   8.955  2.0163 -1.0216  1.4097
  136SAPE  C31614815   6.912   2.327   8.808  0.4788 -0.0716  0.0118
  136SAPE  H16X14816   6.908   2.408   8.732  1.7141 -1.4300 -1.5226
  136SAPE  H16Y14817   6.845   2.242   8.782  0.4297 -0.6843  2.0483
  136SAPE  C31714818   7.053   2.269   8.802  0.1191 -0.3813  0.8628
  136SAPE  H17X14819   7.065   2.184   8.873 -1.7070 -1.1362  0.2951
  136SAPE  H17Y14820   7.119   2.349   8.844 -1.4688  1.7057 -0.5117
  136SAPE  C31814821   7.088   2.224   8.661 -0.2849 -0.4396  0.5288
  136SAPE  H18X14822   7.009   2.154   8.627 -0.4912 -0.0872  0.2828
  136SAPE  H18Y14823   7.182   2.166   8.675 -0.0880  0.2478  2.2555
  136SAPE  H18Z14824   7.091   2.305   8.585 -2.6879  1.3674  2.3140
  137SAPE     N14825   4.297   5.779  11.273 -0.0035  0.1364 -0.2165
  137SAPE   HN114826   4.270   5.781  11.374  0.2995  1.7107 -0.1530
  137SAPE   HN214827   4.277   5.681  11.245 -0.7280 -0.6014  2.6921
  137SAPE   HN314828   4.396   5.801  11.253 -0.1262  1.6501  0.7809
  137SAPE   C1214829   4.222   5.885  11.203 -0.5053 -0.1421  0.5604
  137SAPE  H12A14830   4.255   5.985  11.238 -1.4772  0.4983 -0.3180
  137SAPE  H12B14831   4.115   5.861  11.223 -1.4862  2.1230 -1.7342
  137SAPE   C1114832   4.240   5.892  11.049  0.0281 -0.2819 -0.0352
  137SAPE  H11A14833   4.176   5.971  11.004  0.8648  1.4512  1.7205
  137SAPE  H11B14834   4.197   5.797  11.012 -2.5089  1.0123 -0.4745
  137SAPE     P14835   4.461   6.022  11.002 -0.3475  0.6630  0.0723
  137SAPE   O1314836   4.435   6.111  11.113 -0.5207 -0.2969 -0.1146
  137SAPE   O1414837   4.596   5.973  10.995 -0.3835 -0.3523 -0.1954
  137SAPE   O1214838   4.373   5.894  11.007  0.0372  0.5565  0.2050
  137SAPE   O1114839   4.423   6.088  10.860 -0.7736  0.3959  0.1178
  137SAPE    C114840   4.406   6.009  10.740 -0.4436  0.3489 -0.1033
  137SAPE    HA14841   4.498   5.993  10.680 -0.6557 -1.5921  0.0552
  137SAPE    HB14842   4.364   5.909  10.762  0.7739  0.0391  0.8871
  137SAPE    C214843   4.297   6.073  10.645 -0.0467  0.3387 -0.1452
  137SAPE    HS14844   4.217   6.101  10.718 -1.4651  0.7061 -1.7934
  137SAPE   O2114845   4.245   5.959  10.570 -0.2916 -0.8294  0.1260
  137SAPE   C2114846   4.122   5.975  10.528 -0.1889  0.5542  0.0906
  137SAPE   O2214847   4.051   6.074  10.533  0.2975  0.3002 -0.8267
  137SAPE   C2214848   4.073   5.851  10.448 -0.3467  0.3051 -0.4589
  137SAPE   H2R14849   4.118   5.851  10.346  2.3148  0.9354  0.6640
  137SAPE   H2S14850   4.093   5.755  10.500  1.0909 -0.3181 -2.1438
  137SAPE    C314851   4.349   6.174  10.550  0.1786  0.2316  0.4872
  137SAPE    HX14852   4.385   6.268  10.598  1.3186  0.8524 -1.5140
  137SAPE    HY14853   4.262   6.225  10.502 -2.1456 -1.9493  2.2670
  137SAPE   O3114854   4.446   6.105  10.464  0.2242 -0.1411  0.2854
  137SAPE   C3114855   4.411   6.092  10.334 -0.3303  0.0215  1.0181
  137SAPE   O3214856   4.314   6.139  10.280  0.7212  0.4634 -0.5803
  137SAPE   C3214857   4.511   6.000  10.270  0.1464 -0.6789 -0.0248
  137SAPE   H2X14858   4.494   5.905  10.325  0.4438  0.5615  2.2730
  137SAPE   H2Y14859   4.613   6.038  10.291  0.5641 -0.7886 -1.7458
  137SAPE   C2314860   3.922   5.856  10.428  0.4359 -0.2924 -1.2346
  137SAPE   H3R14861   3.896   5.954  10.383  0.4306  0.6692  0.8085
  137SAPE   H3S14862   3.873   5.854  10.528 -0.8056 -0.1676 -1.8380
  137SAPE   C2414863   3.870   5.756  10.320  0.3669 -0.9470  0.1956
  137SAPE   H4R14864   3.875   5.660  10.376 -0.6631  0.0949  2.1474
  137SAPE   H4S14865   3.950   5.758  10.243 -0.6023  0.2982 -0.7964
  137SAPE   C2514866   3.737   5.800  10.267  0.2503  0.1876 -0.7765
  137SAPE   H5R14867   3.650   5.781  10.331  0.5929  0.6997 -0.1447
  137SAPE   C2614868   3.710   5.852  10.146  0.3030 -0.1104 -0.4427
  137SAPE   H6R14869   3.608   5.880  10.115  0.2337 -1.1357 -1.1622
  137SAPE   C2714870   3.818   5.883  10.048  0.1967  0.4645 -0.4225
  137SAPE   H7R14871   3.916   5.913  10.091  0.7874  1.5518 -2.4407
  137SAPE   H7S14872   3.787   5.967   9.982 -0.4775  1.0764  0.6575
  137SAPE   C2814873   3.832   5.763   9.956  0.3536 -0.7322  0.4808
  137SAPE   H8R14874   3.914   5.695   9.985  2.0411  0.8381 -0.4404
  137SAPE   C2914875   3.759   5.737   9.839 -0.0252 -0.1572 -1.2220
  137SAPE   H9R14876   3.796   5.661   9.770  1.3967 -2.6528  2.1285
  137SAPE  C21014877   3.649   5.820   9.784  0.1058 -0.1971  0.0975
  137SAPE  H10R14878   3.660   5.860   9.681  1.0550 -2.6199 -0.7914
  137SAPE  H10S14879   3.630   5.911   9.845 -0.0561  0.0059 -0.2576
  137SAPE  C21114880   3.518   5.733   9.791 -0.4020  0.6296 -0.3450
  137SAPE  H11R14881   3.502   5.694   9.892 -0.2422 -0.0825 -0.5860
  137SAPE  C21214882   3.426   5.723   9.694 -0.9212 -0.0068  0.0479
  137SAPE  H12R14883   3.342   5.654   9.705 -1.2269 -0.2144 -3.0422
  137SAPE  C21314884   3.430   5.785   9.552 -0.7054 -0.0007 -0.1168
  137SAPE  H13R14885   3.465   5.704   9.485 -0.9797 -0.0301 -0.2264
  137SAPE  H13S14886   3.501   5.869   9.538  0.7415 -1.4942 -2.0248
  137SAPE  C21414887   3.291   5.835   9.521 -0.0042 -0.5407 -0.3578
  137SAPE  H14R14888   3.252   5.912   9.588 -1.1978  0.5121 -2.2323
  137SAPE  C21514889   3.206   5.785   9.435 -0.4453 -0.0785 -0.5789
  137SAPE  H15R14890   3.106   5.831   9.430 -1.4589 -2.2056 -0.8409
  137SAPE  C21614891   3.241   5.671   9.343 -0.3767  0.2519  0.1548
  137SAPE  H16R14892   3.140   5.630   9.320 -0.6867  0.5899  0.9212
  137SAPE  H16S14893   3.295   5.591   9.397 -2.2170 -0.2057  1.3381
  137SAPE  C21714894   3.326   5.706   9.218  0.2992 -0.6621 -0.2923
  137SAPE  H17R14895   3.303   5.628   9.143  0.7463 -0.6778 -0.4167
  137SAPE  H17S14896   3.436   5.710   9.235 -0.1250 -0.5310  2.6735
  137SAPE  C21814897   3.275   5.828   9.136  0.4539  1.1381 -0.5381
  137SAPE  H18R14898   3.259   5.914   9.205  0.6352  1.9025 -1.4356
  137SAPE  H18S14899   3.175   5.787   9.110  0.9753  0.4448 -1.4422
  137SAPE  C21914900   3.360   5.856   9.008  0.3205 -0.2257  0.1313
  137SAPE  H19R14901   3.330   5.784   8.929 -0.1458  0.3846 -0.2492
  137SAPE  H19S14902   3.464   5.831   9.038  0.7780 -0.1434 -1.3277
  137SAPE  C22014903   3.367   5.996   8.961  0.0012 -0.0333  0.4568
  137SAPE  H20R14904   3.412   6.006   8.860 -0.6650  2.2680  0.3617
  137SAPE  H20S14905   3.425   6.051   9.039 -1.8716 -0.1264  1.9675
  137SAPE  H20T14906   3.267   6.043   8.950 -0.5966 -1.4994 -0.5529
  137SAPE   C3314907   4.489   5.968  10.126 -0.6018  0.3482 -0.3333
  137SAPE   H3X14908   4.380   5.968  10.107 -1.2685 -0.8572  3.0749
  137SAPE   H3Y14909   4.518   5.864  10.100 -0.7929  0.4084 -0.7923
  137SAPE   C3414910   4.559   6.076  10.045  0.1419  0.3324  0.4376
  137SAPE   H4X14911   4.668   6.070  10.065  0.7489  1.1670 -2.4050
  137SAPE   H4Y14912   4.523   6.181  10.054  0.8647  0.4268  2.5198
  137SAPE   C3514913   4.559   6.032   9.894 -0.4087 -0.3842 -0.2056
  137SAPE   H5X14914   4.455   6.030   9.854 -0.3859  1.0507 -0.3627
  137SAPE   H5Y14915   4.587   5.925   9.904  2.4495  0.3787  0.2020
  137SAPE   C3614916   4.656   6.116   9.816 -0.5595 -0.2073 -0.1133
  137SAPE   H6X14917   4.759   6.120   9.857 -1.1269  1.7016  1.2261
  137SAPE   H6Y14918   4.621   6.221   9.826 -1.6102 -0.6171  0.6656
  137SAPE   C3714919   4.671   6.073   9.676 -0.5884  0.1712 -0.3138
  137SAPE   H7X14920   4.711   5.969   9.671 -0.1211  0.2247  1.7475
  137SAPE   H7Y14921   4.743   6.135   9.619 -0.8463  0.9095  0.1645
  137SAPE   C3814922   4.547   6.098   9.594  0.6189 -0.6361  0.0314
  137SAPE   H8X14923   4.510   6.201   9.611  0.1322 -0.4682 -1.8929
  137SAPE   H8Y14924   4.465   6.031   9.626  0.4612 -2.2688 -3.5192
  137SAPE   C3914925   4.554   6.079   9.438 -0.2433 -0.1501 -0.0339
  137SAPE   H9X14926   4.467   6.132   9.395  0.4666  1.0484 -0.0185
  137SAPE   H9Y14927   4.521   5.976   9.411  1.1345 -0.5791 -0.1628
  137SAPE  C31014928   4.689   6.118   9.373  0.3526 -0.2600  0.6768
  137SAPE  H10X14929   4.763   6.042   9.405 -2.3348 -2.5030  1.8346
  137SAPE  H10Y14930   4.711   6.222   9.407 -1.4732 -0.0285  1.2367
  137SAPE  C31114931   4.681   6.121   9.216 -0.5107 -0.3425 -0.1070
  137SAPE  H11X14932   4.657   6.019   9.180 -0.7358  0.2737 -1.7463
  137SAPE  H11Y14933   4.776   6.154   9.168  0.5644  0.0771  2.2381
  137SAPE  C31214934   4.579   6.216   9.156  0.2047  0.0697 -1.0939
  137SAPE  H12X14935   4.599   6.317   9.199  3.3764 -1.1559  0.4847
  137SAPE  H12Y14936   4.481   6.180   9.193 -0.2647  1.2394 -1.1692
  137SAPE  C31314937   4.580   6.213   8.999 -0.0225 -0.2318  0.1819
  137SAPE  H13X14938   4.594   6.107   8.968 -1.5313 -0.9159  1.7466
  137SAPE  H13Y14939   4.660   6.272   8.949 -0.6333  0.7156  0.3173
  137SAPE  C31414940   4.445   6.262   8.948  0.3645  0.4108  0.0737
  137SAPE  H14X14941   4.415   6.364   8.978 -0.0489 -0.0398  1.2253
  137SAPE  H14Y14942   4.371   6.186   8.982 -1.0140  2.5849  2.0241
  137SAPE  C31514943   4.444   6.265   8.799  0.0619 -0.4782  0.2687
  137SAPE  H15X14944   4.340   6.291   8.769  0.1866  1.6381  1.5605
  137SAPE  H15Y14945   4.460   6.164   8.756  0.9942 -0.8628  1.4972
  137SAPE  C31614946   4.548   6.366   8.744 -0.4664 -0.6921 -0.6008
  137SAPE  H16X14947   4.649   6.365   8.790 -1.7374  2.0488  2.4604
  137SAPE  H16Y14948   4.509   6.468   8.762  1.4727 -0.1742  0.8860
  137SAPE  C31714949   4.570   6.356   8.593 -0.2828  0.5739 -0.6842
  137SAPE  H17X14950   4.640   6.436   8.561 -0.6312  0.7021 -1.1306
  137SAPE  H17Y14951   4.467   6.362   8.550 -0.0617 -2.4270 -1.7694
  137SAPE  C31814952   4.626   6.223   8.541 -0.2591  0.3880  0.1573
  137SAPE  H18X14953   4.634   6.232   8.431 -3.3067  2.2425  0.0055
  137SAPE  H18Y14954   4.564   6.142   8.586  1.6157 -1.7587 -1.0458
  137SAPE  H18Z14955   4.729   6.210   8.580 -0.9507 -0.0730  1.8932
  138SAPE     N14956   1.670   0.051  11.047 -0.8479 -0.2873 -0.2208
  138SAPE   HN114957   1.750   0.079  10.987 -3.3185  1.9982 -2.5438
  138SAPE   HN214958   1.588   0.109  11.020 -0.5610  0.1780 -0.0816
  138SAPE   HN314959   1.713   0.087  11.134 -0.9345 -2.0318  0.5815
  138SAPE   C1214960   1.651  -0.099  11.025 -0.4186 -0.0074 -0.4661
  138SAPE  H12A14961   1.576  -0.133  11.099  1.3130 -0.5121  1.0925
  138SAPE  H12B14962   1.752  -0.144  11.024  1.5239  3.8381 -6.5611
  138SAPE   C1114963   1.590  -0.136  10.893 -0.5238 -0.4898  0.4727
  138SAPE  H11A14964   1.546  -0.238  10.890  1.6513 -1.5031  1.9223
  138SAPE  H11B14965   1.677  -0.131  10.823 -0.0108  1.0360  1.1957
  138SAPE     P14966   1.472   0.014  10.705  0.1400  0.0051  0.0419
  138SAPE   O1314967   1.352   0.098  10.689  0.1542 -0.1460  0.2112
  138SAPE   O1414968   1.597   0.094  10.692  0.0247  0.9164 -0.2579
  138SAPE   O1214969   1.478  -0.050  10.854 -0.0596  0.0479 -0.0011
  138SAPE   O1114970   1.475  -0.105  10.603 -0.2100  0.3479  0.2001
  138SAPE    C114971   1.364  -0.191  10.600  0.1763  0.3557 -0.8643
  138SAPE    HA14972   1.365  -0.262  10.686  3.6932  0.8248 -0.4171
  138SAPE    HB14973   1.269  -0.137  10.584  1.9776  2.8487 -3.7264
  138SAPE    C214974   1.387  -0.275  10.466  0.1902 -0.3904 -0.3781
  138SAPE    HS14975   1.492  -0.302  10.489 -0.7443 -3.3724  0.5786
  138SAPE   O2114976   1.364  -0.187  10.349  0.2433 -0.1072 -0.0245
  138SAPE   C2114977   1.456  -0.212  10.259 -0.1817 -0.1154 -0.4217
  138SAPE   O2214978   1.533  -0.304  10.270 -0.2047  0.3586 -0.1101
  138SAPE   C2214979   1.448  -0.109  10.146 -0.1206 -0.5401  0.1123
  138SAPE   H2R14980   1.341  -0.079  10.137  0.2184 -0.1076 -2.9592
  138SAPE   H2S14981   1.496  -0.012  10.168 -0.6492 -0.1155 -0.5601
  138SAPE    C314982   1.286  -0.391  10.463 -0.4052 -0.1877  0.2718
  138SAPE    HX14983   1.185  -0.348  10.447  0.0204  0.5821 -0.3291
  138SAPE    HY14984   1.274  -0.455  10.553 -1.5837 -0.4424 -0.0567
  138SAPE   O3114985   1.305  -0.475  10.346 -0.0381  0.0756 -0.3263
  138SAPE   C3114986   1.390  -0.579  10.367 -0.2395  0.8141  0.5349
  138SAPE   O3214987   1.418  -0.621  10.478  0.2289  0.4869  0.0365
  138SAPE   C3214988   1.454  -0.628  10.241  0.3541 -0.1424 -0.7155
  138SAPE   H2X14989   1.496  -0.728  10.264  2.6568  0.7832 -0.8236
  138SAPE   H2Y14990   1.543  -0.569  10.211  0.9493 -0.0848  1.1146
  138SAPE   C2314991   1.499  -0.157  10.011 -0.0319 -0.6879  0.1983
  138SAPE   H3R14992   1.464  -0.258   9.984 -0.2198 -0.6678  0.3649
  138SAPE   H3S14993   1.610  -0.165  10.010 -0.1037 -2.2154 -3.4467
  138SAPE   C2414994   1.466  -0.072   9.886  0.2143  0.2387  0.7618
  138SAPE   H4R14995   1.511  -0.121   9.797 -1.7176 -2.0935  1.0239
  138SAPE   H4S14996   1.528   0.020   9.898  0.4103 -0.0494  1.9887
  138SAPE   C2514997   1.321  -0.045   9.861 -0.0048 -0.5881  0.0007
  138SAPE   H5R14998   1.266  -0.015   9.951  2.1633  0.1750  1.1044
  138SAPE   C2614999   1.260  -0.041   9.741  0.1845 -0.3595 -0.4397
  138SAPE   H6R15000   1.154  -0.012   9.739  0.3707  0.4167  0.4650
  138SAPE   C2715001   1.325  -0.074   9.612 -0.7187 -0.4175  0.0967
  138SAPE   H7R15002   1.402  -0.153   9.628  1.1272  1.4693  0.7135
  138SAPE   H7S15003   1.386   0.014   9.584  2.3215 -2.5177 -0.1982
  138SAPE   C2815004   1.235  -0.107   9.500  0.0704 -0.6891  0.5031
  138SAPE   H8R15005   1.140  -0.157   9.526  0.4701 -0.3151  2.7675
  138SAPE   C2915006   1.259  -0.088   9.367  0.3530  0.4278 -1.0946
  138SAPE   H9R15007   1.187  -0.115   9.288  0.1837 -0.2346 -0.7145
  138SAPE  C21015008   1.381  -0.027   9.303 -0.1857  0.5151 -0.3920
  138SAPE  H10R15009   1.441  -0.101   9.247 -0.1204 -0.9379  1.5676
  138SAPE  H10S15010   1.445   0.014   9.384  1.7508 -0.1239 -1.5624
  138SAPE  C21115011   1.334   0.085   9.212  0.2601 -0.6011 -0.7508
  138SAPE  H11R15012   1.293   0.173   9.264  0.6209 -1.3441  0.8281
  138SAPE  C21215013   1.355   0.092   9.082  0.9406  0.3123 -0.8106
  138SAPE  H12R15014   1.303   0.172   9.026 -0.4191  0.9911  1.3966
  138SAPE  C21315015   1.424  -0.013   8.996 -0.3400 -0.3759  1.1189
  138SAPE  H13R15016   1.472  -0.093   9.056  0.3238 -2.0804 -1.5641
  138SAPE  H13S15017   1.506   0.042   8.945  0.2816 -1.3477  1.0742
  138SAPE  C21415018   1.333  -0.084   8.900  0.1306 -0.0611 -0.6710
  138SAPE  H14R15019   1.236  -0.095   8.951 -0.3045  1.7866 -1.0760
  138SAPE  C21515020   1.350  -0.130   8.775  0.1757 -0.4152  0.1665
  138SAPE  H15R15021   1.261  -0.167   8.722  0.3067 -1.3656  0.6036
  138SAPE  C21615022   1.469  -0.109   8.682  0.2577 -0.1239  0.4279
  138SAPE  H16R15023   1.546  -0.049   8.735  1.3989 -0.3028 -1.0327
  138SAPE  H16S15024   1.423  -0.054   8.598  1.5451 -0.5706 -0.5708
  138SAPE  C21715025   1.532  -0.232   8.614  0.3224  0.3054 -0.6358
  138SAPE  H17R15026   1.608  -0.197   8.541 -1.1269  1.8559 -1.4335
  138SAPE  H17S15027   1.461  -0.290   8.552 -0.7716  0.7063  0.2266
  138SAPE  C21815028   1.613  -0.323   8.710 -0.3157  0.0701  0.8113
  138SAPE  H18R15029   1.542  -0.362   8.785  0.0764 -1.1910  0.5375
  138SAPE  H18S15030   1.680  -0.261   8.774 -0.7087 -0.1436  1.4377
  138SAPE  C21915031   1.698  -0.436   8.650 -0.4487 -0.0741 -0.4391
  138SAPE  H19R15032   1.774  -0.394   8.580 -0.2608 -0.4645 -0.4695
  138SAPE  H19S15033   1.627  -0.499   8.592 -0.4177 -0.5438  0.0273
  138SAPE  C22015034   1.768  -0.521   8.761  0.3861  0.3598 -0.4068
  138SAPE  H20R15035   1.817  -0.451   8.833  1.8299 -0.1365 -0.8926
  138SAPE  H20S15036   1.844  -0.589   8.717 -0.6544 -0.7955 -0.4292
  138SAPE  H20T15037   1.699  -0.586   8.819  0.8609 -1.2621 -1.6193
  138SAPE   C3315038   1.358  -0.649  10.114  0.4013 -0.3166 -0.6546
  138SAPE   H3X15039   1.249  -0.654  10.137  0.1846 -0.5080 -1.6841
  138SAPE   H3Y15040   1.389  -0.741  10.059 -1.1553 -0.7197 -0.8873
  138SAPE   C3415041   1.356  -0.533  10.011 -0.3324  1.2287 -0.4355
  138SAPE   H4X15042   1.451  -0.544   9.954  1.0841 -1.1233  2.3002
  138SAPE   H4Y15043   1.345  -0.435  10.063 -0.4929  0.3920  1.1014
  138SAPE   C3515044   1.241  -0.564   9.908 -0.2587  0.0732  0.2866
  138SAPE   H5X15045   1.149  -0.517   9.949 -0.8399  2.7109 -3.6939
  138SAPE   H5Y15046   1.235  -0.675   9.898  0.2306  0.1959 -1.6388
  138SAPE   C3615047   1.281  -0.515   9.763 -0.0012  0.2232 -0.8220
  138SAPE   H6X15048   1.362  -0.581   9.724  2.3443  2.0817  0.7012
  138SAPE   H6Y15049   1.328  -0.415   9.776  0.6592 -0.5181  3.0401
  138SAPE   C3715050   1.162  -0.508   9.671  1.0479  0.5222  0.1721
  138SAPE   H7X15051   1.086  -0.434   9.703 -0.8443 -0.5504 -1.7652
  138SAPE   H7Y15052   1.107  -0.605   9.670  0.2841  0.9624 -2.1925
  138SAPE   C3815053   1.204  -0.488   9.522 -0.1860 -0.1663 -0.0147
  138SAPE   H8X15054   1.298  -0.545   9.510 -0.2416 -0.8072  2.3746
  138SAPE   H8Y15055   1.234  -0.381   9.527 -1.2349  0.1922 -1.2695
  138SAPE   C3915056   1.097  -0.499   9.415  0.0821 -0.4984  0.3972
  138SAPE   H9X15057   1.126  -0.453   9.318  1.2318 -1.5529  0.2414
  138SAPE   H9Y15058   1.001  -0.456   9.451  0.1364  2.0802 -2.2965
  138SAPE  C31015059   1.062  -0.643   9.390  0.2227  0.5462 -0.7616
  138SAPE  H10X15060   1.029  -0.686   9.487 -1.0724  0.1854 -1.3435
  138SAPE  H10Y15061   1.158  -0.689   9.360  0.4553  0.9553 -0.6412
  138SAPE  C31115062   0.949  -0.661   9.289  0.5824  0.3106 -0.0258
  138SAPE  H11X15063   0.989  -0.612   9.198  0.8762 -3.1429 -1.8456
  138SAPE  H11Y15064   0.855  -0.612   9.321  0.4345 -0.6108  0.9817
  138SAPE  C31215065   0.911  -0.811   9.258 -0.3732 -0.3405  0.3938
  138SAPE  H12X15066   0.856  -0.808   9.162 -0.7572 -2.7926  0.4998
  138SAPE  H12Y15067   0.848  -0.851   9.341 -0.2905  1.0692  1.1401
  138SAPE  C31315068   1.026  -0.914   9.255 -0.4801  0.2274 -0.5173
  138SAPE  H13X15069   1.083  -0.928   9.350 -0.9514  0.0216 -0.2644
  138SAPE  H13Y15070   1.092  -0.856   9.187  0.6782 -0.5236 -0.0606
  138SAPE  C31415071   0.985  -1.052   9.190  0.0587  0.1570 -0.3726
  138SAPE  H14X15072   0.966  -1.033   9.083  0.2359 -1.6621 -0.7431
  138SAPE  H14Y15073   0.890  -1.093   9.230 -0.7298  1.9188 -0.3596
  138SAPE  C31515074   1.097  -1.159   9.204  0.0298 -0.1520  0.4147
  138SAPE  H15X15075   1.115  -1.168   9.313 -0.0491 -3.5211  0.1871
  138SAPE  H15Y15076   1.195  -1.128   9.162 -0.2253 -2.3997 -1.9925
  138SAPE  C31615077   1.049  -1.294   9.157  0.2821 -0.2734 -0.2402
  138SAPE  H16X15078   0.950  -1.323   9.198 -0.5447 -0.9436 -2.6183
  138SAPE  H16Y15079   1.125  -1.371   9.182 -0.1690  0.0861  2.3306
  138SAPE  C31715080   1.030  -1.308   9.008 -0.1701 -0.1431  0.1276
  138SAPE  H17X15081   0.954  -1.234   8.975  0.2180  1.1088  1.9574
  138SAPE  H17Y15082   0.982  -1.406   8.987 -2.3673  0.8837  0.2300
  138SAPE  C31815083   1.161  -1.288   8.931 -0.1213  0.1117  0.0663
  138SAPE  H18X15084   1.213  -1.192   8.953  1.2026 -0.8759  1.3710
  138SAPE  H18Y15085   1.143  -1.290   8.821 -1.1814 -2.3645  0.2452
  138SAPE  H18Z15086   1.232  -1.366   8.966 -0.9928  0.0997  1.8823
  139SAPE     N15087   0.340   5.230  10.748 -0.3667 -0.3778 -0.0066
  139SAPE   HN115088   0.428   5.218  10.803  0.6715  1.4380 -1.2318
  139SAPE   HN215089   0.340   5.170  10.663  1.5401  2.3609 -2.0053
  139SAPE   HN315090   0.336   5.326  10.709 -0.9643 -1.2965 -2.2899
  139SAPE   C1215091   0.223   5.197  10.836  0.3323 -0.0319  0.2946
  139SAPE  H12A15092   0.202   5.274  10.913  0.6739 -0.1121  0.4655
  139SAPE  H12B15093   0.237   5.099  10.886  2.2314 -0.0358 -0.2225
  139SAPE   C1115094   0.104   5.173  10.744 -0.0273 -0.2225  0.3765
  139SAPE  H11A15095   0.080   5.261  10.681 -2.7480 -1.1130  0.1087
  139SAPE  H11B15096   0.014   5.164  10.808  0.3399 -0.3666  0.8818
  139SAPE     P15097   0.083   4.921  10.682 -0.1800 -0.5542 -0.5318
  139SAPE   O1315098   0.130   4.876  10.814  0.5774 -0.1599  0.1333
  139SAPE   O1415099  -0.063   4.903  10.662 -0.0874  0.3690  0.2230
  139SAPE   O1215100   0.128   5.070  10.657 -0.6448 -0.3876  0.1500
  139SAPE   O1115101   0.169   4.848  10.572 -0.2066 -0.0138 -0.2534
  139SAPE    C115102   0.306   4.874  10.563 -0.1604 -0.8090  0.3467
  139SAPE    HA15103   0.338   4.968  10.614  2.2634  0.1676 -2.7948
  139SAPE    HB15104   0.360   4.787  10.607 -1.6141  0.0612  4.0675
  139SAPE    C215105   0.364   4.886  10.416 -0.0018 -0.6221 -0.2494
  139SAPE    HS15106   0.474   4.896  10.428 -0.0920 -0.9075  0.7975
  139SAPE   O2115107   0.314   4.998  10.337 -0.0346 -0.1977  0.2704
  139SAPE   C2115108   0.318   5.121  10.378  1.4992  0.4202 -0.4702
  139SAPE   O2215109   0.367   5.167  10.481 -0.1161  0.4873 -0.1562
  139SAPE   C2215110   0.231   5.199  10.279 -0.6711  0.3231 -0.2842
  139SAPE   H2R15111   0.276   5.203  10.178 -1.5537  3.8815 -0.5832
  139SAPE   H2S15112   0.129   5.155  10.281 -0.5173 -0.0346  1.7220
  139SAPE    C315113   0.351   4.763  10.323 -0.8916 -0.0807  0.0712
  139SAPE    HX15114   0.267   4.782  10.253 -0.1393  4.0436  0.1694
  139SAPE    HY15115   0.328   4.681  10.395  0.6612  0.1030  0.7903
  139SAPE   O3115116   0.475   4.739  10.248  0.5180 -0.2287  0.6900
  139SAPE   C3115117   0.574   4.676  10.312 -0.1632 -0.4183 -0.7485
  139SAPE   O3215118   0.584   4.642  10.425  0.6784  0.3272  0.5928
  139SAPE   C3215119   0.681   4.661  10.206  0.5293 -0.2936 -0.1660
  139SAPE   H2X15120   0.664   4.751  10.143 -3.2717 -0.0493  1.0762
  139SAPE   H2Y15121   0.662   4.575  10.139 -1.8828  0.5092 -0.5907
  139SAPE   C2315122   0.206   5.347  10.329 -0.0297  0.5105  0.0077
  139SAPE   H3R15123   0.311   5.373  10.354  1.0447 -3.2047 -0.3782
  139SAPE   H3S15124   0.136   5.345  10.416  2.4797 -0.2879  2.0604
  139SAPE   C2415125   0.135   5.435  10.219 -0.0019  0.1959  0.0866
  139SAPE   H4R15126   0.025   5.416  10.220 -0.5935  3.4471 -0.2779
  139SAPE   H4S15127   0.182   5.409  10.122 -0.8500 -2.2929  0.2970
  139SAPE   C2515128   0.159   5.588  10.254  0.0810 -0.3299 -0.4574
  139SAPE   H5R15129   0.113   5.625  10.347 -0.2521  2.4184 -1.6810
  139SAPE   C2615130   0.233   5.672  10.186 -0.3163  0.4162 -0.3168
  139SAPE   H6R15131   0.248   5.777  10.215 -1.7698  0.6320 -0.2733
  139SAPE   C2715132   0.308   5.638  10.057  0.4961 -0.2234  0.3693
  139SAPE   H7R15133   0.240   5.585   9.987  0.2293  2.9432 -1.8829
  139SAPE   H7S15134   0.382   5.561  10.085 -0.7666 -0.9176  1.8642
  139SAPE   C2815135   0.382   5.759   9.999  0.4465  0.7658 -0.3216
  139SAPE   H8R15136   0.467   5.803  10.053 -1.4447  3.7766  0.2740
  139SAPE   C2915137   0.349   5.806   9.872  0.9243 -0.4309 -0.0790
  139SAPE   H9R15138   0.418   5.875   9.823  2.2215 -1.0454  0.8597
  139SAPE  C21015139   0.229   5.761   9.784 -0.7473  0.4639 -0.6703
  139SAPE  H10R15140   0.133   5.751   9.839 -0.5612  3.8715  0.3878
  139SAPE  H10S15141   0.255   5.667   9.731  0.5082 -1.0392  2.5088
  139SAPE  C21115142   0.189   5.854   9.662  0.1399  0.3776 -0.1387
  139SAPE  H11R15143   0.188   5.961   9.690 -2.0798 -0.4275  3.1263
  139SAPE  C21215144   0.184   5.826   9.526 -0.4103  0.4400  0.0019
  139SAPE  H12R15145   0.151   5.900   9.451 -1.4785 -1.9312 -1.9798
  139SAPE  C21315146   0.186   5.688   9.461 -0.7170 -0.0819 -0.3068
  139SAPE  H13R15147   0.144   5.605   9.520  1.5856 -0.3633  0.9994
  139SAPE  H13S15148   0.295   5.665   9.462 -1.2036 -2.6423 -1.3462
  139SAPE  C21415149   0.146   5.678   9.321  0.2077  0.2944 -0.0010
  139SAPE  H14R15150   0.084   5.758   9.280  1.6139  1.0498 -0.6917
  139SAPE  C21515151   0.172   5.571   9.242  0.3602  0.5553  0.5095
  139SAPE  H15R15152   0.125   5.560   9.143  0.4967 -1.2737  0.6434
  139SAPE  C21615153   0.255   5.451   9.286  0.8013  0.1325 -0.7809
  139SAPE  H16R15154   0.200   5.360   9.251 -0.0745  0.5699 -0.5529
  139SAPE  H16S15155   0.257   5.444   9.396 -1.5916 -1.6013 -0.7883
  139SAPE  C21715156   0.403   5.463   9.248  0.3172  0.1577 -0.6132
  139SAPE  H17R15157   0.460   5.385   9.302  3.6312  3.1563  0.3919
  139SAPE  H17S15158   0.447   5.555   9.292 -0.6038  0.8599 -1.1268
  139SAPE  C21815159   0.444   5.434   9.103  0.3915 -0.1849  0.7769
  139SAPE  H18R15160   0.418   5.519   9.037 -2.1419 -0.8722  0.8651
  139SAPE  H18S15161   0.389   5.348   9.060  0.1841  0.5619 -0.4655
  139SAPE  C21915162   0.591   5.404   9.103  0.1529 -0.3461 -1.2216
  139SAPE  H19R15163   0.619   5.354   9.198 -0.4402 -1.0153 -1.3984
  139SAPE  H19S15164   0.640   5.503   9.120 -0.1691 -0.2737 -0.7174
  139SAPE  C22015165   0.645   5.346   8.978  0.1641  0.8836  0.2667
  139SAPE  H20R15166   0.751   5.316   8.991  0.2615  0.9845 -0.2710
  139SAPE  H20S15167   0.650   5.413   8.889  0.5133  0.5189  0.0103
  139SAPE  H20T15168   0.582   5.262   8.944 -1.5903  2.9684 -1.8204
  139SAPE   C3315169   0.826   4.671  10.261 -0.3884 -0.6361 -0.6358
  139SAPE   H3X15170   0.860   4.566  10.274  1.1062 -0.0718  0.1995
  139SAPE   H3Y15171   0.826   4.709  10.365  1.4731  1.0653 -1.2105
  139SAPE   C3415172   0.919   4.746  10.164 -0.6999  0.0290 -0.4239
  139SAPE   H4X15173   1.021   4.745  10.208 -0.4512 -1.4614 -1.0193
  139SAPE   H4Y15174   0.889   4.853  10.157  0.2186  0.3793  0.7193
  139SAPE   C3515175   0.922   4.690  10.022 -0.0724  0.0378 -0.1389
  139SAPE   H5X15176   0.967   4.760   9.948 -1.9548  0.0101 -1.3347
  139SAPE   H5Y15177   0.815   4.684   9.994  0.0625  1.5635 -1.0293
  139SAPE   C3615178   0.966   4.545  10.011 -0.0299  0.0480  0.3669
  139SAPE   H6X15179   0.897   4.479  10.067 -1.3825  1.4940  0.4191
  139SAPE   H6Y15180   1.064   4.532  10.063  0.6029 -0.9648 -1.0522
  139SAPE   C3715181   0.973   4.488   9.868  0.5229 -0.4645 -0.0922
  139SAPE   H7X15182   1.012   4.569   9.803  1.3176 -1.7189 -1.1973
  139SAPE   H7Y15183   0.867   4.473   9.837  0.8175  1.0161 -1.9244
  139SAPE   C3815184   1.057   4.358   9.837  0.4339 -0.1489  0.4075
  139SAPE   H8X15185   1.007   4.268   9.880 -0.9945  0.0451 -0.7934
  139SAPE   H8Y15186   1.157   4.374   9.881  1.1064 -1.8272 -0.4515
  139SAPE   C3915187   1.058   4.338   9.678 -0.7920  0.5577 -0.0814
  139SAPE   H9X15188   1.075   4.436   9.629 -1.8036  0.8512  0.1419
  139SAPE   H9Y15189   0.958   4.305   9.644 -0.7639 -1.5996  1.8319
  139SAPE  C31015190   1.150   4.233   9.628  0.2512 -0.1645 -0.1208
  139SAPE  H10X15191   1.109   4.142   9.676 -0.2927  0.9095  1.5124
  139SAPE  H10Y15192   1.257   4.242   9.654  1.2928 -1.1509 -3.7310
  139SAPE  C31115193   1.144   4.210   9.476 -0.0419  0.1009 -0.6810
  139SAPE  H11X15194   1.164   4.304   9.421  0.3044  0.4651  0.0509
  139SAPE  H11Y15195   1.043   4.166   9.461 -0.7101  1.8992 -1.6120
  139SAPE  C31215196   1.244   4.116   9.433  0.3129 -0.4158  0.7204
  139SAPE  H12X15197   1.235   4.024   9.495  1.0499 -0.3943  0.8672
  139SAPE  H12Y15198   1.336   4.178   9.444 -0.4590  1.0272 -0.6644
  139SAPE  C31315199   1.238   4.097   9.283  0.7335 -0.7639  0.6595
  139SAPE  H13X15200   1.246   4.191   9.225 -0.8069  0.0293  1.6926
  139SAPE  H13Y15201   1.139   4.046   9.284 -0.5225  1.5892 -0.5930
  139SAPE  C31415202   1.343   4.001   9.230 -0.3452  0.5337  0.0024
  139SAPE  H14X15203   1.323   3.902   9.277  1.1771  0.5710  0.7679
  139SAPE  H14Y15204   1.444   4.026   9.269 -0.5554 -1.4984  1.9045
  139SAPE  C31515205   1.358   3.990   9.073  0.2052 -0.0655  0.0294
  139SAPE  H15X15206   1.445   3.920   9.069  2.4965  2.7919 -5.3933
  139SAPE  H15Y15207   1.384   4.095   9.049 -1.9359  0.3124 -0.7359
  139SAPE  C31615208   1.236   3.928   8.995 -0.5118  0.7037 -0.1655
  139SAPE  H16X15209   1.222   3.822   9.026 -2.3576  1.1209  0.4744
  139SAPE  H16Y15210   1.144   3.983   9.022 -1.2941 -0.4333 -0.4768
  139SAPE  C31715211   1.260   3.920   8.848  0.3756 -0.0987 -0.1140
  139SAPE  H17X15212   1.325   3.834   8.823  0.5796 -0.3586  1.2543
  139SAPE  H17Y15213   1.323   4.008   8.821  2.8839 -1.4237  1.2055
  139SAPE  C31815214   1.128   3.911   8.767  0.1556 -0.8034 -0.4157
  139SAPE  H18X15215   1.065   3.999   8.792  0.2365 -1.2704  1.4466
  139SAPE  H18Y15216   1.069   3.817   8.777 -1.5930  0.3469  0.2178
  139SAPE  H18Z15217   1.163   3.905   8.661 -0.3198 -1.9208 -0.5221
  140SAPE     N15218   3.868   1.483  11.170 -0.3214 -0.5687 -0.3099
  140SAPE   HN115219   3.912   1.514  11.259 -0.4237 -1.6950  0.1324
  140SAPE   HN215220   3.843   1.384  11.188  0.5400 -1.0809 -1.8686
  140SAPE   HN315221   3.935   1.479  11.091  0.5445 -0.7412  0.4260
  140SAPE   C1215222   3.759   1.586  11.153  0.5369 -0.3617 -0.1336
  140SAPE  H12A15223   3.795   1.687  11.182  3.8602 -1.3087 -0.7027
  140SAPE  H12B15224   3.683   1.554  11.227 -2.5518  3.6133 -1.4098
  140SAPE   C1115225   3.684   1.568  11.023  0.3946 -0.3198  0.5732
  140SAPE  H11A15226   3.647   1.464  11.009  0.8648 -0.4717  0.4612
  140SAPE  H11B15227   3.755   1.579  10.938 -1.5149 -1.1113 -1.1662
  140SAPE     P15228   3.563   1.766  10.890 -0.0112  0.4658  0.5598
  140SAPE   O1315229   3.416   1.778  10.868 -0.4975 -0.1475  0.5195
  140SAPE   O1415230   3.640   1.887  10.924  0.6069 -0.1411  0.3204
  140SAPE   O1215231   3.575   1.661  11.011 -0.3041 -0.2190 -0.4182
  140SAPE   O1115232   3.630   1.702  10.761 -0.5856 -0.4169  0.0894
  140SAPE    C115233   3.579   1.586  10.689 -0.2166 -0.1624  0.2639
  140SAPE    HA15234   3.645   1.497  10.686  0.7551  0.5115  1.2199
  140SAPE    HB15235   3.496   1.539  10.746  0.8407 -2.8952 -0.3778
  140SAPE    C215236   3.546   1.616  10.538 -0.2765  0.5914 -0.0369
  140SAPE    HS15237   3.496   1.532  10.486  0.6125 -2.3203  3.5941
  140SAPE   O2115238   3.676   1.652  10.470 -0.1752 -0.1704  0.0019
  140SAPE   C2115239   3.738   1.545  10.439  0.2288  0.6167 -0.7997
  140SAPE   O2215240   3.696   1.432  10.443  0.5366  0.1348 -0.5691
  140SAPE   C2215241   3.864   1.586  10.367 -0.3379  0.1236  0.0440
  140SAPE   H2R15242   3.894   1.686  10.404  0.0783  0.2712 -0.6913
  140SAPE   H2S15243   3.952   1.525  10.398  0.9799  1.0036 -1.8438
  140SAPE    C315244   3.446   1.737  10.531 -0.8657 -0.2167  0.2790
  140SAPE    HX15245   3.507   1.824  10.562 -0.6304  0.0696 -0.9453
  140SAPE    HY15246   3.365   1.724  10.607  1.6963  1.1126  3.3317
  140SAPE   O3115247   3.410   1.757  10.395  0.3050  0.3653 -0.8650
  140SAPE   C3115248   3.284   1.720  10.362  0.6132  0.2232  0.3819
  140SAPE   O3215249   3.206   1.657  10.431 -0.1756  0.6552 -0.2311
  140SAPE   C3215250   3.257   1.765  10.223  0.2675 -0.5444 -0.0641
  140SAPE   H2X15251   3.344   1.746  10.156  1.1450 -1.2594  1.2482
  140SAPE   H2Y15252   3.229   1.872  10.229 -2.2371 -1.2210  0.9394
  140SAPE   C2315253   3.840   1.573  10.210  0.7387 -0.7443 -0.6476
  140SAPE   H3R15254   3.802   1.471  10.188 -0.0580  0.0847 -3.2893
  140SAPE   H3S15255   3.937   1.584  10.157 -0.4273  2.8341 -2.2001
  140SAPE   C2415256   3.731   1.671  10.160 -0.5535  0.7448  0.0094
  140SAPE   H4R15257   3.642   1.666  10.227 -1.1429  0.1715 -0.8118
  140SAPE   H4S15258   3.694   1.647  10.058  2.7522 -0.9640 -0.8206
  140SAPE   C2515259   3.789   1.809  10.178  0.0909 -1.0715  0.0426
  140SAPE   H5R15260   3.779   1.861  10.275 -1.7614 -2.5778  0.7056
  140SAPE   C2615261   3.843   1.886  10.078  0.4132 -0.0801 -0.4523
  140SAPE   H6R15262   3.890   1.982  10.103 -0.3843  0.2131 -0.0430
  140SAPE   C2715263   3.850   1.852   9.935 -0.1803 -0.3777  0.2212
  140SAPE   H7R15264   3.749   1.815   9.907 -0.4954  2.0514 -2.2163
  140SAPE   H7S15265   3.918   1.766   9.916 -0.4111 -0.7835  1.2078
  140SAPE   C2815266   3.892   1.965   9.844  1.1260 -0.5789 -0.4804
  140SAPE   H8R15267   3.916   2.051   9.909  0.3381 -0.1674 -0.7161
  140SAPE   C2915268   3.906   1.974   9.714  0.0290 -0.4030 -0.9943
  140SAPE   H9R15269   3.935   2.073   9.676  0.0675 -0.8360 -2.0961
  140SAPE  C21015270   3.872   1.867   9.618  0.6522 -0.3596 -0.8406
  140SAPE  H10R15271   3.806   1.896   9.533  1.7852 -0.1139 -1.6351
  140SAPE  H10S15272   3.807   1.793   9.670  0.4716  1.0090  0.9229
  140SAPE  C21115273   3.991   1.793   9.568  0.3379  0.1470 -0.1823
  140SAPE  H11R15274   4.058   1.763   9.649  0.7816  0.3414 -0.4785
  140SAPE  C21215275   4.021   1.757   9.442 -0.2970  0.4495 -0.3548
  140SAPE  H12R15276   4.109   1.691   9.439  0.6614  1.7036 -0.3374
  140SAPE  C21315277   3.959   1.777   9.310 -0.2228  0.0596 -0.0398
  140SAPE  H13R15278   3.851   1.754   9.313 -0.0432 -0.7469  0.3554
  140SAPE  H13S15279   4.002   1.704   9.238 -1.3565  0.3269 -1.0068
  140SAPE  C21415280   3.968   1.917   9.249 -0.8013 -0.6707 -0.5720
  140SAPE  H14R15281   4.028   1.981   9.316 -0.6466  0.2042 -1.5176
  140SAPE  C21515282   3.913   1.957   9.130  0.2036  0.5690 -0.0412
  140SAPE  H15R15283   3.930   2.058   9.090  2.1381  0.1518 -0.2854
  140SAPE  C21615284   3.828   1.866   9.034  0.6528  0.6167 -0.1133
  140SAPE  H16R15285   3.730   1.917   9.020  0.4106  0.5582  1.3461
  140SAPE  H16S15286   3.817   1.762   9.071  2.2548  0.7421  0.7706
  140SAPE  C21715287   3.890   1.857   8.899 -0.1261  0.8912  0.0238
  140SAPE  H17R15288   3.873   1.945   8.834  4.7141  0.7105 -1.6848
  140SAPE  H17S15289   3.848   1.773   8.839  1.7052  0.8118 -1.1920
  140SAPE  C21815290   4.042   1.832   8.892 -0.0854  0.7220 -0.3204
  140SAPE  H18R15291   4.060   1.741   8.954 -0.3866 -0.2033 -1.5843
  140SAPE  H18S15292   4.092   1.918   8.942 -2.3833  1.9938 -0.1080
  140SAPE  C21915293   4.106   1.816   8.758  0.1269  0.2481  0.0226
  140SAPE  H19R15294   4.092   1.913   8.706 -2.0236 -0.2411 -0.3587
  140SAPE  H19S15295   4.042   1.753   8.693 -0.9457 -1.0232  2.2836
  140SAPE  C22015296   4.253   1.769   8.748  1.0522 -0.1497  0.1650
  140SAPE  H20R15297   4.278   1.753   8.641 -0.3450  1.3717 -0.4070
  140SAPE  H20S15298   4.255   1.671   8.800 -0.2241 -1.0118 -1.3589
  140SAPE  H20T15299   4.318   1.834   8.810 -0.4961 -2.2579  4.1668
  140SAPE   C3315300   3.129   1.690  10.184  0.0284  0.0939 -0.8447
  140SAPE   H3X15301   3.051   1.705  10.261 -0.5914  1.4474 -1.7123
  140SAPE   H3Y15302   3.140   1.580  10.172 -2.5671 -0.4164  1.0771
  140SAPE   C3415303   3.066   1.759  10.062 -0.0067 -0.1254 -0.7766
  140SAPE   H4X15304   2.976   1.695  10.044 -0.2751  0.1204 -0.3399
  140SAPE   H4Y15305   3.123   1.743   9.969  1.6053 -0.1871  0.1997
  140SAPE   C3515306   3.023   1.900  10.091 -0.3379  0.0867 -0.0180
  140SAPE   H5X15307   3.113   1.966  10.086 -1.1155  1.2502  1.0355
  140SAPE   H5Y15308   2.989   1.901  10.197  2.8853 -0.1713  1.0987
  140SAPE   C3615309   2.916   1.948   9.990  0.0602  0.5874 -0.0363
  140SAPE   H6X15310   2.910   2.059   9.998 -0.8695  0.7667 -2.6623
  140SAPE   H6Y15311   2.819   1.909  10.028  0.1641 -0.0061 -0.3711
  140SAPE   C3715312   2.945   1.911   9.837 -0.8160 -0.3484  0.3326
  140SAPE   H7X15313   2.867   1.963   9.777  0.4046  0.0110 -0.9708
  140SAPE   H7Y15314   2.927   1.804   9.812  0.8574 -0.9550  1.6932
  140SAPE   C3815315   3.076   1.971   9.781 -0.0449  0.2693  0.4437
  140SAPE   H8X15316   3.158   1.917   9.833 -0.7422  0.4771  1.7748
  140SAPE   H8Y15317   3.076   2.080   9.804 -3.1496  0.7751 -1.7095
  140SAPE   C3915318   3.098   1.952   9.628 -0.7122  0.4508 -0.4765
  140SAPE   H9X15319   3.096   1.845   9.598 -0.5848 -0.5551  2.8583
  140SAPE   H9Y15320   3.192   2.009   9.610 -0.7626  0.1463 -1.7022
  140SAPE  C31015321   2.998   2.002   9.532  0.0395 -0.0412  0.0086
  140SAPE  H10X15322   2.994   2.112   9.544  0.3857 -0.0255 -0.0134
  140SAPE  H10Y15323   2.900   1.955   9.555  1.6497 -2.2048  2.7307
  140SAPE  C31115324   3.008   1.968   9.380  0.2376 -0.0684 -0.7598
  140SAPE  H11X15325   2.913   1.913   9.362  0.1457  0.4718 -1.9628
  140SAPE  H11Y15326   3.100   1.904   9.375 -0.8289 -1.6727 -0.3448
  140SAPE  C31215327   3.009   2.090   9.288  0.3720 -0.8811 -0.2739
  140SAPE  H12X15328   3.076   2.170   9.327 -2.5736  1.9641 -0.8282
  140SAPE  H12Y15329   2.909   2.137   9.277 -0.0466 -1.8159 -0.4768
  140SAPE  C31315330   3.046   2.055   9.140  0.7929 -0.1788  0.1436
  140SAPE  H13X15331   2.978   1.968   9.127 -0.7078  0.7383  1.6543
  140SAPE  H13Y15332   3.153   2.028   9.122  0.6412 -0.0674 -0.9897
  140SAPE  C31415333   3.000   2.171   9.038 -0.0971  0.3888 -0.5115
  140SAPE  H14X15334   3.088   2.238   9.026  0.5795 -0.7512 -2.1067
  140SAPE  H14Y15335   2.918   2.236   9.074 -0.1898  1.4831 -2.5799
  140SAPE  C31515336   2.981   2.102   8.897  0.3422 -0.5118  0.1455
  140SAPE  H15X15337   2.878   2.063   8.879 -0.8820  2.4556  0.3321
  140SAPE  H15Y15338   3.057   2.022   8.887  0.7658 -0.0663 -0.2124
  140SAPE  C31615339   3.014   2.203   8.783 -0.7127  0.4262 -0.4195
  140SAPE  H16X15340   3.115   2.250   8.783 -0.0032 -1.0756 -0.7818
  140SAPE  H16Y15341   2.946   2.290   8.793 -1.6082 -0.3744  0.5176
  140SAPE  C31715342   2.987   2.145   8.647 -0.0144 -0.4785 -0.0366
  140SAPE  H17X15343   2.881   2.121   8.624 -0.3358  1.2821 -0.5002
  140SAPE  H17Y15344   3.050   2.055   8.632  1.1525  0.1849  0.8487
  140SAPE  C31815345   3.034   2.235   8.534  0.3539 -0.2284 -0.2755
  140SAPE  H18X15346   2.970   2.230   8.443 -0.0585 -2.2532  0.0995
  140SAPE  H18Y15347   3.137   2.217   8.495 -0.0671 -0.7007 -1.1907
  140SAPE  H18Z15348   3.026   2.341   8.565  1.1706 -1.1936  3.4682
  141SAPE     N15349   4.572   2.573  11.090 -0.6554  0.2046  0.2529
  141SAPE   HN115350   4.590   2.654  11.152  0.2683  0.7466 -0.7214
  141SAPE   HN215351   4.627   2.591  11.004  0.7436 -0.2448  1.0298
  141SAPE   HN315352   4.469   2.576  11.073 -0.2515  1.8028 -2.1324
  141SAPE   C1215353   4.611   2.447  11.155 -0.0198  0.2979 -0.2115
  141SAPE  H12A15354   4.678   2.468  11.242  0.8750  0.5473 -0.9496
  141SAPE  H12B15355   4.648   2.385  11.071  1.5059  0.7285  0.1221
  141SAPE   C1115356   4.485   2.396  11.225 -0.2021 -0.5724  0.1319
  141SAPE  H11A15357   4.438   2.480  11.280 -0.8065 -0.7806 -0.0610
  141SAPE  H11B15358   4.500   2.321  11.307  0.4000  1.6459  2.1115
  141SAPE     P15359   4.385   2.191  11.089 -0.2168 -0.2620  0.1990
  141SAPE   O1315360   4.523   2.135  11.085 -0.0471  0.4557 -0.2776
  141SAPE   O1415361   4.284   2.120  11.175  0.3554  0.0967  0.5445
  141SAPE   O1215362   4.393   2.345  11.128  0.4573 -0.3913  0.3525
  141SAPE   O1115363   4.329   2.188  10.944  0.3556 -0.0214 -0.0722
  141SAPE    C115364   4.313   2.310  10.866  0.7843  0.0356  0.2626
  141SAPE    HA15365   4.230   2.369  10.910 -0.6055 -1.3706 -0.4278
  141SAPE    HB15366   4.411   2.363  10.867  0.2956  0.9365  1.2496
  141SAPE    C215367   4.253   2.263  10.734  0.5966  0.2534 -0.1132
  141SAPE    HS15368   4.318   2.187  10.687 -1.0623  0.2156 -2.4076
  141SAPE   O2115369   4.239   2.379  10.641 -0.0047  0.4716  0.7464
  141SAPE   C2115370   4.352   2.424  10.592  0.3301  0.3256  0.0021
  141SAPE   O2215371   4.462   2.382  10.623 -0.0570  0.0888 -0.0265
  141SAPE   C2215372   4.319   2.549  10.504 -0.4348  0.2302 -0.2511
  141SAPE   H2R15373   4.227   2.529  10.446 -0.7518 -0.6563  0.5605
  141SAPE   H2S15374   4.311   2.633  10.577 -1.3868 -0.7618  0.7875
  141SAPE    C315375   4.118   2.192  10.749  0.0945  0.2806  0.2669
  141SAPE    HX15376   4.031   2.257  10.770 -0.8128 -1.5083  2.2772
  141SAPE    HY15377   4.125   2.123  10.836  0.6180  1.2051  0.9628
  141SAPE   O3115378   4.092   2.130  10.623  0.0769 -0.1300 -0.0625
  141SAPE   C3115379   4.116   2.002  10.626  0.5328  0.4404  0.5149
  141SAPE   O3215380   4.143   1.931  10.723  0.4020 -0.5020  0.4874
  141SAPE   C3215381   4.087   1.949  10.488 -0.2979  0.0192 -1.0814
  141SAPE   H2X15382   4.061   2.028  10.414  1.7556  0.6295 -1.1756
  141SAPE   H2Y15383   3.997   1.883  10.489 -1.0218  0.9978 -0.6326
  141SAPE   C2315384   4.436   2.583  10.403 -0.1682 -0.0014 -0.0640
  141SAPE   H3R15385   4.476   2.492  10.354 -0.5665 -0.1483 -0.1136
  141SAPE   H3S15386   4.527   2.621  10.455  1.6418 -0.0702 -3.0914
  141SAPE   C2415387   4.377   2.681  10.297 -0.5734 -0.4954  0.5022
  141SAPE   H4R15388   4.280   2.648  10.254 -1.9265  2.0993  1.4993
  141SAPE   H4S15389   4.456   2.682  10.218 -1.1156  3.8594 -0.0753
  141SAPE   C2515390   4.341   2.823  10.337 -0.3059  0.5887  0.2193
  141SAPE   H5R15391   4.373   2.861  10.435 -1.3730  2.8832 -0.2941
  141SAPE   C2615392   4.271   2.904  10.256 -0.0177  0.3230  0.6465
  141SAPE   H6R15393   4.246   3.005  10.291 -0.0636  1.3856 -2.3078
  141SAPE   C2715394   4.223   2.880  10.119 -0.0025  0.9453 -0.5151
  141SAPE   H7R15395   4.258   2.777  10.093  0.7280  1.3360 -1.1029
  141SAPE   H7S15396   4.281   2.942  10.047 -0.8933  1.2638 -0.9646
  141SAPE   C2815397   4.077   2.923  10.116 -0.3100  0.1593  0.6378
  141SAPE   H8R15398   4.040   2.994  10.192  0.3218  0.8493  0.3028
  141SAPE   C2915399   4.005   2.860  10.017 -0.4441 -0.5672 -0.2308
  141SAPE   H9R15400   3.896   2.872  10.012 -0.5148  0.7634  3.1131
  141SAPE  C21015401   4.071   2.763   9.925 -0.5359  0.3702  0.8384
  141SAPE  H10R15402   4.090   2.665   9.974  1.5475  0.3697  0.0806
  141SAPE  H10S15403   4.168   2.789   9.879 -0.5794 -1.7807 -0.5360
  141SAPE  C21115404   3.967   2.725   9.820 -0.6683 -0.2633  0.4323
  141SAPE  H11R15405   3.872   2.681   9.853  0.3171 -2.2491  0.7023
  141SAPE  C21215406   3.996   2.729   9.689 -0.6655 -0.2816 -0.2307
  141SAPE  H12R15407   3.911   2.708   9.623 -1.2762 -2.0079  1.0641
  141SAPE  C21315408   4.125   2.771   9.615 -0.1909  0.1636 -0.1573
  141SAPE  H13R15409   4.136   2.697   9.533  2.4018  0.6825 -0.3125
  141SAPE  H13S15410   4.200   2.736   9.689 -0.3068  1.7251  0.7151
  141SAPE  C21415411   4.150   2.920   9.589  0.8751 -0.1972 -0.0085
  141SAPE  H14R15412   4.213   2.966   9.667  2.1877  1.5171 -2.0471
  141SAPE  C21515413   4.118   2.984   9.478  0.4464 -0.1454  0.1262
  141SAPE  H15R15414   4.139   3.091   9.468 -2.8392  0.8237  2.7440
  141SAPE  C21615415   4.057   2.915   9.361  0.2912  0.1072  0.1714
  141SAPE  H16R15416   3.969   2.850   9.383  1.4872 -1.7853 -0.5062
  141SAPE  H16S15417   4.123   2.835   9.322  1.0460 -0.2309  2.1129
  141SAPE  C21715418   4.027   3.018   9.253 -0.1004 -0.5116 -0.3294
  141SAPE  H17R15419   4.120   3.072   9.224  0.8898 -2.3327 -0.6130
  141SAPE  H17S15420   3.959   3.094   9.296  0.1797  0.6298 -1.8665
  141SAPE  C21815421   3.960   2.956   9.122 -0.8421  0.2442 -0.2719
  141SAPE  H18R15422   3.866   2.904   9.151  1.0837 -2.4615  1.3283
  141SAPE  H18S15423   4.024   2.877   9.078 -2.7291 -2.0711  1.0381
  141SAPE  C21915424   3.922   3.059   9.017  0.6792  0.4595 -0.5086
  141SAPE  H19R15425   3.906   3.001   8.924  2.5637  1.1065 -1.2618
  141SAPE  H19S15426   4.010   3.124   8.995 -0.2037  2.0586  0.5660
  141SAPE  C22015427   3.801   3.145   9.051  0.0495 -0.5095  0.1350
  141SAPE  H20R15428   3.771   3.199   8.960 -1.7557 -2.2334 -0.3203
  141SAPE  H20S15429   3.822   3.215   9.135 -1.4515 -1.2505  1.1617
  141SAPE  H20T15430   3.714   3.080   9.074 -1.1076  1.7537  2.4604
  141SAPE   C3315431   4.215   1.875  10.434  0.2175  0.7779  0.2393
  141SAPE   H3X15432   4.245   1.797  10.507 -1.7587 -0.8906 -0.6651
  141SAPE   H3Y15433   4.294   1.951  10.421  0.3505  0.4295 -1.0892
  141SAPE   C3415434   4.190   1.808  10.299 -0.0295  1.0780 -0.4087
  141SAPE   H4X15435   4.197   1.881  10.215 -0.6886 -0.2036 -1.5976
  141SAPE   H4Y15436   4.089   1.761  10.293  0.1309  0.7463 -0.4910
  141SAPE   C3515437   4.304   1.707  10.265 -0.1047  0.7861  0.1765
  141SAPE   H5X15438   4.336   1.645  10.352 -1.2459 -0.7339 -0.4654
  141SAPE   H5Y15439   4.394   1.768  10.244  0.2622  0.1153 -0.2557
  141SAPE   C3615440   4.274   1.612  10.143  0.3858 -0.8330  0.0716
  141SAPE   H6X15441   4.193   1.543  10.172 -2.3632  2.6222  1.0465
  141SAPE   H6Y15442   4.362   1.546  10.131 -0.0760 -1.3554 -0.4357
  141SAPE   C3715443   4.239   1.689  10.015 -0.0252  0.0268 -0.4248
  141SAPE   H7X15444   4.319   1.758   9.981 -0.6666  0.1263 -1.7585
  141SAPE   H7Y15445   4.153   1.755  10.040  0.4577  0.7363 -0.6236
  141SAPE   C3815446   4.203   1.599   9.901  0.0463  0.0922 -0.0935
  141SAPE   H8X15447   4.141   1.666   9.838 -0.3750 -1.3862 -1.3071
  141SAPE   H8Y15448   4.143   1.517   9.948  2.4487 -1.5969  0.0942
  141SAPE   C3915449   4.313   1.559   9.807 -0.2713  0.5886 -0.1315
  141SAPE   H9X15450   4.363   1.467   9.844 -1.5335  0.0493  0.2694
  141SAPE   H9Y15451   4.381   1.646   9.815 -1.8058  1.9838 -1.7426
  141SAPE  C31015452   4.259   1.534   9.674  0.1248 -0.4170  0.7015
  141SAPE  H10X15453   4.248   1.631   9.621 -2.4903  0.7575  3.2436
  141SAPE  H10Y15454   4.158   1.489   9.682 -0.5986  1.5296  3.1936
  141SAPE  C31115455   4.350   1.447   9.588  0.9646  0.1777  0.0930
  141SAPE  H11X15456   4.378   1.347   9.628  1.2902  1.0229  2.0485
  141SAPE  H11Y15457   4.453   1.488   9.580  1.2191  0.0467  2.4082
  141SAPE  C31215458   4.291   1.420   9.451  0.1785 -0.0581 -0.1586
  141SAPE  H12X15459   4.270   1.526   9.422 -0.8164  0.3976  2.1517
  141SAPE  H12Y15460   4.201   1.355   9.460 -1.5261  1.8732 -2.4720
  141SAPE  C31315461   4.399   1.374   9.356  0.3973 -0.1397  0.1948
  141SAPE  H13X15462   4.493   1.433   9.356 -0.6022  1.4959 -0.6767
  141SAPE  H13Y15463   4.359   1.403   9.256  0.2731  0.7908  0.5121
  141SAPE  C31415464   4.423   1.226   9.361  0.1667 -0.7340  0.8405
  141SAPE  H14X15465   4.332   1.174   9.324 -0.6023  1.3200 -0.2009
  141SAPE  H14Y15466   4.431   1.189   9.465 -3.2762 -2.3834  0.5877
  141SAPE  C31515467   4.544   1.190   9.262  0.1022 -0.3130 -0.5124
  141SAPE  H15X15468   4.639   1.236   9.298 -0.7233  0.8132  0.2664
  141SAPE  H15Y15469   4.528   1.241   9.165 -0.3318  0.5994  0.0328
  141SAPE  C31615470   4.550   1.037   9.230  0.2136  0.5150  0.2759
  141SAPE  H16X15471   4.457   1.001   9.181  0.5813  1.0836 -0.8771
  141SAPE  H16Y15472   4.568   0.997   9.332  1.6990  0.4185 -0.0139
  141SAPE  C31715473   4.664   1.000   9.131 -0.3287 -0.0488  0.0027
  141SAPE  H17X15474   4.765   1.028   9.166 -0.2017  2.0641 -1.9561
  141SAPE  H17Y15475   4.645   1.053   9.035  2.1528 -2.2021 -1.7834
  141SAPE  C31815476   4.660   0.856   9.080  0.2957  0.2668 -0.2465
  141SAPE  H18X15477   4.725   0.797   9.148 -0.6410 -0.7047 -0.1770
  141SAPE  H18Y15478   4.690   0.842   8.974 -0.7223 -4.5915 -0.0350
  141SAPE  H18Z15479   4.555   0.822   9.095 -0.8402  3.1766 -1.1941
  142SAPE     N15480   4.562   1.689  10.930  0.0900 -0.1105  0.0212
  142SAPE   HN115481   4.525   1.769  10.875  0.4367  0.0098 -0.0381
  142SAPE   HN215482   4.534   1.608  10.872 -0.9664 -0.2875  0.7617
  142SAPE   HN315483   4.508   1.688  11.019 -1.4120  0.0209 -0.8689
  142SAPE   C1215484   4.711   1.685  10.931 -0.5119  0.0210 -0.3416
  142SAPE  H12A15485   4.753   1.782  10.964  0.2040 -0.4516  0.1446
  142SAPE  H12B15486   4.730   1.673  10.822  1.0910 -0.1160 -0.0524
  142SAPE   C1115487   4.773   1.567  11.010  0.5119  0.2477 -0.0839
  142SAPE  H11A15488   4.778   1.605  11.114 -0.0827  1.1702 -0.3875
  142SAPE  H11B15489   4.874   1.528  10.984  0.8982  0.4406  1.0809
  142SAPE     P15490   4.688   1.338  11.112  0.5087 -0.1703  0.1502
  142SAPE   O1315491   4.795   1.350  11.217  0.0263 -0.3107 -0.0446
  142SAPE   O1415492   4.553   1.323  11.171 -0.0113  0.1615 -0.5735
  142SAPE   O1215493   4.681   1.464  11.014 -0.0823 -0.1942 -0.1070
  142SAPE   O1115494   4.708   1.213  11.021 -0.4561  0.4376  0.5097
  142SAPE    C115495   4.806   1.200  10.922  0.0418 -0.3690 -0.3673
  142SAPE    HA15496   4.903   1.249  10.943  0.7072  0.1165 -4.1059
  142SAPE    HB15497   4.831   1.092  10.906  0.6058  0.0726 -2.7754
  142SAPE    C215498   4.756   1.252  10.781 -0.2161 -0.4323 -0.3367
  142SAPE    HS15499   4.718   1.356  10.794  0.2424 -0.1168 -1.5284
  142SAPE   O2115500   4.646   1.165  10.734 -0.0321  1.0737  0.2147
  142SAPE   C2115501   4.566   1.225  10.640 -0.3567 -0.1179  0.1093
  142SAPE   O2215502   4.571   1.340  10.604  0.0807 -0.2687  0.2689
  142SAPE   C2215503   4.478   1.123  10.583  0.3567 -0.2157 -0.0781
  142SAPE   H2R15504   4.396   1.105  10.657  0.1251  2.6535  0.4179
  142SAPE   H2S15505   4.432   1.158  10.488  1.2840  0.7217 -0.1895
  142SAPE    C315506   4.873   1.256  10.680 -0.0868 -0.2280  0.0194
  142SAPE    HX15507   4.899   1.149  10.672 -1.0597 -0.5900  1.4450
  142SAPE    HY15508   4.968   1.295  10.723 -0.1966  0.0962 -0.0257
  142SAPE   O3115509   4.841   1.300  10.549  0.2005 -0.5119  0.1181
  142SAPE   C3115510   4.850   1.432  10.529 -0.0514 -0.2895 -0.7741
  142SAPE   O3215511   4.896   1.513  10.610  0.3944 -0.0093 -0.0468
  142SAPE   C3215512   4.789   1.467  10.391  0.0559 -0.2412  0.7517
  142SAPE   H2X15513   4.712   1.389  10.373 -0.3524  0.5895 -1.2549
  142SAPE   H2Y15514   4.869   1.459  10.314 -0.8354  0.6209 -0.2788
  142SAPE   C2315515   4.538   0.980  10.556  0.5956 -0.1716 -0.1553
  142SAPE   H3R15516   4.447   0.916  10.551 -0.8362  1.7793  0.3971
  142SAPE   H3S15517   4.601   0.955  10.644 -0.0088  0.0031  0.3350
  142SAPE   C2415518   4.621   0.968  10.429  1.1646 -0.3169  0.1881
  142SAPE   H4R15519   4.549   1.002  10.351  1.0400  0.6841  0.7313
  142SAPE   H4S15520   4.648   0.861  10.420  0.0897 -0.6634  0.9605
  142SAPE   C2515521   4.755   1.032  10.421  0.5939 -0.5382  0.1534
  142SAPE   H5R15522   4.828   1.009  10.499  0.9407  0.4376  0.1225
  142SAPE   C2615523   4.790   1.104  10.310 -0.2073 -0.0743 -0.1338
  142SAPE   H6R15524   4.894   1.139  10.308 -0.6213  1.1797 -0.0661
  142SAPE   C2715525   4.701   1.128  10.187 -0.2903 -0.0045 -0.0056
  142SAPE   H7R15526   4.601   1.162  10.224  0.1868 -1.1673  2.4332
  142SAPE   H7S15527   4.677   1.036  10.130  0.7728  0.4027 -1.1269
  142SAPE   C2815528   4.767   1.228  10.098 -1.0689 -0.0306  0.3743
  142SAPE   H8R15529   4.800   1.319  10.148  0.1837 -0.4221  0.2758
  142SAPE   C2915530   4.800   1.228   9.967  0.8788  0.5942 -0.0537
  142SAPE   H9R15531   4.864   1.311   9.933  0.3519  0.6736 -0.8645
  142SAPE  C21015532   4.782   1.127   9.862  0.0963  0.4551 -0.5961
  142SAPE  H10R15533   4.753   1.035   9.918 -1.5869  0.7494 -0.9924
  142SAPE  H10S15534   4.881   1.103   9.817  1.2028 -0.3969  2.1149
  142SAPE  C21115535   4.682   1.185   9.766 -0.0905 -0.2679 -0.2985
  142SAPE  H11R15536   4.582   1.206   9.806  0.5073  0.4565  0.8282
  142SAPE  C21215537   4.695   1.190   9.634 -0.2808  0.8395  0.5998
  142SAPE  H12R15538   4.615   1.230   9.570  1.2753  1.6340 -0.9159
  142SAPE  C21315539   4.826   1.156   9.543 -0.1851 -0.4021 -0.3489
  142SAPE  H13R15540   4.811   1.159   9.432 -2.3935 -1.5663 -0.1176
  142SAPE  H13S15541   4.858   1.050   9.555 -1.7794 -1.0207 -1.3600
  142SAPE  C21415542   4.940   1.244   9.583 -0.3092 -0.1919  0.1187
  142SAPE  H14R15543   4.926   1.308   9.671 -1.6245 -0.8262  0.3817
  142SAPE  C21515544   5.043   1.271   9.500  0.7022 -0.4167 -0.0680
  142SAPE  H15R15545   5.123   1.338   9.536  0.8823 -0.3058 -0.6722
  142SAPE  C21615546   5.057   1.203   9.365 -0.0500 -0.1460 -0.1829
  142SAPE  H16R15547   5.094   1.285   9.300  0.1373  0.7259  0.9962
  142SAPE  H16S15548   4.969   1.162   9.311 -0.7190 -0.8328  1.3758
  142SAPE  C21715549   5.162   1.089   9.377  0.4014  0.1664 -0.3377
  142SAPE  H17R15550   5.147   1.029   9.469 -1.7335  0.5706 -0.4076
  142SAPE  H17S15551   5.261   1.141   9.381 -0.0635  0.9906  1.2233
  142SAPE  C21815552   5.162   0.981   9.268 -0.3431 -0.5016  0.0036
  142SAPE  H18R15553   5.259   0.931   9.288 -1.8468 -1.2558  6.3395
  142SAPE  H18S15554   5.143   1.013   9.163 -2.8844 -1.7484  0.0530
  142SAPE  C21915555   5.055   0.872   9.289  0.5785 -0.0756  0.3610
  142SAPE  H19R15556   4.967   0.938   9.280  0.6700  0.3802  2.5046
  142SAPE  H19S15557   5.057   0.838   9.395  0.4437 -1.2491  0.0016
  142SAPE  C22015558   5.053   0.762   9.184 -0.6630  0.0976  0.2653
  142SAPE  H20R15559   5.041   0.799   9.080  2.0139 -3.1333 -1.2962
  142SAPE  H20S15560   4.965   0.695   9.193 -1.5952  0.8757 -2.5446
  142SAPE  H20T15561   5.149   0.707   9.190 -0.5976  0.4072  2.7633
  142SAPE   C3315562   4.717   1.603  10.390  0.0276 -0.2467  0.7143
  142SAPE   H3X15563   4.793   1.680  10.417  0.5348 -0.3610 -0.3548
  142SAPE   H3Y15564   4.639   1.606  10.470  0.5599  0.7790  1.2123
  142SAPE   C3415565   4.653   1.638  10.252 -0.3100  0.4104  0.1320
  142SAPE   H4X15566   4.616   1.743  10.248 -0.8893  0.2236  0.5908
  142SAPE   H4Y15567   4.569   1.567  10.239  0.1415 -0.6613  2.7628
  142SAPE   C3515568   4.749   1.619  10.133 -0.4004 -0.2151  0.2563
  142SAPE   H5X15569   4.763   1.511  10.112 -2.4041 -1.2883  3.8299
  142SAPE   H5Y15570   4.849   1.663  10.151 -1.7075  3.4328 -0.9905
  142SAPE   C3615571   4.700   1.665   9.990 -0.5310  0.2276  0.6036
  142SAPE   H6X15572   4.729   1.772   9.977  0.0583  0.1332  1.1266
  142SAPE   H6Y15573   4.591   1.645   9.996 -0.1113 -2.1875  0.7749
  142SAPE   C3715574   4.753   1.573   9.874  0.4888 -0.2787  0.2201
  142SAPE   H7X15575   4.719   1.468   9.884  2.1893 -0.8931 -0.3955
  142SAPE   H7Y15576   4.863   1.563   9.888  0.3572 -1.4173  0.5320
  142SAPE   C3815577   4.715   1.628   9.736  0.6077 -0.0913 -0.0579
  142SAPE   H8X15578   4.756   1.731   9.725 -0.4731  0.3152 -0.2855
  142SAPE   H8Y15579   4.605   1.631   9.722  0.7067 -0.8809 -1.0612
  142SAPE   C3915580   4.773   1.544   9.619 -0.4687 -0.4603  0.2887
  142SAPE   H9X15581   4.726   1.444   9.614  1.3838 -1.2601 -1.7141
  142SAPE   H9Y15582   4.882   1.530   9.636 -0.0970  1.0457 -0.6884
  142SAPE  C31015583   4.767   1.616   9.481 -0.4480  0.1693 -0.3900
  142SAPE  H10X15584   4.824   1.712   9.479 -1.0641  0.5146 -1.6576
  142SAPE  H10Y15585   4.662   1.639   9.455 -0.7796  0.9288  1.5014
  142SAPE  C31115586   4.828   1.522   9.367  0.7805 -0.0672 -0.0008
  142SAPE  H11X15587   4.783   1.420   9.372  0.6298  0.0461  1.1055
  142SAPE  H11Y15588   4.937   1.523   9.384  0.8908 -2.9704 -0.3618
  142SAPE  C31215589   4.789   1.575   9.231  0.8060  0.1667  0.1864
  142SAPE  H12X15590   4.828   1.679   9.223  1.7396 -0.2239 -0.4544
  142SAPE  H12Y15591   4.680   1.577   9.208  0.7445  1.1998  0.5318
  142SAPE  C31315592   4.865   1.490   9.121 -0.4799 -0.1552 -0.6820
  142SAPE  H13X15593   4.852   1.381   9.134 -0.2295  0.0952  2.1032
  142SAPE  H13Y15594   4.974   1.495   9.143 -1.0449  0.8595  2.1341
  142SAPE  C31415595   4.831   1.525   8.976  0.1981 -0.3238  0.2877
  142SAPE  H14X15596   4.886   1.616   8.944  0.2645 -1.2455 -2.3296
  142SAPE  H14Y15597   4.726   1.558   8.958  0.7287  1.1058 -0.2997
  142SAPE  C31515598   4.871   1.413   8.880  0.0318  0.1761  0.3019
  142SAPE  H15X15599   4.974   1.376   8.900 -0.4702 -0.8554  1.0071
  142SAPE  H15Y15600   4.867   1.457   8.778  1.5507  1.5491  0.8041
  142SAPE  C31615601   4.780   1.291   8.890 -0.8184 -0.7606  0.2461
  142SAPE  H16X15602   4.678   1.333   8.876 -0.9491 -0.7671  1.1517
  142SAPE  H16Y15603   4.782   1.256   8.996 -1.1389  1.0232  0.8693
  142SAPE  C31715604   4.811   1.182   8.793  0.0886  0.4361  0.2063
  142SAPE  H17X15605   4.762   1.095   8.842 -0.7547  0.6178 -0.3064
  142SAPE  H17Y15606   4.916   1.154   8.770  0.4832  0.4295  1.9771
  142SAPE  C31815607   4.751   1.211   8.655 -0.2172 -0.2600 -0.3832
  142SAPE  H18X15608   4.808   1.296   8.612  1.8364  0.3884  3.3741
  142SAPE  H18Y15609   4.643   1.236   8.653 -0.0818  0.3376 -0.3035
  142SAPE  H18Z15610   4.752   1.123   8.587  0.5948 -0.9997  0.5527
  143SAPE     N15611   0.216   1.883  10.912  0.3866 -0.5089 -0.5672
  143SAPE   HN115612   0.192   1.974  10.866  1.8248  0.3988  0.4425
  143SAPE   HN215613   0.145   1.866  10.985 -1.1837 -0.4741 -2.0523
  143SAPE   HN315614   0.307   1.896  10.960 -1.1433 -1.7331  2.7687
  143SAPE   C1215615   0.233   1.761  10.821  0.1333  1.0850  0.1238
  143SAPE  H12A15616   0.266   1.670  10.874 -1.3771  0.6170  0.3052
  143SAPE  H12B15617   0.298   1.790  10.736  1.0363 -1.1985  0.0172
  143SAPE   C1115618   0.098   1.712  10.754 -0.1789  0.3615  0.2325
  143SAPE  H11A15619   0.120   1.632  10.681 -0.3356  1.0848 -0.6067
  143SAPE  H11B15620   0.050   1.786  10.687  0.6637  1.4897  0.8470
  143SAPE     P15621  -0.111   1.726  10.920 -0.1812 -0.4493  0.3869
  143SAPE   O1315622  -0.132   1.658  11.048  0.3136  0.0523 -0.7660
  143SAPE   O1415623  -0.101   1.874  10.923  0.1004 -0.0383  0.9926
  143SAPE   O1215624   0.016   1.661  10.856 -0.6317 -0.2898 -0.1003
  143SAPE   O1115625  -0.244   1.686  10.835  0.1809 -0.5301  0.3390
  143SAPE    C115626  -0.245   1.584  10.729 -0.7071 -0.6053  0.2521
  143SAPE    HA15627  -0.168   1.509  10.756 -0.1175  0.3322  1.2202
  143SAPE    HB15628  -0.345   1.537  10.718  0.2827 -2.3616 -1.5715
  143SAPE    C215629  -0.201   1.633  10.587 -0.1118  0.2727 -0.3329
  143SAPE    HS15630  -0.105   1.686  10.603 -0.1058  0.5092 -1.0928
  143SAPE   O2115631  -0.307   1.708  10.532 -0.5308  0.6387  0.3683
  143SAPE   C2115632  -0.274   1.823  10.469 -0.4925 -0.4651  0.0041
  143SAPE   O2215633  -0.155   1.857  10.446  0.1040 -0.1699 -0.9271
  143SAPE   C2215634  -0.394   1.909  10.434  0.5663 -0.1501 -0.4305
  143SAPE   H2R15635  -0.483   1.849  10.406 -0.4941  1.2786 -0.2009
  143SAPE   H2S15636  -0.422   1.981  10.514  1.7707 -0.4023  0.2335
  143SAPE    C315637  -0.173   1.507  10.498  0.2564  0.4120 -0.6186
  143SAPE    HX15638  -0.266   1.447  10.506 -0.7946  1.8227 -1.7449
  143SAPE    HY15639  -0.093   1.445  10.543  1.0084  1.6452 -0.2290
  143SAPE   O3115640  -0.160   1.543  10.357 -0.0015 -0.0625  0.0832
  143SAPE   C3115641  -0.034   1.546  10.314 -0.0938 -0.0526  0.4868
  143SAPE   O3215642   0.063   1.513  10.378 -0.2286  0.0076 -0.2498
  143SAPE   C3215643  -0.035   1.600  10.170 -0.3429 -0.7778  0.0449
  143SAPE   H2X15644   0.038   1.683  10.174 -1.3679  0.2584 -1.9613
  143SAPE   H2Y15645  -0.132   1.652  10.157  0.2754  2.0181  5.1985
  143SAPE   C2315646  -0.358   2.018  10.325 -0.4136 -0.1310 -0.5643
  143SAPE   H3R15647  -0.253   2.053  10.333 -0.3428 -0.1002 -1.4879
  143SAPE   H3S15648  -0.430   2.101  10.337 -0.1404  0.1558 -0.8953
  143SAPE   C2415649  -0.382   1.961  10.182  0.0721  0.3847 -0.0156
  143SAPE   H4R15650  -0.360   1.853  10.172 -0.3441  0.0932  2.1505
  143SAPE   H4S15651  -0.306   2.013  10.119  0.6095 -0.9203 -0.4537
  143SAPE   C2515652  -0.517   1.987  10.124 -0.3241 -0.0535 -0.0657
  143SAPE   H5R15653  -0.594   1.990  10.203  0.1315 -0.1665  0.3921
  143SAPE   C2615654  -0.551   2.013  10.002 -0.1952 -0.0345  0.4953
  143SAPE   H6R15655  -0.651   2.047   9.972 -0.6303  0.0966  2.0380
  143SAPE   C2715656  -0.458   2.023   9.881 -0.5244 -0.0193  0.0776
  143SAPE   H7R15657  -0.514   1.998   9.788  1.7102 -0.6055 -1.1561
  143SAPE   H7S15658  -0.381   1.943   9.896 -1.0345 -0.0948  2.4238
  143SAPE   C2815659  -0.395   2.163   9.863 -0.3515 -0.3342 -0.3743
  143SAPE   H8R15660  -0.372   2.226   9.950  2.1156  0.0047 -1.2219
  143SAPE   C2915661  -0.363   2.211   9.738 -0.5746  0.3279 -0.6898
  143SAPE   H9R15662  -0.309   2.306   9.729 -0.6795  0.5977  1.3026
  143SAPE  C21015663  -0.387   2.138   9.616 -0.7578 -0.6948  0.0194
  143SAPE  H10R15664  -0.360   2.032   9.633  3.2974 -0.1008 -2.0449
  143SAPE  H10S15665  -0.316   2.174   9.539 -0.9712  1.8138  0.9389
  143SAPE  C21115666  -0.526   2.145   9.564 -0.6703  0.2925  0.6726
  143SAPE  H11R15667  -0.606   2.118   9.634  0.2796 -1.0010  1.2921
  143SAPE  C21215668  -0.561   2.182   9.436  0.3348  0.6546  0.9275
  143SAPE  H12R15669  -0.666   2.188   9.403  0.9144  0.4586 -1.0274
  143SAPE  C21315670  -0.471   2.206   9.322 -0.2585 -0.5199  0.0591
  143SAPE  H13R15671  -0.373   2.229   9.368 -0.9319 -0.5149  1.5032
  143SAPE  H13S15672  -0.509   2.300   9.275  1.4221  1.1451  1.9489
  143SAPE  C21415673  -0.452   2.090   9.225  0.4545  0.4873 -0.1784
  143SAPE  H14R15674  -0.373   2.019   9.253  0.7896  0.8108 -0.2890
  143SAPE  C21515675  -0.531   2.050   9.127 -0.1880  0.0993  0.0566
  143SAPE  H15R15676  -0.495   1.964   9.068 -1.1159  0.4737 -1.0654
  143SAPE  C21615677  -0.660   2.115   9.085 -0.8387 -0.0364  0.1012
  143SAPE  H16R15678  -0.681   2.196   9.159  1.6037  0.3795  0.3984
  143SAPE  H16S15679  -0.737   2.036   9.096  0.7659 -1.3934  2.0755
  143SAPE  C21715680  -0.638   2.172   8.943 -0.3004  0.5249  0.1667
  143SAPE  H17R15681  -0.646   2.090   8.868  2.2230 -0.6575  1.1483
  143SAPE  H17S15682  -0.538   2.220   8.941 -0.5756  1.2649  2.9529
  143SAPE  C21815683  -0.736   2.289   8.915  0.2272 -0.1214  0.1815
  143SAPE  H18R15684  -0.724   2.349   9.008  1.1412  1.1311 -0.7242
  143SAPE  H18S15685  -0.840   2.252   8.910 -0.2542  1.0341  1.2338
  143SAPE  C21915686  -0.702   2.362   8.789 -0.1210  0.7115 -0.1784
  143SAPE  H19R15687  -0.696   2.279   8.716  0.9074  1.0291 -0.4646
  143SAPE  H19S15688  -0.601   2.405   8.806  1.2993 -1.0525 -3.6817
  143SAPE  C22015689  -0.805   2.463   8.735 -0.8367 -0.1935 -0.3958
  143SAPE  H20R15690  -0.788   2.485   8.628  1.3618 -0.5806 -0.1363
  143SAPE  H20S15691  -0.806   2.551   8.803 -1.3859 -1.9015  1.8458
  143SAPE  H20T15692  -0.903   2.411   8.743 -1.4578  1.1219  0.7151
  143SAPE   C3315693  -0.024   1.477  10.074 -0.0379  0.0813  1.3352
  143SAPE   H3X15694  -0.113   1.412  10.064 -0.9919  1.4820  0.4717
  143SAPE   H3Y15695   0.066   1.419  10.104 -0.8302 -1.8764 -0.0115
  143SAPE   C3415696  -0.004   1.524   9.925 -0.7334 -0.0241  0.3984
  143SAPE   H4X15697  -0.079   1.603   9.902  0.6370  1.3010  0.3838
  143SAPE   H4Y15698  -0.022   1.439   9.855  2.0443 -1.5366  1.4238
  143SAPE   C3515699   0.137   1.585   9.900  0.0509  0.6770 -0.0216
  143SAPE   H5X15700   0.213   1.510   9.929  1.2146  1.2809 -1.4517
  143SAPE   H5Y15701   0.146   1.671   9.970  0.8488  2.0404 -1.7653
  143SAPE   C3615702   0.170   1.638   9.759 -0.5449 -0.0677  0.1155
  143SAPE   H6X15703   0.277   1.659   9.744 -0.3682 -0.4303  0.8162
  143SAPE   H6Y15704   0.118   1.733   9.732  0.1473 -0.5019 -2.9067
  143SAPE   C3715705   0.139   1.536   9.649 -0.0667 -1.0182  0.0049
  143SAPE   H7X15706   0.035   1.498   9.650  0.0155 -1.3206  2.8008
  143SAPE   H7Y15707   0.204   1.448   9.669 -0.5893 -1.5667 -0.6934
  143SAPE   C3815708   0.158   1.591   9.509 -0.1231 -0.5393 -0.9946
  143SAPE   H8X15709   0.265   1.571   9.489 -0.0187 -0.5853 -0.4058
  143SAPE   H8Y15710   0.126   1.697   9.506  1.3167 -0.1014 -1.1321
  143SAPE   C3915711   0.079   1.517   9.401  0.1590  0.4070 -0.8235
  143SAPE   H9X15712  -0.031   1.532   9.392 -0.0364  2.0120  3.2891
  143SAPE   H9Y15713   0.091   1.410   9.428 -1.0641  0.7127  1.0152
  143SAPE  C31015714   0.135   1.539   9.257 -0.1702  0.8170  0.4354
  143SAPE  H10X15715   0.167   1.644   9.245 -0.4177  0.6373 -2.0397
  143SAPE  H10Y15716   0.059   1.507   9.183 -0.4175 -0.5527  1.2603
  143SAPE  C31115717   0.257   1.458   9.228  0.4705 -0.0834  0.1945
  143SAPE  H11X15718   0.228   1.351   9.228 -0.6163  0.1910  1.9440
  143SAPE  H11Y15719   0.329   1.455   9.313 -0.2265 -0.5504  0.7767
  143SAPE  C31215720   0.326   1.508   9.106 -0.8304 -0.0523  0.0159
  143SAPE  H12X15721   0.424   1.457   9.118  0.3823  1.7021 -2.0815
  143SAPE  H12Y15722   0.355   1.615   9.112 -0.9411 -0.1418  3.1258
  143SAPE  C31315723   0.260   1.480   8.971 -0.1237 -0.1047  0.0532
  143SAPE  H13X15724   0.157   1.521   8.962  0.2957  1.2826  1.3854
  143SAPE  H13Y15725   0.248   1.371   8.954 -1.2438  0.1037 -0.5407
  143SAPE  C31415726   0.341   1.543   8.847 -0.4293  0.6352 -0.4614
  143SAPE  H14X15727   0.360   1.652   8.859  0.7456  0.4513 -0.5358
  143SAPE  H14Y15728   0.280   1.528   8.755 -1.3585  1.3419  0.0313
  143SAPE  C31515729   0.482   1.481   8.827 -0.3708 -0.1088  0.6434
  143SAPE  H15X15730   0.529   1.427   8.912  1.9294 -3.0929 -2.3767
  143SAPE  H15Y15731   0.555   1.560   8.800 -1.7657  0.9833  0.0061
  143SAPE  C31615732   0.486   1.376   8.712  0.9146  0.1034  0.3743
  143SAPE  H16X15733   0.434   1.287   8.751  1.0041 -1.6761 -3.3438
  143SAPE  H16Y15734   0.592   1.346   8.703  0.7870 -1.1598  2.8769
  143SAPE  C31715735   0.451   1.426   8.571  0.2644 -0.2403  0.1893
  143SAPE  H17X15736   0.545   1.479   8.546 -0.0533  0.1663 -0.1499
  143SAPE  H17Y15737   0.370   1.502   8.564 -0.4339 -0.9878  0.1065
  143SAPE  C31815738   0.420   1.313   8.475 -0.4782  0.5885 -0.0864
  143SAPE  H18X15739   0.415   1.348   8.369  0.8691  1.0663 -0.0007
  143SAPE  H18Y15740   0.325   1.257   8.491 -0.2010  0.4470  1.0562
  143SAPE  H18Z15741   0.499   1.235   8.481 -0.1281  1.0077  0.8386
  144SAPE     N15742   2.534   6.356  10.872  0.0944 -0.3949  0.4263
  144SAPE   HN115743   2.433   6.362  10.846  0.6620 -0.1442 -1.8655
  144SAPE   HN215744   2.587   6.357  10.783 -1.3829 -0.6304 -0.4806
  144SAPE   HN315745   2.540   6.253  10.890 -0.2224 -0.7683 -1.4761
  144SAPE   C1215746   2.582   6.436  10.984 -1.0232 -1.0983  0.0924
  144SAPE  H12A15747   2.692   6.425  10.992 -0.7290  0.6284 -1.1066
  144SAPE  H12B15748   2.527   6.397  11.072  1.9866 -1.0627  2.0583
  144SAPE   C1115749   2.529   6.584  10.960 -0.1592  0.1830  0.3996
  144SAPE  H11A15750   2.570   6.648  11.040  2.8889 -2.5007  1.0877
  144SAPE  H11B15751   2.420   6.586  10.983 -0.1305 -0.8079  0.6571
  144SAPE     P15752   2.610   6.771  10.793 -0.2897  0.2414 -0.0256
  144SAPE   O1315753   2.548   6.872  10.885 -0.3768  0.5043  0.8227
  144SAPE   O1415754   2.758   6.767  10.791  1.2377  0.2341  0.1203
  144SAPE   O1215755   2.556   6.625  10.830 -0.1658 -0.0914  0.1442
  144SAPE   O1115756   2.566   6.784  10.642 -0.3356  0.0420 -0.3904
  144SAPE    C115757   2.484   6.692  10.574  0.1442 -0.1318 -0.4810
  144SAPE    HA15758   2.415   6.641  10.644  0.4979  0.4887  0.3278
  144SAPE    HB15759   2.412   6.735  10.501 -0.7697 -0.5715  0.1485
  144SAPE    C215760   2.570   6.589  10.505 -0.1836 -0.0055  0.2985
  144SAPE    HS15761   2.639   6.548  10.582 -0.1930 -0.9888 -0.2151
  144SAPE   O2115762   2.644   6.645  10.404  0.1404 -0.2405 -1.3946
  144SAPE   C2115763   2.756   6.582  10.381  0.8617 -0.0655 -0.2563
  144SAPE   O2215764   2.808   6.485  10.439  0.5262 -0.4866  0.1181
  144SAPE   C2215765   2.810   6.653  10.255 -0.2908 -0.0259 -0.5464
  144SAPE   H2R15766   2.757   6.612  10.167 -0.4091 -0.9779 -0.0329
  144SAPE   H2S15767   2.789   6.762  10.257  0.7022  0.1630  0.0939
  144SAPE    C315768   2.489   6.465  10.446 -0.1050 -0.4464 -0.4661
  144SAPE    HX15769   2.449   6.422  10.540  1.2705  1.8843  1.2117
  144SAPE    HY15770   2.552   6.388  10.397 -0.3483 -1.5870  0.9756
  144SAPE   O3115771   2.379   6.509  10.363  0.6814  0.3402 -0.5244
  144SAPE   C3115772   2.312   6.410  10.318 -0.1612  0.2124 -0.6110
  144SAPE   O3215773   2.347   6.293  10.331 -0.0017 -0.1514 -1.0712
  144SAPE   C3215774   2.188   6.462  10.246 -0.6107 -0.7694 -0.6375
  144SAPE   H2X15775   2.173   6.570  10.266  1.7685 -0.3333 -1.0157
  144SAPE   H2Y15776   2.099   6.414  10.291 -1.4439  1.4330  0.1401
  144SAPE   C2315777   2.962   6.622  10.236  0.8103  0.4140  0.4487
  144SAPE   H3R15778   2.971   6.512  10.222  3.0338  0.6177  0.0780
  144SAPE   H3S15779   3.014   6.655  10.328  2.0682 -0.4259  0.0461
  144SAPE   C2415780   3.023   6.693  10.111  0.4731 -0.1556 -0.6021
  144SAPE   H4R15781   3.023   6.801  10.138 -3.2404  0.2882 -1.9766
  144SAPE   H4S15782   2.943   6.695  10.033 -0.5664  2.0838  0.4689
  144SAPE   C2515783   3.154   6.630  10.078  0.1784  0.5961 -0.2358
  144SAPE   H5R15784   3.222   6.611  10.163  0.9684  0.9663 -0.7806
  144SAPE   C2615785   3.186   6.587   9.953 -0.2144 -0.3854 -0.3447
  144SAPE   H6R15786   3.288   6.545   9.945 -0.4831 -0.8902 -1.2582
  144SAPE   C2715787   3.102   6.595   9.824 -0.3950 -0.7182  0.1721
  144SAPE   H7R15788   3.001   6.637   9.846 -0.4991  0.3226 -2.2207
  144SAPE   H7S15789   3.080   6.496   9.778 -1.7975  1.0293 -3.0430
  144SAPE   C2815790   3.170   6.703   9.740  0.2962  0.1225  0.0013
  144SAPE   H8R15791   3.229   6.775   9.799 -0.6979  0.2057  0.9119
  144SAPE   C2915792   3.156   6.724   9.606  0.6790  0.3462 -0.2533
  144SAPE   H9R15793   3.214   6.805   9.560  0.2793  0.5852 -0.3279
  144SAPE  C21015794   3.079   6.637   9.507  0.0570  0.2096  0.0881
  144SAPE  H10R15795   2.982   6.687   9.485 -1.3347 -2.8322 -0.8410
  144SAPE  H10S15796   3.059   6.537   9.551 -0.0064 -0.7079 -2.0125
  144SAPE  C21115797   3.162   6.604   9.383 -0.8025 -0.0009  0.3938
  144SAPE  H11R15798   3.267   6.574   9.391 -0.0567  1.8334 -1.8524
  144SAPE  C21215799   3.116   6.633   9.262  0.3257  0.1782 -0.4920
  144SAPE  H12R15800   3.175   6.604   9.174 -1.9292 -0.2446 -1.8987
  144SAPE  C21315801   2.980   6.684   9.231  0.2095  1.0116  0.5962
  144SAPE  H13R15802   2.967   6.792   9.254 -1.1201  1.1468 -0.7430
  144SAPE  H13S15803   2.907   6.613   9.275  2.5003 -2.8443 -1.5945
  144SAPE  C21415804   2.957   6.678   9.080  0.9172 -0.2147 -0.1024
  144SAPE  H14R15805   3.044   6.661   9.014  0.1458 -2.2558 -0.6279
  144SAPE  C21515806   2.836   6.663   9.011 -0.2212 -0.2582 -0.5756
  144SAPE  H15R15807   2.838   6.640   8.903  1.2754  1.5674 -0.9552
  144SAPE  C21615808   2.700   6.637   9.066 -0.5873  0.7102 -0.1895
  144SAPE  H16R15809   2.696   6.671   9.171 -1.5114  1.1489 -0.3681
  144SAPE  H16S15810   2.688   6.527   9.066 -0.6565  0.6952 -2.0870
  144SAPE  C21715811   2.596   6.711   8.988 -0.0615  0.1276 -0.0330
  144SAPE  H17R15812   2.605   6.821   9.001 -1.3405  0.0640  1.5918
  144SAPE  H17S15813   2.497   6.688   9.033 -1.8695  3.6385 -1.9449
  144SAPE  C21815814   2.586   6.681   8.839  0.4435  0.1458  0.0094
  144SAPE  H18R15815   2.586   6.570   8.830  0.1169  0.1004  0.5309
  144SAPE  H18S15816   2.671   6.724   8.782  0.4651 -0.6369 -0.5614
  144SAPE  C21915817   2.452   6.735   8.791  0.0300 -0.0783  0.5634
  144SAPE  H19R15818   2.452   6.846   8.785 -1.3571  0.0511  2.3919
  144SAPE  H19S15819   2.363   6.729   8.857 -0.2878 -0.9833  0.0616
  144SAPE  C22015820   2.411   6.680   8.657  0.0507 -0.3227  0.8023
  144SAPE  H20R15821   2.323   6.738   8.622  0.6370  0.5979  0.8368
  144SAPE  H20S15822   2.388   6.572   8.668 -2.9148  0.0562 -1.1927
  144SAPE  H20T15823   2.497   6.689   8.588  1.3410 -2.8932  2.0120
  144SAPE   C3315824   2.181   6.442  10.086  1.1916 -0.0249 -0.2663
  144SAPE   H3X15825   2.187   6.331  10.076  0.3072 -0.0302 -0.8009
  144SAPE   H3Y15826   2.272   6.482  10.036  0.9743  0.2165 -0.4708
  144SAPE   C3415827   2.052   6.505  10.019 -0.4458  1.0000 -0.8314
  144SAPE   H4X15828   2.061   6.615  10.031 -1.8550  0.8388  2.2103
  144SAPE   H4Y15829   1.961   6.476  10.076  0.6437  1.2989  1.1128
  144SAPE   C3515830   2.054   6.452   9.872  0.0428  0.0498 -0.4874
  144SAPE   H5X15831   2.056   6.342   9.881 -0.6077  0.0703 -0.0979
  144SAPE   H5Y15832   2.149   6.491   9.829  1.1546 -0.6914  1.2409
  144SAPE   C3615833   1.937   6.507   9.782 -0.1785 -0.4266 -0.1837
  144SAPE   H6X15834   1.961   6.451   9.689  0.3478 -3.1962  1.5583
  144SAPE   H6Y15835   1.956   6.614   9.759 -1.0047 -0.0508  0.8451
  144SAPE   C3715836   1.797   6.477   9.832  0.3765 -0.3959 -0.5870
  144SAPE   H7X15837   1.788   6.543   9.921  0.9683 -0.2143 -0.6621
  144SAPE   H7Y15838   1.786   6.372   9.865  0.1189  0.5990  2.6576
  144SAPE   C3815839   1.689   6.513   9.731  0.6644 -0.1816  0.0974
  144SAPE   H8X15840   1.713   6.612   9.688  0.2132  1.4934  3.4987
  144SAPE   H8Y15841   1.598   6.533   9.792 -0.4019  1.5956 -2.0194
  144SAPE   C3915842   1.636   6.405   9.632 -0.6062 -0.2999 -0.3063
  144SAPE   H9X15843   1.542   6.440   9.585  0.4143  3.0538 -0.0338
  144SAPE   H9Y15844   1.613   6.311   9.687  1.4316 -0.8424 -0.3560
  144SAPE  C31015845   1.745   6.375   9.529  0.1067  0.1306  0.1333
  144SAPE  H10X15846   1.707   6.290   9.469  1.5368 -0.9586  0.7636
  144SAPE  H10Y15847   1.842   6.347   9.574 -0.1479 -0.1600  0.5041
  144SAPE  C31115848   1.760   6.500   9.433  0.5685 -0.2405  0.5959
  144SAPE  H11X15849   1.830   6.579   9.465  0.9830 -0.0484 -0.7547
  144SAPE  H11Y15850   1.659   6.543   9.417 -0.5410 -2.8323  0.2511
  144SAPE  C31215851   1.804   6.468   9.291  0.2558 -0.8280  0.4516
  144SAPE  H12X15852   1.722   6.402   9.254 -1.1806 -0.7932  3.4319
  144SAPE  H12Y15853   1.904   6.420   9.301  0.4122 -0.6943 -0.3607
  144SAPE  C31315854   1.804   6.598   9.199  0.3557 -0.1682  0.0302
  144SAPE  H13X15855   1.822   6.683   9.269  0.4502 -0.2358  0.0902
  144SAPE  H13Y15856   1.704   6.617   9.156  0.8502  0.5056 -0.8281
  144SAPE  C31415857   1.907   6.584   9.089  0.0095 -0.0694 -0.1359
  144SAPE  H14X15858   1.918   6.478   9.059  3.2149 -0.2144  1.3025
  144SAPE  H14Y15859   2.003   6.614   9.137  1.8859  0.5647 -4.0848
  144SAPE  C31515860   1.878   6.675   8.981 -0.0713 -0.4973  0.1907
  144SAPE  H15X15861   1.870   6.777   9.025 -2.6085 -1.5476  2.2918
  144SAPE  H15Y15862   1.772   6.660   8.949 -0.0890  1.4671 -0.7549
  144SAPE  C31615863   1.966   6.660   8.858  0.1441 -0.7448  0.4915
  144SAPE  H16X15864   1.939   6.568   8.801 -1.3500  0.4194 -0.7079
  144SAPE  H16Y15865   2.071   6.652   8.893  0.0982 -3.3494  0.1863
  144SAPE  C31715866   1.943   6.774   8.760  0.2040  0.2195  0.6109
  144SAPE  H17X15867   1.848   6.763   8.704  1.7108 -0.0104 -1.9897
  144SAPE  H17Y15868   2.019   6.751   8.682 -0.7491  3.9872 -1.5300
  144SAPE  C31815869   1.973   6.907   8.827  0.4680  0.2721  0.0943
  144SAPE  H18X15870   1.884   6.941   8.886  1.4361  2.7578  0.1692
  144SAPE  H18Y15871   2.009   6.984   8.757  2.0476  0.2649  0.8869
  144SAPE  H18Z15872   2.059   6.898   8.897  0.1735 -1.7447  0.2270
  145SAPE     N15873   0.740   0.451  10.977 -0.1205  0.2329 -0.1015
  145SAPE   HN115874   0.639   0.425  10.980 -0.2728  0.8806  0.6944
  145SAPE   HN215875   0.751   0.545  10.935  1.6858 -0.2937 -0.8288
  145SAPE   HN315876   0.775   0.385  10.904 -0.8841 -1.5599  1.1013
  145SAPE   C1215877   0.796   0.455  11.117  0.2221  0.0920  1.0132
  145SAPE  H12A15878   0.757   0.550  11.159 -1.4577 -0.2401  0.2453
  145SAPE  H12B15879   0.906   0.471  11.107 -0.2773  1.9580 -2.0988
  145SAPE   C1115880   0.759   0.332  11.197 -0.0705  0.3315  0.5604
  145SAPE  H11A15881   0.786   0.322  11.304  1.2934  0.5947  0.2541
  145SAPE  H11B15882   0.815   0.246  11.154 -0.5626  0.4623 -0.3589
  145SAPE     P15883   0.506   0.353  11.264  0.2385  0.3253 -0.0496
  145SAPE   O1315884   0.478   0.279  11.387  0.4138 -0.1380 -0.4946
  145SAPE   O1415885   0.527   0.500  11.280 -0.3717  0.3469  0.3371
  145SAPE   O1215886   0.623   0.280  11.182 -0.4053  0.5940 -0.3483
  145SAPE   O1115887   0.369   0.343  11.182  0.1085 -0.4534  0.3092
  145SAPE    C115888   0.315   0.226  11.129 -0.6220  0.6154 -0.2340
  145SAPE    HA15889   0.363   0.135  11.170  0.5658  1.8337  1.1509
  145SAPE    HB15890   0.206   0.226  11.148 -0.8483 -2.0770 -1.3005
  145SAPE    C215891   0.328   0.223  10.971  0.4085 -0.2771  0.4685
  145SAPE    HS15892   0.434   0.203  10.943  0.7384  1.1875  0.6550
  145SAPE   O2115893   0.264   0.331  10.905 -0.3806 -0.6536  0.1800
  145SAPE   C2115894   0.349   0.437  10.892  0.2162  0.4225  0.4613
  145SAPE   O2215895   0.468   0.431  10.910  0.3060 -0.2939  0.2005
  145SAPE   C2215896   0.269   0.562  10.843 -0.3526 -0.3287 -0.0728
  145SAPE   H2R15897   0.161   0.550  10.865  0.1886 -1.3329  2.1653
  145SAPE   H2S15898   0.304   0.655  10.892 -3.3173  0.5348  0.4878
  145SAPE    C315899   0.258   0.090  10.915  0.4544  0.3239  0.1039
  145SAPE    HX15900   0.163   0.079  10.972 -1.9001 -2.8452 -4.0872
  145SAPE    HY15901   0.325   0.007  10.946  0.4193  1.1822  2.5716
  145SAPE   O3115902   0.251   0.096  10.774  0.4167 -0.3899 -0.0829
  145SAPE   C3115903   0.127   0.117  10.726 -0.6707  0.5943 -0.3211
  145SAPE   O3215904   0.027   0.110  10.787 -0.5082  0.4091  0.1983
  145SAPE   C3215905   0.134   0.127  10.575  0.0488 -0.7010  0.8868
  145SAPE   H2X15906   0.152   0.022  10.541  1.2043 -0.4656  0.7421
  145SAPE   H2Y15907   0.221   0.189  10.546 -1.0030 -0.3439 -1.6131
  145SAPE   C2315908   0.288   0.570  10.694  0.4986 -0.1418  0.3883
  145SAPE   H3R15909   0.246   0.495  10.624  2.1854 -0.2895 -0.4897
  145SAPE   H3S15910   0.398   0.570  10.675  0.2230 -2.0734 -1.3510
  145SAPE   C2415911   0.235   0.706  10.637 -0.0880 -0.0216  0.5582
  145SAPE   H4R15912   0.281   0.717  10.537  2.3683 -2.3366  1.3790
  145SAPE   H4S15913   0.279   0.783  10.704 -0.0365 -0.6677  1.2747
  145SAPE   C2515914   0.083   0.715  10.642 -0.8873  0.4020 -0.6005
  145SAPE   H5R15915   0.038   0.708  10.742  2.2254 -0.3374  0.8177
  145SAPE   C2615916   0.009   0.718  10.530  0.2084  0.9210  0.3241
  145SAPE   H6R15917  -0.099   0.711  10.549  0.2551 -0.1432  0.2150
  145SAPE   C2715918   0.049   0.728  10.383 -0.5115  0.4180  0.0444
  145SAPE   H7R15919   0.158   0.714  10.369 -0.8944 -3.4813  0.2947
  145SAPE   H7S15920   0.030   0.830  10.343 -1.5539 -0.2560 -1.2462
  145SAPE   C2815921  -0.021   0.624  10.301 -0.7486 -0.4556 -0.4331
  145SAPE   H8R15922  -0.045   0.534  10.359  2.7274 -0.5361  0.9760
  145SAPE   C2915923  -0.049   0.623  10.174  0.2395 -0.1137  0.1154
  145SAPE   H9R15924  -0.111   0.537  10.147 -0.4572  0.4418 -0.0701
  145SAPE  C21015925  -0.009   0.730  10.080  0.0277 -0.2788 -0.0574
  145SAPE  H10R15926   0.048   0.679  10.000 -0.4641 -0.7589 -0.1095
  145SAPE  H10S15927   0.056   0.810  10.120  1.0741 -2.3194  2.4663
  145SAPE  C21115928  -0.130   0.802  10.032  0.4521 -0.3548 -0.0522
  145SAPE  H11R15929  -0.187   0.842  10.117  0.5762 -1.4788  0.5636
  145SAPE  C21215930  -0.180   0.814   9.910 -0.3166 -0.5557  0.2288
  145SAPE  H12R15931  -0.269   0.878   9.896  0.1702  0.1904  0.4870
  145SAPE  C21315932  -0.122   0.759   9.781  0.1943 -0.6955  0.9496
  145SAPE  H13R15933  -0.014   0.784   9.780  0.8834 -3.4500 -1.0414
  145SAPE  H13S15934  -0.170   0.809   9.694 -1.9998 -1.5087  1.6638
  145SAPE  C21415935  -0.140   0.610   9.775 -0.3447 -0.3973  0.7529
  145SAPE  H14R15936  -0.141   0.551   9.868 -1.2502 -1.4021  0.1181
  145SAPE  C21515937  -0.135   0.534   9.664  0.2721  0.6849  0.0380
  145SAPE  H15R15938  -0.127   0.425   9.675  0.1621  0.2647 -3.3017
  145SAPE  C21615939  -0.126   0.587   9.524 -0.5889  0.1957  0.2899
  145SAPE  H16R15940  -0.050   0.540   9.459 -0.0651  0.5980  0.6094
  145SAPE  H16S15941  -0.101   0.695   9.530 -5.9912  1.5676  1.3852
  145SAPE  C21715942  -0.249   0.582   9.441 -0.7191 -0.0326  0.2705
  145SAPE  H17R15943  -0.329   0.652   9.471 -0.8640 -0.3875  0.7192
  145SAPE  H17S15944  -0.303   0.485   9.452  1.3024 -1.1444  0.7566
  145SAPE  C21815945  -0.217   0.605   9.286 -1.0737 -0.5275  0.3814
  145SAPE  H18R15946  -0.134   0.539   9.250  0.6097  0.1754  2.8740
  145SAPE  H18S15947  -0.167   0.703   9.280  0.6384 -1.3723  0.5330
  145SAPE  C21915948  -0.343   0.602   9.202 -0.0355 -0.0500 -0.0459
  145SAPE  H19R15949  -0.417   0.682   9.223  0.2444  0.7483 -1.9851
  145SAPE  H19S15950  -0.390   0.502   9.204 -1.5648  0.6473 -0.5761
  145SAPE  C22015951  -0.323   0.632   9.054 -0.3222 -0.5871 -0.1476
  145SAPE  H20R15952  -0.424   0.648   9.011 -0.0170 -0.7033 -0.9198
  145SAPE  H20S15953  -0.283   0.546   8.995 -1.7618 -1.3949  0.0162
  145SAPE  H20T15954  -0.264   0.725   9.042  0.9190 -1.2016  1.0886
  145SAPE   C3315955   0.013   0.187  10.518  0.3347  0.0597  0.5071
  145SAPE   H3X15956   0.013   0.293  10.552  2.9969 -0.2647  1.6278
  145SAPE   H3Y15957  -0.076   0.148  10.572  0.1500 -2.5891 -1.6145
  145SAPE   C3415958   0.010   0.184  10.368  0.2910 -0.3120 -0.0834
  145SAPE   H4X15959   0.032   0.079  10.338  1.1988 -0.2468  0.3210
  145SAPE   H4Y15960   0.096   0.244  10.330  0.7332 -0.2245  1.0277
  145SAPE   C3515961  -0.128   0.223  10.307  0.2765  0.1245 -1.1292
  145SAPE   H5X15962  -0.168   0.315  10.354 -0.2556 -0.8228  0.3126
  145SAPE   H5Y15963  -0.204   0.146  10.336  0.8621  0.9384  2.8052
  145SAPE   C3615964  -0.115   0.233  10.154  0.3388 -0.3732  0.5601
  145SAPE   H6X15965  -0.071   0.138  10.116 -0.3553 -0.9186  1.0862
  145SAPE   H6Y15966  -0.041   0.313  10.135  0.9578 -1.9272 -4.3012
  145SAPE   C3715967  -0.242   0.289  10.081  0.0960  0.0919 -0.4212
  145SAPE   H7X15968  -0.224   0.368  10.005  1.8395  0.0206 -0.1060
  145SAPE   H7Y15969  -0.313   0.331  10.157 -1.3943 -0.8228 -1.2878
  145SAPE   C3815970  -0.316   0.162  10.021 -0.0324  0.2246  0.4938
  145SAPE   H8X15971  -0.365   0.107  10.104 -2.3686 -0.0859 -1.0616
  145SAPE   H8Y15972  -0.250   0.099   9.957 -4.2370 -1.4881 -2.3957
  145SAPE   C3915973  -0.438   0.189   9.929  1.6109 -0.4276  0.2659
  145SAPE   H9X15974  -0.518   0.237   9.990  1.2581 -0.3618 -0.2482
  145SAPE   H9Y15975  -0.486   0.092   9.902  0.3444 -0.3746  2.2071
  145SAPE  C31015976  -0.412   0.259   9.802 -0.2657 -0.7475 -0.1955
  145SAPE  H10X15977  -0.337   0.199   9.745  1.4225  1.3835 -0.2772
  145SAPE  H10Y15978  -0.364   0.359   9.809  0.1966 -0.9320 -0.6821
  145SAPE  C31115979  -0.531   0.277   9.718  0.8764  0.0460 -0.4489
  145SAPE  H11X15980  -0.519   0.372   9.661  2.3333 -0.7382 -1.4876
  145SAPE  H11Y15981  -0.628   0.289   9.771  0.1920 -0.6864 -1.5111
  145SAPE  C31215982  -0.541   0.164   9.612  0.2586  0.0718 -0.2860
  145SAPE  H12X15983  -0.649   0.138   9.599  0.2862 -0.2210  0.0719
  145SAPE  H12Y15984  -0.485   0.075   9.647  0.2980  1.3604  3.1466
  145SAPE  C31315985  -0.489   0.202   9.472 -0.3003  0.0173  0.0470
  145SAPE  H13X15986  -0.379   0.188   9.472 -0.2579  0.2801  1.2389
  145SAPE  H13Y15987  -0.520   0.306   9.448 -0.0873  0.3349  1.1217
  145SAPE  C31415988  -0.542   0.110   9.362 -0.8330  0.3774  0.2248
  145SAPE  H14X15989  -0.652   0.122   9.363 -0.8929 -0.0737  3.7494
  145SAPE  H14Y15990  -0.518   0.006   9.392  0.6502  0.1691 -1.5370
  145SAPE  C31515991  -0.486   0.140   9.220  0.9807 -0.1734 -0.0286
  145SAPE  H15X15992  -0.515   0.242   9.190 -0.8008  0.4209  3.4876
  145SAPE  H15Y15993  -0.525   0.077   9.137 -1.4331  0.3681  0.6780
  145SAPE  C31615994  -0.331   0.124   9.224  0.4888 -1.2529 -0.8434
  145SAPE  H16X15995  -0.305   0.034   9.285  0.2252 -0.3965  0.5458
  145SAPE  H16Y15996  -0.284   0.213   9.270  0.5851 -0.5605 -2.2820
  145SAPE  C31715997  -0.273   0.084   9.086 -0.0044  0.8118 -0.0377
  145SAPE  H17X15998  -0.344   0.012   9.039  1.0905 -0.3455  0.0496
  145SAPE  H17Y15999  -0.184   0.027   9.121  1.0567  0.1002 -3.6180
  145SAPE  C31816000  -0.236   0.199   9.002  0.4576 -0.6053  0.3481
  145SAPE  H18X16001  -0.325   0.265   8.994  1.5473  1.1921  2.6612
  145SAPE  H18Y16002  -0.205   0.167   8.901 -0.4614 -2.4133  0.6168
  145SAPE  H18Z16003  -0.166   0.257   9.065  1.3626 -0.5844 -0.6701
  146SAPE     N16004   3.518   0.081  10.681  0.1847  0.4591  0.5262
  146SAPE   HN116005   3.556   0.040  10.593 -1.0263 -0.7339  0.5299
  146SAPE   HN216006   3.416   0.095  10.663  0.1048 -0.6090  0.1173
  146SAPE   HN316007   3.564   0.174  10.686  3.1022 -0.9326  0.7117
  146SAPE   C1216008   3.543   0.003  10.802  0.2482 -0.5237  0.0554
  146SAPE  H12A16009   3.531  -0.103  10.771 -2.5475 -0.4370  0.6912
  146SAPE  H12B16010   3.464   0.007  10.880  3.0296 -0.0816  2.9366
  146SAPE   C1116011   3.683   0.031  10.862 -0.5134 -0.5312 -0.8355
  146SAPE  H11A16012   3.679  -0.011  10.964  1.3478 -0.0519 -0.5531
  146SAPE  H11B16013   3.695   0.139  10.886  3.0975 -1.6745  3.1660
  146SAPE     P16014   3.935  -0.013  10.847 -0.1253  0.6226  0.2300
  146SAPE   O1316015   3.932  -0.003  10.990  0.6003 -0.2541  0.0078
  146SAPE   O1416016   4.002  -0.132  10.798 -0.2650 -0.2400 -0.0583
  146SAPE   O1216017   3.794  -0.025  10.781  0.4778  0.5028  0.7440
  146SAPE   O1116018   4.015   0.107  10.775  0.2612 -0.1021 -0.0990
  146SAPE    C116019   3.942   0.203  10.692 -0.5976 -0.0857 -0.0578
  146SAPE    HA16020   3.834   0.218  10.712  0.2580  3.3607  2.5063
  146SAPE    HB16021   3.990   0.303  10.704  1.0676 -1.0763  1.8294
  146SAPE    C216022   3.953   0.174  10.543  0.2232 -0.2488  1.0119
  146SAPE    HS16023   3.876   0.099  10.519  1.0819 -1.1478  1.0318
  146SAPE   O2116024   4.083   0.128  10.526  0.1003 -0.1769 -0.5841
  146SAPE   C2116025   4.090   0.017  10.454  0.0328  0.2059 -0.9997
  146SAPE   O2216026   4.000  -0.021  10.382 -0.1000  0.1189 -0.1283
  146SAPE   C2216027   4.229  -0.038  10.467  0.1217 -0.1568 -0.0282
  146SAPE   H2R16028   4.301   0.038  10.429  0.8603 -1.3070 -0.9491
  146SAPE   H2S16029   4.239  -0.070  10.573  0.0997 -0.4621 -0.1184
  146SAPE    C316030   3.941   0.296  10.453 -0.2556 -0.1457  0.6405
  146SAPE    HX16031   4.016   0.369  10.489 -0.5257  1.0766 -1.1712
  146SAPE    HY16032   3.846   0.346  10.480 -0.0660  0.3041  0.4710
  146SAPE   O3116033   3.959   0.266  10.312 -0.7263  0.3228 -0.2779
  146SAPE   C3116034   3.856   0.228  10.249  0.0186  0.4042 -0.6268
  146SAPE   O3216035   3.739   0.220  10.292  0.3472  0.1451  0.5425
  146SAPE   C3216036   3.894   0.199  10.106  0.9735  0.6067 -0.1057
  146SAPE   H2X16037   3.848   0.282  10.049  1.0758 -1.0127 -2.6282
  146SAPE   H2Y16038   3.849   0.103  10.073  2.1338  0.5839 -1.7039
  146SAPE   C2316039   4.250  -0.166  10.378  0.3892 -0.7743  0.0680
  146SAPE   H3R16040   4.252  -0.135  10.271  2.0031 -0.4110  0.1953
  146SAPE   H3S16041   4.167  -0.239  10.388 -0.0777 -0.3640 -0.7485
  146SAPE   C2416042   4.373  -0.245  10.414 -0.7067  0.3162 -0.4684
  146SAPE   H4R16043   4.358  -0.284  10.516  0.6250  1.8132  0.3235
  146SAPE   H4S16044   4.453  -0.170  10.431 -0.9587  0.4814 -0.0188
  146SAPE   C2516045   4.417  -0.360  10.322  0.5294  0.8545 -0.3550
  146SAPE   H5R16046   4.389  -0.453  10.373 -0.5945  1.8327  0.8614
  146SAPE   C2616047   4.486  -0.348  10.207 -0.1849  0.0324 -0.4424
  146SAPE   H6R16048   4.517  -0.444  10.162 -0.4663 -0.1448 -0.2601
  146SAPE   C2716049   4.528  -0.222  10.142 -0.2038 -0.0896  0.3448
  146SAPE   H7R16050   4.635  -0.236  10.115 -0.3189  0.8284 -0.6431
  146SAPE   H7S16051   4.532  -0.136  10.213 -2.0181 -0.6320  1.1319
  146SAPE   C2816052   4.463  -0.173  10.013  0.4042  0.1406  0.1751
  146SAPE   H8R16053   4.363  -0.132  10.038 -0.2262 -1.2793  0.0421
  146SAPE   C2916054   4.495  -0.192   9.885 -0.4481  0.1546 -0.0648
  146SAPE   H9R16055   4.433  -0.139   9.811  0.8665  0.5970 -0.8698
  146SAPE  C21016056   4.613  -0.269   9.825 -0.1434  0.2385  0.1983
  146SAPE  H10R16057   4.638  -0.358   9.886  1.4611  1.1371  0.9000
  146SAPE  H10S16058   4.702  -0.202   9.825 -1.8263  2.5754  1.2301
  146SAPE  C21116059   4.578  -0.324   9.692 -0.1009  0.1488  0.1863
  146SAPE  H11R16060   4.543  -0.428   9.694 -0.6508  0.3113 -0.6820
  146SAPE  C21216061   4.588  -0.259   9.573 -0.2943  0.0850  0.5874
  146SAPE  H12R16062   4.575  -0.317   9.481  0.8598 -1.6699  1.5000
  146SAPE  C21316063   4.644  -0.118   9.560  0.9382  0.3259 -0.1134
  146SAPE  H13R16064   4.752  -0.124   9.585  0.7166  0.9317  1.0409
  146SAPE  H13S16065   4.594  -0.051   9.633 -1.0720 -2.3464  1.0103
  146SAPE  C21416066   4.620  -0.057   9.420  0.2752 -0.6115 -0.2466
  146SAPE  H14R16067   4.528   0.004   9.417 -0.0271 -1.0901 -0.9659
  146SAPE  C21516068   4.690  -0.090   9.314  0.4480  0.6478 -0.0273
  146SAPE  H15R16069   4.668  -0.046   9.216  1.4874 -0.0354 -0.5804
  146SAPE  C21616070   4.802  -0.186   9.305  0.7121  0.0383  0.1920
  146SAPE  H16R16071   4.772  -0.279   9.252 -1.3033 -0.0738  1.4911
  146SAPE  H16S16072   4.852  -0.200   9.403  1.5817 -0.9412 -0.3809
  146SAPE  C21716073   4.910  -0.110   9.226 -0.6005  0.3627 -0.2168
  146SAPE  H17R16074   4.956  -0.028   9.285 -0.6480 -1.1510  1.9636
  146SAPE  H17S16075   4.866  -0.082   9.128  0.5227 -0.2048 -0.9021
  146SAPE  C21816076   5.019  -0.206   9.184  0.3675  0.6285  0.2829
  146SAPE  H18R16077   4.984  -0.299   9.136 -0.4995  0.5728  1.0250
  146SAPE  H18S16078   5.072  -0.234   9.277  0.4226  0.3218  0.1559
  146SAPE  C21916079   5.112  -0.154   9.081  0.2106 -0.5777  0.0872
  146SAPE  H19R16080   5.145  -0.054   9.117  0.3189 -1.0288  1.2548
  146SAPE  H19S16081   5.072  -0.155   8.977 -0.0826 -1.2499  0.2067
  146SAPE  C22016082   5.239  -0.238   9.080  0.1622 -0.1551  0.2160
  146SAPE  H20R16083   5.227  -0.348   9.078 -0.0425 -0.1259 -0.2603
  146SAPE  H20S16084   5.282  -0.230   9.182 -2.3341 -1.3544  1.3927
  146SAPE  H20T16085   5.310  -0.211   8.999  0.1615  3.0770  1.1959
  146SAPE   C3316086   4.044   0.190  10.076 -0.1562 -0.2859 -0.5785
  146SAPE   H3X16087   4.097   0.130  10.153  0.2781 -1.1349 -1.5220
  146SAPE   H3Y16088   4.084   0.293  10.088 -0.1148 -0.7079  3.5857
  146SAPE   C3416089   4.075   0.140   9.938  0.8679 -0.4894  0.2346
  146SAPE   H4X16090   4.021   0.191   9.855 -1.6286 -2.6569  0.4539
  146SAPE   H4Y16091   4.030   0.039   9.926  1.3343 -0.7262  0.4944
  146SAPE   C3516092   4.225   0.169   9.894  0.2396  0.1783  0.7664
  146SAPE   H5X16093   4.288   0.102   9.956  2.2834 -0.1698 -1.6150
  146SAPE   H5Y16094   4.262   0.271   9.915 -0.0427  0.5301 -0.4052
  146SAPE   C3616095   4.258   0.132   9.744 -0.3530 -0.7454 -0.2720
  146SAPE   H6X16096   4.260   0.021   9.742  1.8861 -0.7215 -1.1669
  146SAPE   H6Y16097   4.361   0.167   9.724  0.0955 -2.0719 -0.3029
  146SAPE   C3716098   4.164   0.187   9.635 -0.7174  0.2795 -0.3945
  146SAPE   H7X16099   4.154   0.295   9.659 -0.2579  0.2452 -0.0263
  146SAPE   H7Y16100   4.062   0.142   9.636 -0.4585 -0.3133  0.0337
  146SAPE   C3816101   4.225   0.165   9.501 -0.4740  0.2282  0.4766
  146SAPE   H8X16102   4.255   0.059   9.486  0.2805  0.6029 -0.8088
  146SAPE   H8Y16103   4.323   0.217   9.496 -0.6177  0.4321 -0.3435
  146SAPE   C3916104   4.129   0.211   9.393  0.1259  0.2329  0.3871
  146SAPE   H9X16105   4.027   0.220   9.435 -0.2680 -2.3621  0.0913
  146SAPE   H9Y16106   4.124   0.136   9.311  0.9312 -0.3456  0.8614
  146SAPE  C31016107   4.163   0.349   9.327 -0.0982  0.3609  0.3126
  146SAPE  H10X16108   4.261   0.350   9.275 -0.2631 -1.5462 -0.0723
  146SAPE  H10Y16109   4.168   0.426   9.407  1.2593 -0.2656  0.8438
  146SAPE  C31116110   4.042   0.400   9.236  0.0096 -0.2781 -0.2359
  146SAPE  H11X16111   4.041   0.511   9.230 -0.5126 -0.1739  1.5415
  146SAPE  H11Y16112   3.954   0.376   9.300 -0.9473 -0.8376 -1.7351
  146SAPE  C31216113   4.034   0.335   9.099  0.1776 -0.2366  0.3324
  146SAPE  H12X16114   3.995   0.234   9.125  1.5437 -0.4341  1.6747
  146SAPE  H12Y16115   4.129   0.326   9.042 -1.2509 -2.8207 -1.7723
  146SAPE  C31316116   3.940   0.408   9.006 -0.3412 -0.4395  0.3426
  146SAPE  H13X16117   3.977   0.512   8.994 -0.4609 -0.7249 -2.9915
  146SAPE  H13Y16118   3.840   0.405   9.055 -0.5623 -2.5458 -0.1734
  146SAPE  C31416119   3.931   0.352   8.861 -0.6979 -0.3074 -0.0043
  146SAPE  H14X16120   3.829   0.368   8.820 -0.3091 -2.3291 -1.8196
  146SAPE  H14Y16121   3.936   0.241   8.865 -0.1139 -0.3952 -2.5359
  146SAPE  C31516122   4.038   0.404   8.771  0.7676 -0.5487 -0.9663
  146SAPE  H15X16123   4.133   0.394   8.828 -0.5376  0.9049  1.5429
  146SAPE  H15Y16124   4.017   0.511   8.747  0.3556  0.1168  2.0697
  146SAPE  C31616125   4.057   0.326   8.637  0.2877 -0.0010 -0.6964
  146SAPE  H16X16126   4.143   0.257   8.646  3.3780  3.6870 -0.8950
  146SAPE  H16Y16127   4.076   0.397   8.555  0.5165 -0.4792 -1.0584
  146SAPE  C31716128   3.943   0.234   8.588  0.7670 -0.4503 -0.3311
  146SAPE  H17X16129   3.853   0.298   8.581  0.4157 -1.0550 -1.4619
  146SAPE  H17Y16130   3.920   0.160   8.667  1.3589 -1.5407 -1.1554
  146SAPE  C31816131   3.980   0.167   8.457 -0.4106 -0.6012 -0.3399
  146SAPE  H18X16132   3.995   0.247   8.381  0.0884 -0.0047  0.3829
  146SAPE  H18Y16133   3.894   0.107   8.420 -0.6318 -0.7063  0.3333
  146SAPE  H18Z16134   4.079   0.116   8.457  0.9411  1.8164 -3.9275
  147SAPE     N16135   1.437   5.406   6.353  0.0014 -0.0671 -0.4668
  147SAPE   HN116136   1.382   5.494   6.349  0.1342 -0.0416 -3.3868
  147SAPE   HN216137   1.540   5.422   6.355  0.0382 -0.4679  0.9048
  147SAPE   HN316138   1.404   5.357   6.267 -2.0127  1.3889 -0.5478
  147SAPE   C1216139   1.413   5.323   6.476  0.2580 -0.8186 -0.6005
  147SAPE  H12A16140   1.481   5.357   6.557 -1.6040 -2.6993  1.8252
  147SAPE  H12B16141   1.447   5.221   6.452  2.0506 -0.1782 -0.8763
  147SAPE   C1116142   1.269   5.336   6.533 -0.2857 -0.0340  0.0642
  147SAPE  H11A16143   1.255   5.441   6.566 -2.2656 -0.4372  0.5773
  147SAPE  H11B16144   1.274   5.260   6.614  2.8535  1.2653  1.1744
  147SAPE     P16145   1.141   5.155   6.393  0.0114 -0.2058 -0.1160
  147SAPE   O1316146   1.035   5.159   6.290  0.3193  0.3642  0.2480
  147SAPE   O1416147   1.256   5.073   6.363 -0.7256 -0.3274 -0.7366
  147SAPE   O1216148   1.180   5.305   6.427 -0.2167 -0.7577 -0.1598
  147SAPE   O1116149   1.088   5.107   6.535  0.2458 -0.0616 -0.3442
  147SAPE    C116150   0.974   5.185   6.586  0.1048  0.2526  0.9910
  147SAPE    HA16151   0.974   5.293   6.560  3.0563  0.5512  1.9511
  147SAPE    HB16152   0.882   5.149   6.536  1.5294 -1.0330 -0.8052
  147SAPE    C216153   0.960   5.189   6.743 -0.2013 -0.1762  0.3404
  147SAPE    HS16154   1.044   5.245   6.791  0.0002 -1.0845  1.0605
  147SAPE   O2116155   0.936   5.053   6.797  0.1643 -0.4673 -0.0358
  147SAPE   C2116156   1.045   5.022   6.876 -0.2489 -0.3684 -0.3889
  147SAPE   O2216157   1.147   5.087   6.890  0.3012 -0.2891 -0.3675
  147SAPE   C2216158   1.021   4.886   6.940 -0.4368 -0.4280 -0.1465
  147SAPE   H2R16159   0.973   4.822   6.863  1.6908 -1.0311 -0.9957
  147SAPE   H2S16160   1.112   4.839   6.982  0.5294  2.5838  1.2207
  147SAPE    C316161   0.837   5.273   6.786  0.0688 -0.1410  0.9434
  147SAPE    HX16162   0.753   5.218   6.738  0.9069  0.4134 -1.2421
  147SAPE    HY16163   0.838   5.375   6.743 -0.8163 -0.7304 -0.5149
  147SAPE   O3116164   0.817   5.270   6.928 -0.3115  0.0194 -0.2835
  147SAPE   C3116165   0.880   5.375   6.991 -0.5415 -0.9438 -0.5894
  147SAPE   O3216166   0.943   5.456   6.932  0.2538 -0.2748 -0.2181
  147SAPE   C3216167   0.850   5.371   7.144  0.0548  0.5819  0.0089
  147SAPE   H2X16168   0.911   5.291   7.192  0.7774  0.4514 -1.1245
  147SAPE   H2Y16169   0.744   5.337   7.146 -0.1025  0.7877 -3.3520
  147SAPE   C2316170   0.911   4.882   7.043 -0.1818  0.3225  0.1503
  147SAPE   H3R16171   0.912   4.775   7.073  0.2475  0.4183  0.4898
  147SAPE   H3S16172   0.813   4.911   6.999  0.5168  0.6251 -1.2474
  147SAPE   C2416173   0.936   4.976   7.159 -0.2702 -0.0143  0.3789
  147SAPE   H4R16174   0.874   5.067   7.143 -1.1296 -0.7110 -0.3158
  147SAPE   H4S16175   1.045   5.000   7.156 -0.1468 -0.6657 -0.2897
  147SAPE   C2516176   0.887   4.915   7.289  0.1983  0.2635  0.3350
  147SAPE   H5R16177   0.781   4.885   7.288  0.8049 -1.8618 -2.4439
  147SAPE   C2616178   0.958   4.881   7.395 -0.0159  0.3683 -0.0001
  147SAPE   H6R16179   0.911   4.840   7.485  0.9754  1.9090  1.2264
  147SAPE   C2716180   1.107   4.918   7.408  0.1733  0.1188  0.0977
  147SAPE   H7R16181   1.158   4.912   7.309 -1.6773  0.6318 -0.9223
  147SAPE   H7S16182   1.152   4.831   7.458  0.0226  0.6545  1.1723
  147SAPE   C2816183   1.139   5.048   7.483  0.0080  0.0425  0.6274
  147SAPE   H8R16184   1.119   5.139   7.425  2.6516  0.4565  0.3168
  147SAPE   C2916185   1.203   5.059   7.600  0.2302 -0.2145 -0.3825
  147SAPE   H9R16186   1.220   5.160   7.642 -0.2582  0.7415 -2.4385
  147SAPE  C21016187   1.250   4.942   7.683  0.4206 -1.1103  0.0504
  147SAPE  H10R16188   1.329   4.881   7.635  0.4559 -0.3122 -0.9327
  147SAPE  H10S16189   1.162   4.876   7.702 -0.3630 -0.0190  0.2319
  147SAPE  C21116190   1.304   4.974   7.818  0.3459  0.1950  0.2159
  147SAPE  H11R16191   1.409   4.999   7.796 -0.0220  1.8332  0.2481
  147SAPE  C21216192   1.250   5.000   7.936  0.1892 -0.0484  0.2448
  147SAPE  H12R16193   1.318   5.015   8.021 -2.0914  0.9693  1.9239
  147SAPE  C21316194   1.102   4.992   7.980 -0.0282  0.1181 -0.7425
  147SAPE  H13R16195   1.089   4.916   8.060  1.9883 -0.4946 -0.9559
  147SAPE  H13S16196   1.038   4.954   7.898  0.0529 -0.5940 -0.4805
  147SAPE  C21416197   1.064   5.125   8.024 -0.2895  0.3869 -0.0145
  147SAPE  H14R16198   1.081   5.209   7.955  0.8737 -0.0096 -0.2298
  147SAPE  C21516199   1.010   5.156   8.141 -0.3728 -0.1093  0.7141
  147SAPE  H15R16200   0.987   5.262   8.157  0.8328  0.2754 -0.0272
  147SAPE  C21616201   0.975   5.070   8.257  0.0552  1.0682 -0.1738
  147SAPE  H16R16202   1.004   5.117   8.353 -1.3210 -0.6454  1.1216
  147SAPE  H16S16203   1.048   4.986   8.259 -2.1047 -0.8503 -0.0258
  147SAPE  C21716204   0.832   5.011   8.260 -0.9495  0.5506  0.1300
  147SAPE  H17R16205   0.811   4.918   8.317 -0.9927 -1.1921 -2.6461
  147SAPE  H17S16206   0.812   4.971   8.159 -0.9232  0.9192 -0.0223
  147SAPE  C21816207   0.735   5.128   8.300  0.5075 -0.3202  0.1245
  147SAPE  H18R16208   0.635   5.082   8.283  1.5497 -2.3431 -0.6412
  147SAPE  H18S16209   0.753   5.211   8.228 -0.6438 -0.6289 -0.5345
  147SAPE  C21916210   0.740   5.156   8.450  0.0581 -0.5613  0.2990
  147SAPE  H19R16211   0.844   5.184   8.475  0.1660 -1.1298  0.4973
  147SAPE  H19S16212   0.723   5.066   8.513  1.1727  0.5172  2.1807
  147SAPE  C22016213   0.649   5.269   8.497 -0.4545 -0.3560  0.3379
  147SAPE  H20R16214   0.665   5.354   8.427  1.8528 -2.0658 -1.2704
  147SAPE  H20S16215   0.687   5.296   8.598 -0.5742 -1.1459  0.5943
  147SAPE  H20T16216   0.539   5.258   8.509 -0.8122  0.9963 -1.4300
  147SAPE   C3316217   0.883   5.499   7.222  0.6027  0.1637  0.5583
  147SAPE   H3X16218   0.803   5.572   7.198 -1.5356 -1.9963  0.9228
  147SAPE   H3Y16219   0.983   5.538   7.194  0.6790 -1.7094 -1.9221
  147SAPE   C3416220   0.881   5.470   7.377 -0.4598 -0.2592  0.4998
  147SAPE   H4X16221   0.969   5.403   7.389 -0.1382  0.1621  0.5129
  147SAPE   H4Y16222   0.798   5.407   7.415 -0.4748 -0.5006  0.0712
  147SAPE   C3516223   0.893   5.596   7.471 -0.0186 -0.3531 -0.6815
  147SAPE   H5X16224   0.984   5.656   7.450  0.8891 -0.6104  2.3258
  147SAPE   H5Y16225   0.916   5.565   7.575 -0.5910  0.4237 -0.3171
  147SAPE   C3616226   0.771   5.692   7.475  0.0377 -0.2291  0.2847
  147SAPE   H6X16227   0.680   5.637   7.506 -2.6945  2.7234 -2.1878
  147SAPE   H6Y16228   0.752   5.730   7.373  0.1250  1.3813  0.8451
  147SAPE   C3716229   0.784   5.820   7.561  0.8304 -0.7720 -0.3420
  147SAPE   H7X16230   0.702   5.890   7.534 -0.3087 -2.4316 -1.3043
  147SAPE   H7Y16231   0.884   5.862   7.536  0.4711  0.8108  0.7991
  147SAPE   C3816232   0.764   5.805   7.714  0.2927  0.2305 -1.1425
  147SAPE   H8X16233   0.788   5.910   7.744  1.6379  0.6465 -3.5182
  147SAPE   H8Y16234   0.844   5.738   7.752 -0.3422  1.1317  1.8822
  147SAPE   C3916235   0.621   5.766   7.755 -0.0156 -0.0558 -0.0994
  147SAPE   H9X16236   0.588   5.660   7.749 -2.4675  0.6479  0.3626
  147SAPE   H9Y16237   0.564   5.839   7.694  2.1237  0.2802 -1.7629
  147SAPE  C31016238   0.587   5.809   7.892  0.4161 -0.0049 -0.0981
  147SAPE  H10X16239   0.483   5.785   7.922  0.6175 -2.0059 -0.9274
  147SAPE  H10Y16240   0.587   5.920   7.894  1.3422  0.0767 -2.3916
  147SAPE  C31116241   0.682   5.760   7.997  0.2906 -0.1894  0.3374
  147SAPE  H11X16242   0.782   5.807   7.985  0.1561  0.0919  0.3107
  147SAPE  H11Y16243   0.690   5.649   7.996 -2.1474 -0.3944  0.5590
  147SAPE  C31216244   0.645   5.793   8.144  0.2146  0.7585 -0.7320
  147SAPE  H12X16245   0.537   5.776   8.162  0.8053 -1.1548  1.2453
  147SAPE  H12Y16246   0.664   5.900   8.163  2.2805 -0.2464  3.6356
  147SAPE  C31316247   0.729   5.699   8.234 -0.0799 -0.5197 -0.1350
  147SAPE  H13X16248   0.704   5.591   8.227  0.1960 -0.6302  0.6053
  147SAPE  H13Y16249   0.698   5.734   8.335  0.1585  0.0549 -0.2531
  147SAPE  C31416250   0.876   5.724   8.233 -0.1175  0.2119  0.0748
  147SAPE  H14X16251   0.888   5.834   8.247 -1.7301  0.3947  0.1594
  147SAPE  H14Y16252   0.912   5.691   8.133 -0.4091  0.3677 -0.0826
  147SAPE  C31516253   0.952   5.648   8.341 -0.5988 -0.7064 -0.1104
  147SAPE  H15X16254   0.915   5.676   8.442 -1.2222  0.8975 -0.7658
  147SAPE  H15Y16255   1.059   5.675   8.325 -0.1753 -1.4889  1.4033
  147SAPE  C31616256   0.950   5.495   8.320  0.4191  0.4798 -0.0562
  147SAPE  H16X16257   0.985   5.476   8.217 -0.7152  1.2039 -0.5870
  147SAPE  H16Y16258   0.848   5.458   8.344 -0.2799  1.2086 -1.8138
  147SAPE  C31716259   1.048   5.423   8.423 -0.3171  0.2017  0.4056
  147SAPE  H17X16260   1.155   5.444   8.401 -0.3492 -1.9226 -2.0710
  147SAPE  H17Y16261   1.051   5.317   8.389 -1.1589  0.2621  0.1427
  147SAPE  C31816262   1.011   5.431   8.565  0.2714 -0.0188 -0.4113
  147SAPE  H18X16263   1.006   5.534   8.607 -0.2340 -1.1525  2.3674
  147SAPE  H18Y16264   1.085   5.378   8.628  0.2039 -0.6284 -0.8337
  147SAPE  H18Z16265   0.907   5.397   8.582  0.2391 -1.8216 -3.7186
  148SAPE     N16266   0.901   3.136   6.573 -0.1520 -0.0424  0.1313
  148SAPE   HN116267   0.861   3.052   6.527  0.6278  0.3457 -1.2889
  148SAPE   HN216268   0.844   3.223   6.566  1.5363  1.1127  0.2302
  148SAPE   HN316269   0.988   3.151   6.517 -1.1901 -0.0867 -1.5317
  148SAPE   C1216270   0.919   3.103   6.716  0.9915 -0.1286 -0.0010
  148SAPE  H12A16271   0.956   3.183   6.783 -1.2055  1.8629 -1.0842
  148SAPE  H12B16272   0.998   3.025   6.711 -0.2876 -1.5646  1.4475
  148SAPE   C1116273   0.788   3.041   6.768  0.6884  0.5493  0.1309
  148SAPE  H11A16274   0.719   3.117   6.812 -1.1108 -0.0959 -1.4985
  148SAPE  H11B16275   0.816   2.975   6.854  0.8098  0.4530  0.0166
  148SAPE     P16276   0.582   2.887   6.700 -0.0002  0.6983  0.1050
  148SAPE   O1316277   0.514   2.864   6.570  0.8821  0.4629 -0.2978
  148SAPE   O1416278   0.619   2.766   6.780  0.4592 -0.4436  0.0348
  148SAPE   O1216279   0.713   2.973   6.667 -0.5374 -0.0747 -0.6662
  148SAPE   O1116280   0.511   2.987   6.792 -0.3834 -1.3243 -0.1681
  148SAPE    C116281   0.444   2.955   6.910 -0.1866  0.2929 -0.2052
  148SAPE    HA16282   0.336   2.980   6.902 -0.1567  0.4418 -0.1443
  148SAPE    HB16283   0.450   2.847   6.935 -1.8920  0.7795  2.5226
  148SAPE    C216284   0.509   3.035   7.035 -0.3792  0.2195 -0.1596
  148SAPE    HS16285   0.533   3.136   6.995 -2.1827  0.6915 -0.1147
  148SAPE   O2116286   0.613   2.955   7.091  0.3577  0.3537  0.4543
  148SAPE   C2116287   0.712   3.009   7.143  0.1341 -0.3396  0.2374
  148SAPE   O2216288   0.729   3.129   7.165 -0.0812  0.7748  0.2755
  148SAPE   C2216289   0.801   2.893   7.195  0.2539 -0.7850  0.3577
  148SAPE   H2R16290   0.732   2.820   7.241  0.5002 -0.7440  0.7953
  148SAPE   H2S16291   0.836   2.852   7.098  1.4776  1.0713 -0.0273
  148SAPE    C316292   0.409   3.050   7.134 -0.3163 -0.3737  0.4782
  148SAPE    HX16293   0.363   2.950   7.150 -0.8667  0.0308  1.4526
  148SAPE    HY16294   0.317   3.109   7.113 -1.5760 -2.0551  1.0829
  148SAPE   O3116295   0.456   3.083   7.263 -0.7489 -0.0971 -0.7865
  148SAPE   C3116296   0.458   3.216   7.282  0.4685 -0.2392  0.3010
  148SAPE   O3216297   0.421   3.296   7.195  0.2709 -0.2354  0.2600
  148SAPE   C3216298   0.510   3.254   7.420  0.3097  0.3938  0.1939
  148SAPE   H2X16299   0.566   3.349   7.410  2.4814 -0.5801  2.4538
  148SAPE   H2Y16300   0.581   3.176   7.455  1.5805  1.0602 -0.8931
  148SAPE   C2316301   0.910   2.937   7.295  0.0613 -0.2705 -0.0159
  148SAPE   H3R16302   0.886   3.037   7.337  2.9971 -0.2426  1.7345
  148SAPE   H3S16303   1.000   2.959   7.233  0.9390 -3.6641 -0.0348
  148SAPE   C2416304   0.947   2.838   7.404  0.2788  0.2883 -0.2599
  148SAPE   H4R16305   1.029   2.890   7.457 -0.9227  1.5057  0.4244
  148SAPE   H4S16306   0.979   2.739   7.363  1.0082  0.5269 -0.2576
  148SAPE   C2516307   0.841   2.830   7.502 -0.3321  0.7373  0.0233
  148SAPE   H5R16308   0.772   2.746   7.484 -0.3503  0.3800  1.6263
  148SAPE   C2616309   0.829   2.887   7.625 -0.0798  0.0183 -0.3917
  148SAPE   H6R16310   0.738   2.866   7.683 -1.2235 -0.3516 -2.2848
  148SAPE   C2716311   0.927   2.983   7.692 -0.6330 -0.1880  0.0368
  148SAPE   H7R16312   0.922   3.079   7.636  1.8535 -1.2169 -2.0620
  148SAPE   H7S16313   1.034   2.954   7.682 -0.6951 -0.2403 -0.4575
  148SAPE   C2816314   0.900   3.007   7.839 -0.1266 -0.6377  0.0715
  148SAPE   H8R16315   0.943   2.934   7.909 -0.4758  1.2204  2.2801
  148SAPE   C2916316   0.832   3.112   7.898  0.1743  0.5452 -0.4532
  148SAPE   H9R16317   0.813   3.105   8.006  2.2531 -0.9074 -0.1540
  148SAPE  C21016318   0.769   3.234   7.836  0.3677  0.0531  0.1428
  148SAPE  H10R16319   0.675   3.253   7.891  1.1576 -0.0535  1.5619
  148SAPE  H10S16320   0.744   3.204   7.733 -0.7090 -1.1275  0.7384
  148SAPE  C21116321   0.855   3.364   7.840  0.1248 -0.1895  0.4303
  148SAPE  H11R16322   0.915   3.379   7.749 -1.2165  0.4505 -0.3633
  148SAPE  C21216323   0.870   3.471   7.931  0.1067  0.6494  0.4381
  148SAPE  H12R16324   0.939   3.555   7.918  2.6951 -1.0947  2.2502
  148SAPE  C21316325   0.798   3.473   8.063  0.0597 -0.2774 -0.7974
  148SAPE  H13R16326   0.876   3.466   8.142  1.3584  2.5319 -1.7674
  148SAPE  H13S16327   0.721   3.395   8.078 -0.5605  0.5110  0.2520
  148SAPE  C21416328   0.720   3.606   8.085  0.8105  0.4504 -0.8145
  148SAPE  H14R16329   0.686   3.650   7.990  1.5274 -0.3535 -1.4656
  148SAPE  C21516330   0.690   3.671   8.202  0.1897  0.8436  0.0642
  148SAPE  H15R16331   0.634   3.765   8.193  1.0100  1.4667  1.3124
  148SAPE  C21616332   0.728   3.623   8.341  0.2771  0.1880  0.5147
  148SAPE  H16R16333   0.797   3.700   8.382 -0.2010  0.2023  1.3008
  148SAPE  H16S16334   0.772   3.521   8.341  1.5770  0.7040 -2.3069
  148SAPE  C21716335   0.610   3.625   8.433  0.1438  0.2542  0.8391
  148SAPE  H17R16336   0.581   3.521   8.459  1.7400 -0.3062  0.4544
  148SAPE  H17S16337   0.514   3.660   8.388  0.2603 -1.7871 -1.1316
  148SAPE  C21816338   0.641   3.690   8.575 -0.2910 -0.4405  0.5226
  148SAPE  H18R16339   0.550   3.692   8.639  0.2407 -0.3023  1.2693
  148SAPE  H18S16340   0.661   3.798   8.565 -1.5640 -0.1702  0.7440
  148SAPE  C21916341   0.748   3.619   8.657  0.1730  0.3125 -0.5801
  148SAPE  H19R16342   0.842   3.602   8.599  0.7805  0.3535  0.3641
  148SAPE  H19S16343   0.709   3.521   8.693 -2.0068  1.3581 -0.0628
  148SAPE  C22016344   0.787   3.693   8.783 -0.1921 -0.5180 -0.4804
  148SAPE  H20R16345   0.709   3.690   8.863 -0.0133 -1.5879 -0.3367
  148SAPE  H20S16346   0.818   3.799   8.769 -2.7234  0.2939 -0.2013
  148SAPE  H20T16347   0.873   3.636   8.824 -0.5643  0.4459  1.7260
  148SAPE   C3316348   0.405   3.279   7.529 -0.3865 -0.2550  0.2139
  148SAPE   H3X16349   0.360   3.181   7.554 -0.8990 -0.4765 -1.5310
  148SAPE   H3Y16350   0.326   3.343   7.484  0.6644  1.2824  0.4953
  148SAPE   C3416351   0.461   3.346   7.660  0.0722  0.1944  0.3737
  148SAPE   H4X16352   0.495   3.450   7.638  0.2559  0.0393 -0.0989
  148SAPE   H4Y16353   0.542   3.277   7.694 -1.5554 -1.3143  1.2353
  148SAPE   C3516354   0.339   3.362   7.758  0.1482 -0.4693  0.2134
  148SAPE   H5X16355   0.260   3.286   7.747 -0.8206  0.1441  2.5661
  148SAPE   H5Y16356   0.291   3.459   7.733 -0.8827 -1.5075 -1.9889
  148SAPE   C3616357   0.378   3.383   7.904  0.8075  0.0613 -0.1579
  148SAPE   H6X16358   0.447   3.470   7.906 -0.4123  1.0634 -1.3814
  148SAPE   H6Y16359   0.433   3.295   7.946 -1.1704 -1.0811  0.0946
  148SAPE   C3716360   0.261   3.418   7.999  0.5958 -0.0776 -0.1882
  148SAPE   H7X16361   0.182   3.342   7.983  0.4811  0.2134 -1.0098
  148SAPE   H7Y16362   0.214   3.516   7.977  0.8914  0.8629  3.0561
  148SAPE   C3816363   0.303   3.417   8.148  0.1846  0.1527  0.9432
  148SAPE   H8X16364   0.393   3.482   8.158  1.5542 -1.4401 -0.5233
  148SAPE   H8Y16365   0.329   3.315   8.182 -1.0948 -1.2195 -2.0444
  148SAPE   C3916366   0.202   3.465   8.245 -0.2080 -0.1847  0.0408
  148SAPE   H9X16367   0.109   3.403   8.245  0.5647 -1.3736 -0.4478
  148SAPE   H9Y16368   0.162   3.565   8.221 -0.5897  0.3106  2.5164
  148SAPE  C31016369   0.260   3.463   8.393 -0.4027  0.4200  0.3845
  148SAPE  H10X16370   0.369   3.488   8.400  0.0588 -1.5862  0.5229
  148SAPE  H10Y16371   0.262   3.354   8.413  0.2388  0.3200 -0.1967
  148SAPE  C31116372   0.182   3.538   8.496  0.0761 -0.3402 -0.0161
  148SAPE  H11X16373   0.082   3.489   8.494 -0.0552 -0.0699 -0.1096
  148SAPE  H11Y16374   0.175   3.648   8.483  1.0173 -0.1231  1.2593
  148SAPE  C31216375   0.248   3.507   8.631  0.2062 -0.2587 -1.1176
  148SAPE  H12X16376   0.197   3.570   8.707  1.5504  0.2142 -0.5911
  148SAPE  H12Y16377   0.355   3.533   8.624  0.9041 -1.6861  3.1488
  148SAPE  C31316378   0.244   3.366   8.684 -0.2616 -0.0758 -0.2400
  148SAPE  H13X16379   0.264   3.291   8.605  1.5186 -0.9467  0.9927
  148SAPE  H13Y16380   0.139   3.357   8.720 -0.0264 -0.2610  0.4014
  148SAPE  C31416381   0.337   3.359   8.804  0.1111  0.4025  0.4302
  148SAPE  H14X16382   0.289   3.285   8.871 -0.0295 -0.5020 -0.6619
  148SAPE  H14Y16383   0.334   3.459   8.853  0.3777  0.1599  0.9435
  148SAPE  C31516384   0.474   3.315   8.773 -0.2535  0.9806  0.6493
  148SAPE  H15X16385   0.531   3.387   8.711 -0.9151  0.7149 -0.2907
  148SAPE  H15Y16386   0.473   3.214   8.725  0.4456  0.4996  1.6195
  148SAPE  C31616387   0.553   3.278   8.901 -0.0612  0.2581  0.2669
  148SAPE  H16X16388   0.503   3.197   8.959  0.3156 -0.1964 -0.0405
  148SAPE  H16Y16389   0.567   3.369   8.964  1.0647  0.6014 -0.4516
  148SAPE  C31716390   0.702   3.237   8.884  0.3016 -0.0260 -0.1885
  148SAPE  H17X16391   0.755   3.213   8.978  1.8887 -0.7725 -1.2371
  148SAPE  H17Y16392   0.743   3.330   8.840 -0.1652 -0.8094 -2.3943
  148SAPE  C31816393   0.729   3.120   8.800 -0.5360 -0.5872  0.1410
  148SAPE  H18X16394   0.835   3.094   8.784 -0.6672  0.0597 -1.9298
  148SAPE  H18Y16395   0.699   3.140   8.695  0.6408  0.6312  0.0324
  148SAPE  H18Z16396   0.688   3.027   8.846  0.2679  0.0841  2.2391
  149SAPE     N16397   0.276   4.007   6.234 -0.8636 -0.4008  0.0981
  149SAPE   HN116398   0.345   4.082   6.212  0.2137 -0.6823  2.3401
  149SAPE   HN216399   0.323   3.918   6.207  0.5073  0.2414  0.3081
  149SAPE   HN316400   0.191   4.024   6.177 -0.4108 -0.2829 -0.5430
  149SAPE   C1216401   0.245   4.004   6.379 -0.6049  0.1561  0.0247
  149SAPE  H12A16402   0.200   4.101   6.409  0.3131  0.8071 -0.6564
  149SAPE  H12B16403   0.327   3.968   6.445 -0.2230  2.6341  0.9752
  149SAPE   C1116404   0.134   3.895   6.402 -0.8500 -0.5925 -0.2118
  149SAPE  H11A16405   0.049   3.913   6.333 -0.1375  3.5137 -0.1630
  149SAPE  H11B16406   0.102   3.903   6.508  1.2922 -0.1214  0.4366
  149SAPE     P16407   0.131   3.636   6.413  0.0297 -0.2157  0.1475
  149SAPE   O1316408   0.020   3.620   6.320 -0.0355  0.0719 -0.0357
  149SAPE   O1416409   0.232   3.531   6.400 -0.0364  0.3891 -0.5730
  149SAPE   O1216410   0.194   3.777   6.371  0.3444 -0.1569  0.3133
  149SAPE   O1116411   0.087   3.653   6.566  0.5343 -0.9322  0.3747
  149SAPE    C116412   0.171   3.674   6.677 -0.1207 -0.1689 -0.1394
  149SAPE    HA16413   0.200   3.571   6.709 -1.6388 -0.0118  1.8448
  149SAPE    HB16414   0.266   3.726   6.652 -1.1510  1.2686 -1.1098
  149SAPE    C216415   0.096   3.732   6.793  0.3137 -0.5889  0.0168
  149SAPE    HS16416   0.014   3.664   6.822 -0.8905  1.0370  0.4863
  149SAPE   O2116417   0.042   3.865   6.749  0.2315 -0.1476  0.4743
  149SAPE   C2116418  -0.078   3.897   6.784 -0.7651  0.1387 -0.0479
  149SAPE   O2216419  -0.150   3.832   6.850 -0.2600 -0.5337 -0.2641
  149SAPE   C2216420  -0.120   4.023   6.704 -0.0331 -0.5463  0.4486
  149SAPE   H2R16421  -0.026   4.074   6.674 -1.4678  1.4151 -0.8652
  149SAPE   H2S16422  -0.181   3.993   6.616 -1.0161 -0.0907  0.9775
  149SAPE    C316423   0.177   3.768   6.923 -0.2228 -0.1691  0.2822
  149SAPE    HX16424   0.261   3.838   6.905  1.1990 -0.9627  3.5118
  149SAPE    HY16425   0.231   3.674   6.950  1.4616  0.2620 -1.4473
  149SAPE   O3116426   0.090   3.816   7.031  0.2117 -0.5457  0.4022
  149SAPE   C3116427   0.037   3.712   7.100  0.3413 -0.1048 -1.2106
  149SAPE   O3216428   0.050   3.593   7.075 -0.7340  0.2738  0.1439
  149SAPE   C3216429  -0.052   3.771   7.212 -0.1510 -0.2229 -0.9260
  149SAPE   H2X16430  -0.154   3.729   7.199 -1.0522  1.5132  0.3012
  149SAPE   H2Y16431  -0.061   3.881   7.210  2.5288  0.0069 -2.2260
  149SAPE   C2316432  -0.202   4.125   6.782 -0.1163 -0.4745 -0.3136
  149SAPE   H3R16433  -0.306   4.085   6.784 -0.0430 -0.8491 -2.8538
  149SAPE   H3S16434  -0.217   4.219   6.725  0.8111 -0.1749 -0.0766
  149SAPE   C2416435  -0.150   4.148   6.922  0.1101  0.0904 -0.1566
  149SAPE   H4R16436  -0.052   4.199   6.913  0.2196 -0.2096 -0.7353
  149SAPE   H4S16437  -0.143   4.046   6.967  0.7609 -0.5459 -1.6625
  149SAPE   C2516438  -0.250   4.229   7.000 -0.0445 -0.4810  0.7401
  149SAPE   H5R16439  -0.273   4.326   6.955  0.1011 -0.5690  0.4804
  149SAPE   C2616440  -0.312   4.192   7.115 -0.3263 -0.3257 -1.0251
  149SAPE   H6R16441  -0.376   4.266   7.165  0.9616 -0.1930  0.4656
  149SAPE   C2716442  -0.301   4.058   7.193  0.5405 -0.2377  0.1669
  149SAPE   H7R16443  -0.218   4.067   7.267 -0.6105  0.5363  1.3902
  149SAPE   H7S16444  -0.274   3.971   7.128  1.7353  0.8079 -0.7516
  149SAPE   C2816445  -0.430   4.022   7.280 -0.7296  0.0057  0.1755
  149SAPE   H8R16446  -0.519   3.994   7.222 -0.8644  0.1701  0.3029
  149SAPE   C2916447  -0.445   4.035   7.415 -0.0933  0.1897  0.3809
  149SAPE   H9R16448  -0.544   4.005   7.453 -0.6444 -1.5555 -2.2611
  149SAPE  C21016449  -0.355   4.080   7.525 -0.3250  0.5177 -0.2778
  149SAPE  H10R16450  -0.254   4.088   7.481 -0.5593  0.4465 -0.8281
  149SAPE  H10S16451  -0.354   4.003   7.605  1.1514 -1.5241 -2.2324
  149SAPE  C21116452  -0.415   4.214   7.569 -0.1900 -0.6789  0.7837
  149SAPE  H11R16453  -0.417   4.292   7.492 -1.0574 -3.2628 -1.9335
  149SAPE  C21216454  -0.474   4.240   7.688  0.0856 -0.0408 -0.3269
  149SAPE  H12R16455  -0.487   4.346   7.715 -1.3176 -0.2184 -0.2796
  149SAPE  C21316456  -0.483   4.143   7.800  0.1913 -0.6788  1.1654
  149SAPE  H13R16457  -0.532   4.051   7.762  0.4194  0.0917 -1.0432
  149SAPE  H13S16458  -0.548   4.183   7.880  1.1647  0.7688  1.2616
  149SAPE  C21416459  -0.348   4.112   7.861  0.2294  0.0194 -0.3560
  149SAPE  H14R16460  -0.281   4.034   7.823  3.0504 -0.0610  4.4254
  149SAPE  C21516461  -0.292   4.186   7.959 -0.2603  0.5040 -0.1419
  149SAPE  H15R16462  -0.209   4.144   8.019  0.8579  0.3656 -1.7551
  149SAPE  C21616463  -0.344   4.306   8.032  0.9840 -0.1482 -0.3557
  149SAPE  H16R16464  -0.454   4.305   8.020  0.8055  0.2861  1.1652
  149SAPE  H16S16465  -0.300   4.393   7.978  1.0709  0.6940  1.0560
  149SAPE  C21716466  -0.307   4.319   8.179  0.3193  0.4430  0.2284
  149SAPE  H17R16467  -0.201   4.288   8.185  1.0278  2.1327 -2.6167
  149SAPE  H17S16468  -0.364   4.241   8.234  0.2870  0.1506 -0.2288
  149SAPE  C21816469  -0.333   4.457   8.240  0.2880  0.4469 -0.1157
  149SAPE  H18R16470  -0.437   4.493   8.227 -0.3317 -1.9312 -1.9961
  149SAPE  H18S16471  -0.263   4.528   8.190  0.0571  0.5536 -0.2885
  149SAPE  C21916472  -0.309   4.460   8.391  0.1378 -0.2186 -0.2077
  149SAPE  H19R16473  -0.211   4.412   8.410  0.3586  0.7916  1.2599
  149SAPE  H19S16474  -0.382   4.396   8.446  1.4676 -0.9592  0.7213
  149SAPE  C22016475  -0.305   4.592   8.465  0.8250 -0.9921 -0.1320
  149SAPE  H20R16476  -0.408   4.618   8.500 -0.1358 -0.7837 -3.0191
  149SAPE  H20S16477  -0.251   4.672   8.411  3.0962 -1.1691  1.8057
  149SAPE  H20T16478  -0.243   4.585   8.557  0.2542  2.4413  0.5992
  149SAPE   C3316479   0.001   3.712   7.350 -0.3025  0.0652  0.0157
  149SAPE   H3X16480   0.102   3.747   7.380  0.1297 -1.2089  0.0898
  149SAPE   H3Y16481   0.001   3.601   7.340 -1.7294  0.0628 -0.0964
  149SAPE   C3416482  -0.092   3.739   7.460 -0.2211 -0.3441 -0.4004
  149SAPE   H4X16483  -0.188   3.682   7.458 -2.1053  2.6571  0.4149
  149SAPE   H4Y16484  -0.129   3.843   7.462 -0.5220 -0.4360 -1.1088
  149SAPE   C3516485  -0.031   3.711   7.598 -0.1950  0.4803 -0.1897
  149SAPE   H5X16486   0.053   3.784   7.605  0.3487 -0.1587 -0.0550
  149SAPE   H5Y16487   0.016   3.612   7.613  0.6117  1.1055  1.5536
  149SAPE   C3616488  -0.126   3.752   7.715  0.7466  0.2261 -0.1913
  149SAPE   H6X16489  -0.188   3.667   7.751  2.3839 -0.3564  1.3264
  149SAPE   H6Y16490  -0.197   3.825   7.670 -0.3443 -0.6154  0.1406
  149SAPE   C3716491  -0.057   3.780   7.841  0.4205  0.1209 -0.2567
  149SAPE   H7X16492  -0.013   3.880   7.825 -0.0375  0.3932  0.1482
  149SAPE   H7Y16493   0.019   3.707   7.876  0.7651  1.5880  2.1687
  149SAPE   C3816494  -0.160   3.778   7.964 -0.3871 -0.4003 -0.2025
  149SAPE   H8X16495  -0.171   3.673   7.997  0.8614 -0.6285 -0.4636
  149SAPE   H8Y16496  -0.262   3.811   7.935 -0.8671  0.6830  2.5670
  149SAPE   C3916497  -0.113   3.871   8.084  0.2783 -0.1658 -0.2699
  149SAPE   H9X16498  -0.101   3.978   8.056  3.1203 -0.2504  0.4117
  149SAPE   H9Y16499  -0.014   3.839   8.124  0.0406 -1.9549 -1.0833
  149SAPE  C31016500  -0.214   3.867   8.198  0.4785 -0.4124  0.2832
  149SAPE  H10X16501  -0.222   3.758   8.218 -0.4651 -0.0563  1.9712
  149SAPE  H10Y16502  -0.317   3.895   8.169 -0.2819 -0.3966  2.8966
  149SAPE  C31116503  -0.180   3.948   8.325 -0.1382 -0.6289  0.1965
  149SAPE  H11X16504  -0.215   4.048   8.291  0.2646 -1.0226 -1.4046
  149SAPE  H11Y16505  -0.075   3.935   8.358 -0.0638  3.5673  2.0100
  149SAPE  C31216506  -0.267   3.909   8.444 -0.0474 -0.3627  0.3415
  149SAPE  H12X16507  -0.194   3.926   8.527  1.8535 -1.7701 -0.9980
  149SAPE  H12Y16508  -0.297   3.802   8.449  3.1764 -1.3428  0.4025
  149SAPE  C31316509  -0.384   4.000   8.448  0.6747 -0.3389  0.2708
  149SAPE  H13X16510  -0.453   3.983   8.362 -0.6894  1.8667  0.8863
  149SAPE  H13Y16511  -0.349   4.104   8.429 -0.8092 -0.0945 -1.2833
  149SAPE  C31416512  -0.472   3.988   8.578  0.1971 -0.2973 -0.9615
  149SAPE  H14X16513  -0.407   3.990   8.668 -2.4488 -1.1006  1.0168
  149SAPE  H14Y16514  -0.511   3.884   8.580  1.0192 -0.6047 -0.6484
  149SAPE  C31516515  -0.582   4.084   8.594  0.5962  0.5931 -0.4429
  149SAPE  H15X16516  -0.654   4.066   8.511 -0.4640 -3.0203  1.1533
  149SAPE  H15Y16517  -0.551   4.186   8.563  0.9111 -0.0945 -2.4968
  149SAPE  C31616518  -0.645   4.074   8.732 -0.7266  0.0802  0.1824
  149SAPE  H16X16519  -0.569   4.107   8.806 -1.0903 -1.7717  1.4235
  149SAPE  H16Y16520  -0.659   3.968   8.761 -0.1561  0.3215  1.3916
  149SAPE  C31716521  -0.773   4.165   8.745  0.5134 -0.1668 -0.5660
  149SAPE  H17X16522  -0.845   4.121   8.672  2.1756  1.6847 -3.4052
  149SAPE  H17Y16523  -0.756   4.268   8.707 -1.5189  0.2971 -0.2796
  149SAPE  C31816524  -0.823   4.159   8.893  0.2154  0.3060  0.2907
  149SAPE  H18X16525  -0.895   4.241   8.913 -1.8478 -1.7487  1.5510
  149SAPE  H18Y16526  -0.738   4.176   8.962 -1.2972  0.1237  2.2522
  149SAPE  H18Z16527  -0.877   4.063   8.911  2.0871 -0.5062  1.7381
  150SAPE     N16528   6.134   4.627   6.385 -0.2142 -0.8008  0.8634
  150SAPE   HN116529   6.134   4.703   6.313  3.7454 -0.7205  0.8670
  150SAPE   HN216530   6.206   4.554   6.368 -0.3457 -0.2873 -2.2542
  150SAPE   HN316531   6.049   4.576   6.355 -0.7727  0.4594  0.2481
  150SAPE   C1216532   6.128   4.667   6.525 -0.0009 -0.3846 -0.7154
  150SAPE  H12A16533   6.134   4.588   6.603  0.2963 -0.6601 -1.0116
  150SAPE  H12B16534   6.037   4.726   6.547  0.8932  0.3800  1.0260
  150SAPE   C1116535   6.248   4.761   6.559 -0.4277 -0.0237  0.0787
  150SAPE  H11A16536   6.344   4.710   6.539 -1.0528 -2.0756  2.0845
  150SAPE  H11B16537   6.250   4.787   6.668  0.6500  1.2856 -0.2338
  150SAPE     P16538   6.324   5.011   6.529  0.1686 -0.0547  0.3355
  150SAPE   O1316539   6.468   4.995   6.501  0.7194 -0.0427  0.0939
  150SAPE   O1416540   6.249   5.128   6.475  0.5523  0.1704 -0.4357
  150SAPE   O1216541   6.236   4.885   6.486  0.1713 -0.1525 -0.0527
  150SAPE   O1116542   6.317   5.016   6.686  0.2030  0.5934  0.3798
  150SAPE    C116543   6.214   5.088   6.751 -0.0689  0.0249 -0.2048
  150SAPE    HA16544   6.228   5.196   6.728  0.6243 -0.5403 -2.5464
  150SAPE    HB16545   6.114   5.045   6.730  0.9391 -1.4896 -1.9448
  150SAPE    C216546   6.230   5.065   6.898  0.9480 -0.5215 -0.3426
  150SAPE    HS16547   6.233   4.955   6.912 -1.6300 -0.5708 -0.0327
  150SAPE   O2116548   6.118   5.139   6.962  0.5034  0.0921  0.5191
  150SAPE   C2116549   5.995   5.088   6.955 -0.0810 -0.4731  0.5926
  150SAPE   O2216550   5.975   4.974   6.914 -0.4883 -0.6372 -0.0328
  150SAPE   C2216551   5.884   5.189   6.993  0.1823 -0.3888 -0.5755
  150SAPE   H2R16552   5.892   5.282   6.933  0.2231 -0.3863 -0.5652
  150SAPE   H2S16553   5.784   5.146   6.971 -1.2338  2.2053  0.5674
  150SAPE    C316554   6.372   5.111   6.947  0.7214  0.3524 -0.0611
  150SAPE    HX16555   6.384   5.218   6.920 -1.3239  0.7934  0.6821
  150SAPE    HY16556   6.459   5.060   6.900 -0.1311 -1.6702  0.4750
  150SAPE   O3116557   6.383   5.092   7.090  0.4119  0.2673 -0.0490
  150SAPE   C3116558   6.362   5.195   7.171 -0.1873  0.2488  0.1875
  150SAPE   O3216559   6.363   5.310   7.136  0.2993 -0.2465 -0.3869
  150SAPE   C3216560   6.338   5.141   7.309  0.3105  0.7124 -0.4265
  150SAPE   H2X16561   6.435   5.116   7.358  0.5026  1.5334 -0.3823
  150SAPE   H2Y16562   6.288   5.042   7.306  1.1120  0.0786  3.8715
  150SAPE   C2316563   5.882   5.206   7.140 -0.2824  0.4261 -0.0489
  150SAPE   H3R16564   5.979   5.242   7.182  0.5473 -1.2795 -0.4513
  150SAPE   H3S16565   5.849   5.118   7.199 -0.0573  0.3889  0.0215
  150SAPE   C2416566   5.779   5.308   7.188 -0.2677  0.3426 -0.0127
  150SAPE   H4R16567   5.684   5.279   7.139  0.2260  0.4053 -1.0233
  150SAPE   H4S16568   5.818   5.395   7.132  2.4134 -1.0814 -0.4616
  150SAPE   C2516569   5.775   5.320   7.338 -0.6296 -0.2091  0.0679
  150SAPE   H5R16570   5.864   5.282   7.391 -0.6333 -0.7638 -0.3095
  150SAPE   C2616571   5.669   5.359   7.407 -0.0748 -0.4092  0.1041
  150SAPE   H6R16572   5.686   5.364   7.516  2.4322  0.5664 -0.3125
  150SAPE   C2716573   5.538   5.395   7.350  0.7973 -0.3090 -0.0546
  150SAPE   H7R16574   5.463   5.316   7.375 -1.3160  1.1740 -1.5550
  150SAPE   H7S16575   5.541   5.378   7.240  0.8391 -0.7712  0.0132
  150SAPE   C2816576   5.480   5.531   7.374 -0.3365  0.7323  0.1593
  150SAPE   H8R16577   5.529   5.608   7.313 -0.4658  0.2174 -0.5942
  150SAPE   C2916578   5.395   5.569   7.471  0.4974  0.3049  0.1491
  150SAPE   H9R16579   5.376   5.677   7.472  1.1188  0.4192 -0.3127
  150SAPE  C21016580   5.332   5.484   7.583  0.3826 -0.6832  0.2372
  150SAPE  H10R16581   5.323   5.380   7.544 -0.2284 -0.5504  0.0026
  150SAPE  H10S16582   5.229   5.520   7.604  0.8328 -0.4353  2.0547
  150SAPE  C21116583   5.424   5.479   7.703  0.4639 -0.1598 -0.7430
  150SAPE  H11R16584   5.530   5.486   7.675  1.1141  1.1115  1.8640
  150SAPE  C21216585   5.386   5.461   7.831  0.3537  0.0219 -0.0736
  150SAPE  H12R16586   5.453   5.458   7.918 -1.2730 -1.1591  1.1546
  150SAPE  C21316587   5.247   5.440   7.866  0.0355 -0.7235 -0.7319
  150SAPE  H13R16588   5.197   5.376   7.790 -0.4631  0.4686 -1.4336
  150SAPE  H13S16589   5.202   5.542   7.869  0.9994 -0.3303  1.8696
  150SAPE  C21416590   5.226   5.368   7.998  0.3800 -0.7996 -0.6889
  150SAPE  H14R16591   5.208   5.260   7.986  1.9795 -1.0372 -1.0636
  150SAPE  C21516592   5.220   5.421   8.117 -0.8611 -0.3152 -0.2548
  150SAPE  H15R16593   5.209   5.349   8.199  0.6963  1.7428  1.8343
  150SAPE  C21616594   5.245   5.564   8.159  0.0661 -0.4168  0.4101
  150SAPE  H16R16595   5.283   5.620   8.071  1.6135  0.8257  1.8209
  150SAPE  H16S16596   5.336   5.556   8.223  2.7153  1.3217 -2.9594
  150SAPE  C21716597   5.139   5.660   8.218 -0.0614 -0.6422  0.2077
  150SAPE  H17R16598   5.052   5.656   8.148  1.2642 -0.1161 -1.5101
  150SAPE  H17S16599   5.180   5.763   8.215  0.4164 -0.7752  1.9979
  150SAPE  C21816600   5.095   5.625   8.367  0.3803 -0.0728 -0.2107
  150SAPE  H18R16601   5.078   5.515   8.373  0.6242 -0.1603 -0.9792
  150SAPE  H18S16602   5.003   5.684   8.386 -0.7012 -2.2769  1.5177
  150SAPE  C21916603   5.207   5.678   8.463 -0.0907  0.0575  0.3258
  150SAPE  H19R16604   5.232   5.783   8.440 -3.4201  0.6618 -0.7413
  150SAPE  H19S16605   5.300   5.620   8.444  0.9330  1.4815  0.9334
  150SAPE  C22016606   5.165   5.673   8.610 -0.8922 -0.2650  0.7292
  150SAPE  H20R16607   5.131   5.571   8.638 -0.6046 -1.1421 -2.0181
  150SAPE  H20S16608   5.079   5.739   8.636  0.4151  0.5248  3.2799
  150SAPE  H20T16609   5.253   5.700   8.673 -0.4951  1.1671 -0.3976
  150SAPE   C3316610   6.267   5.236   7.404 -0.8597  0.2254  0.1678
  150SAPE   H3X16611   6.157   5.234   7.386 -1.0913 -0.6842  1.6445
  150SAPE   H3Y16612   6.295   5.340   7.377  1.3251 -0.0995  1.0853
  150SAPE   C3416613   6.297   5.214   7.555  0.3747  0.2221  0.2173
  150SAPE   H4X16614   6.407   5.215   7.569  0.2991  1.1630  0.7631
  150SAPE   H4Y16615   6.264   5.110   7.576  0.7211  0.1803  0.5652
  150SAPE   C3516616   6.230   5.314   7.654 -0.3759  0.2134  1.1991
  150SAPE   H5X16617   6.122   5.328   7.632 -0.2836  2.5893  2.0757
  150SAPE   H5Y16618   6.275   5.415   7.642 -0.5672  0.2235  0.5478
  150SAPE   C3616619   6.233   5.279   7.803 -0.0132 -0.8000  0.7916
  150SAPE   H6X16620   6.335   5.265   7.844  1.2751  1.2266 -1.6200
  150SAPE   H6Y16621   6.185   5.179   7.809 -0.3197 -0.6260  1.2628
  150SAPE   C3716622   6.146   5.372   7.894  0.1667  0.5969 -0.4988
  150SAPE   H7X16623   6.047   5.390   7.849  0.2058  0.1299 -0.7794
  150SAPE   H7Y16624   6.189   5.474   7.902  1.3094 -0.0327  1.8151
  150SAPE   C3816625   6.116   5.330   8.036 -0.6505 -0.6826  0.0923
  150SAPE   H8X16626   6.215   5.323   8.087 -0.1324  2.1090 -0.4098
  150SAPE   H8Y16627   6.058   5.236   8.046 -1.0043 -0.4758 -0.0328
  150SAPE   C3916628   6.038   5.440   8.101 -0.3266 -0.3562 -0.1984
  150SAPE   H9X16629   5.931   5.418   8.083 -0.5859 -1.1549  2.1429
  150SAPE   H9Y16630   6.052   5.543   8.061  2.7355 -0.8591 -0.5725
  150SAPE  C31016631   6.059   5.444   8.254 -0.0818 -0.2004 -0.2751
  150SAPE  H10X16632   6.167   5.456   8.277 -0.9244  1.5848  3.0073
  150SAPE  H10Y16633   6.031   5.344   8.293  3.4261 -0.0184  2.9980
  150SAPE  C31116634   5.979   5.559   8.322 -0.7437 -0.7484  0.9073
  150SAPE  H11X16635   5.870   5.543   8.309 -0.5867 -1.1865  0.1045
  150SAPE  H11Y16636   6.008   5.652   8.268 -1.6096  0.0585  1.8141
  150SAPE  C31216637   6.011   5.574   8.467 -0.2570  0.1006 -0.0408
  150SAPE  H12X16638   6.061   5.480   8.499  0.6718 -0.0445 -1.8420
  150SAPE  H12Y16639   5.916   5.586   8.523  0.2324  0.7858  0.6560
  150SAPE  C31316640   6.093   5.697   8.500 -0.2036  0.3019  0.4210
  150SAPE  H13X16641   6.018   5.778   8.489 -0.2549  0.7944  3.8933
  150SAPE  H13Y16642   6.179   5.702   8.429 -1.5948  1.6167 -1.2325
  150SAPE  C31416643   6.151   5.692   8.633  0.2836 -0.4576  0.0567
  150SAPE  H14X16644   6.191   5.592   8.661  2.0345  0.2728  0.1965
  150SAPE  H14Y16645   6.069   5.712   8.706 -0.6460  1.2955 -1.4058
  150SAPE  C31516646   6.252   5.806   8.674  0.3168 -0.5872 -0.1434
  150SAPE  H15X16647   6.270   5.797   8.783  0.6286 -0.2867 -0.1700
  150SAPE  H15Y16648   6.225   5.910   8.645  0.3232 -0.8455 -1.1018
  150SAPE  C31616649   6.386   5.789   8.600  0.5020  0.2831  0.4316
  150SAPE  H16X16650   6.366   5.765   8.494  0.4267 -0.6059  0.6466
  150SAPE  H16Y16651   6.437   5.703   8.647  0.6474  0.9697  1.5376
  150SAPE  C31716652   6.478   5.909   8.608 -0.5681 -0.0815 -0.8079
  150SAPE  H17X16653   6.498   5.928   8.715  3.1621 -1.1984 -1.2007
  150SAPE  H17Y16654   6.430   5.995   8.556 -0.1317  0.4164 -0.3873
  150SAPE  C31816655   6.614   5.885   8.540  0.0944 -0.7289  0.3272
  150SAPE  H18X16656   6.601   5.850   8.435 -0.1836  0.0772  0.0902
  150SAPE  H18Y16657   6.663   5.794   8.582 -0.5444 -0.4279  1.7341
  150SAPE  H18Z16658   6.693   5.961   8.558  2.2831 -2.6749 -0.7776
  151SAPE     N16659   2.360   3.575   6.108  0.1845  0.0200 -0.1530
  151SAPE   HN116660   2.275   3.521   6.133 -0.1496  0.8028  0.4395
  151SAPE   HN216661   2.401   3.622   6.191 -0.4565 -1.4988  1.0408
  151SAPE   HN316662   2.340   3.647   6.035  0.9546 -0.7633 -1.1418
  151SAPE   C1216663   2.457   3.472   6.059  0.0330 -0.4132  1.0616
  151SAPE  H12A16664   2.556   3.521   6.043 -0.9919  1.9608  1.7810
  151SAPE  H12B16665   2.430   3.440   5.957  0.4369  0.3857  0.7000
  151SAPE   C1116666   2.483   3.357   6.158  0.7138  0.1815 -0.2352
  151SAPE  H11A16667   2.547   3.276   6.117 -2.5850 -2.8005  0.1880
  151SAPE  H11B16668   2.386   3.309   6.184  0.1097  1.6899  0.2958
  151SAPE     P16669   2.475   3.440   6.412 -0.2591 -0.0090  0.3653
  151SAPE   O1316670   2.580   3.479   6.509  0.2292  0.1357 -0.1352
  151SAPE   O1416671   2.368   3.529   6.379 -0.3091  0.1645  0.3512
  151SAPE   O1216672   2.547   3.411   6.275 -0.5228  0.5821 -0.1626
  151SAPE   O1116673   2.418   3.301   6.457 -0.7547 -0.1660 -0.4463
  151SAPE    C116674   2.492   3.181   6.451 -0.4223  0.9555 -0.0358
  151SAPE    HA16675   2.443   3.128   6.366 -1.4004 -1.6702  2.0970
  151SAPE    HB16676   2.597   3.193   6.417 -0.1405  0.9689  0.8487
  151SAPE    C216677   2.483   3.102   6.588  0.3366  0.2706  0.1170
  151SAPE    HS16678   2.537   3.006   6.574 -1.9177 -0.7420 -1.9352
  151SAPE   O2116679   2.344   3.069   6.627  0.4239 -0.5517  0.0179
  151SAPE   C2116680   2.270   3.011   6.539  0.0256  0.0599  0.1302
  151SAPE   O2216681   2.311   2.973   6.428  0.4108 -0.5099  0.2873
  151SAPE   C2216682   2.128   2.991   6.599 -0.5128 -0.4060  0.2827
  151SAPE   H2R16683   2.109   3.088   6.651 -0.6639 -0.2037 -0.1411
  151SAPE   H2S16684   2.050   2.979   6.520 -1.6751  2.3240  0.9289
  151SAPE    C316685   2.562   3.188   6.699  0.4390  0.4315  0.0693
  151SAPE    HX16686   2.495   3.274   6.719  0.7352  0.1711  2.3597
  151SAPE    HY16687   2.657   3.224   6.654  1.1736 -1.9549 -0.3670
  151SAPE   O3116688   2.574   3.116   6.824 -0.0920  0.6565 -0.4163
  151SAPE   C3116689   2.643   3.001   6.830 -0.3674  0.0558 -0.5949
  151SAPE   O3216690   2.727   2.968   6.746 -0.2355  0.1109  0.7076
  151SAPE   C3216691   2.620   2.918   6.957 -0.3031  0.2416  0.7274
  151SAPE   H2X16692   2.699   2.927   7.034 -0.2290  0.7394  0.5917
  151SAPE   H2Y16693   2.622   2.812   6.924  1.0791  0.7903 -1.0663
  151SAPE   C2316694   2.127   2.882   6.708  0.1057  0.3231 -0.0761
  151SAPE   H3R16695   2.023   2.892   6.747  0.2630 -0.0144  0.4466
  151SAPE   H3S16696   2.204   2.903   6.785 -0.4807  0.1736  0.5579
  151SAPE   C2416697   2.156   2.744   6.659  0.2652 -0.0514 -0.9513
  151SAPE   H4R16698   2.126   2.684   6.748  1.9877 -0.6272 -0.7281
  151SAPE   H4S16699   2.264   2.736   6.632  0.9434  1.4351  1.1604
  151SAPE   C2516700   2.074   2.696   6.544  0.3217  0.2507  0.3228
  151SAPE   H5R16701   2.114   2.719   6.444  1.3883 -1.0663  0.4371
  151SAPE   C2616702   1.956   2.627   6.555 -0.3911 -0.0112  0.2916
  151SAPE   H6R16703   1.912   2.587   6.463 -0.0947  2.6564 -1.0746
  151SAPE   C2716704   1.903   2.588   6.692 -0.0912  0.0877 -0.0876
  151SAPE   H7R16705   1.883   2.678   6.754  0.6227  0.0172  0.2532
  151SAPE   H7S16706   1.974   2.539   6.762  1.8131  0.3715 -1.7772
  151SAPE   C2816707   1.775   2.506   6.689 -0.8647 -1.0425 -0.3704
  151SAPE   H8R16708   1.732   2.506   6.588 -0.4511  3.0804 -0.6419
  151SAPE   C2916709   1.719   2.431   6.787 -0.7981  0.0134 -0.0319
  151SAPE   H9R16710   1.624   2.385   6.759  0.1309 -2.4144  0.7017
  151SAPE  C21016711   1.769   2.413   6.925 -0.4186 -0.0777  0.1954
  151SAPE  H10R16712   1.880   2.409   6.925 -0.3660 -0.5066 -3.2254
  151SAPE  H10S16713   1.734   2.312   6.958 -0.6668 -0.2996 -0.7232
  151SAPE  C21116714   1.711   2.515   7.021  0.1683 -1.0708  0.3087
  151SAPE  H11R16715   1.648   2.597   6.982  1.4386 -0.3365 -0.2474
  151SAPE  C21216716   1.728   2.509   7.152 -0.3600 -0.4896  0.2275
  151SAPE  H12R16717   1.686   2.592   7.210 -2.7572 -0.8992 -0.8613
  151SAPE  C21316718   1.798   2.399   7.233  0.1579  0.4044 -0.3488
  151SAPE  H13R16719   1.902   2.431   7.253  0.5463 -2.1864  2.1019
  151SAPE  H13S16720   1.806   2.304   7.177 -0.8211  0.0773  0.0629
  151SAPE  C21416721   1.724   2.377   7.369  0.4048 -0.7952  0.5792
  151SAPE  H14R16722   1.659   2.290   7.385  0.8709 -0.8228  2.4114
  151SAPE  C21516723   1.725   2.466   7.472  0.3797  0.8381 -0.3724
  151SAPE  H15R16724   1.666   2.441   7.561 -0.3598  0.5400 -0.9336
  151SAPE  C21616725   1.791   2.600   7.483 -0.9090 -0.0736 -0.0816
  151SAPE  H16R16726   1.764   2.662   7.395  0.4363  1.9792  0.9302
  151SAPE  H16S16727   1.900   2.585   7.467 -0.9681 -0.0893 -0.4793
  151SAPE  C21716728   1.781   2.681   7.620 -0.9249  0.3669 -0.2752
  151SAPE  H17R16729   1.687   2.739   7.627  0.2929  2.3763 -0.3668
  151SAPE  H17S16730   1.856   2.763   7.619  1.2372 -1.5716 -1.1177
  151SAPE  C21816731   1.798   2.593   7.742  0.0198 -0.0452  0.1545
  151SAPE  H18R16732   1.883   2.521   7.735 -1.1713 -1.5721  1.1605
  151SAPE  H18S16733   1.712   2.523   7.753 -0.6564  0.7739  0.1079
  151SAPE  C21916734   1.808   2.674   7.874 -0.1690 -0.2047  0.0763
  151SAPE  H19R16735   1.710   2.717   7.904 -2.2023 -3.5847 -1.3897
  151SAPE  H19S16736   1.872   2.762   7.852  1.0752 -1.0158  0.4128
  151SAPE  C22016737   1.878   2.585   7.980  0.2004  0.2148 -0.9812
  151SAPE  H20R16738   1.889   2.634   8.079  2.2665 -0.7916 -0.6919
  151SAPE  H20S16739   1.815   2.494   7.991 -0.9538  0.8597 -2.1015
  151SAPE  H20T16740   1.980   2.569   7.940  0.4061 -0.5837 -0.1555
  151SAPE   C3316741   2.485   2.954   7.017 -0.0260 -0.2887 -0.0984
  151SAPE   H3X16742   2.412   2.984   6.939  0.3831 -0.0048 -0.3785
  151SAPE   H3Y16743   2.506   3.031   7.095 -0.3140 -0.0225 -0.2801
  151SAPE   C3416744   2.425   2.828   7.089 -0.5683 -0.4176 -0.3955
  151SAPE   H4X16745   2.488   2.804   7.177 -1.2314  0.6758  0.3925
  151SAPE   H4Y16746   2.440   2.743   7.019 -1.9332 -0.0184 -1.1975
  151SAPE   C3516747   2.278   2.835   7.121  0.9220 -0.6114 -0.3064
  151SAPE   H5X16748   2.212   2.800   7.039 -0.8785 -1.5003  1.4587
  151SAPE   H5Y16749   2.258   2.943   7.138 -1.6115 -0.9891 -0.7437
  151SAPE   C3616750   2.246   2.755   7.250  0.0930  0.4593 -0.0400
  151SAPE   H6X16751   2.291   2.656   7.229  3.4414  1.8917  0.0559
  151SAPE   H6Y16752   2.135   2.747   7.248  0.1681 -0.5772 -0.0237
  151SAPE   C3716753   2.300   2.815   7.379 -0.7491 -0.4338 -0.0148
  151SAPE   H7X16754   2.262   2.914   7.411 -0.2427 -0.4786  0.7322
  151SAPE   H7Y16755   2.411   2.812   7.369 -0.7401 -1.4677  0.3733
  151SAPE   C3816756   2.271   2.722   7.501 -0.1094  0.0472 -0.7481
  151SAPE   H8X16757   2.356   2.714   7.573 -0.0783 -0.3940 -0.8306
  151SAPE   H8Y16758   2.271   2.620   7.455  0.5329 -0.0210 -0.6126
  151SAPE   C3916759   2.149   2.775   7.577 -0.4460  0.0798  0.3021
  151SAPE   H9X16760   2.130   2.692   7.649  2.5527 -1.9284 -1.1301
  151SAPE   H9Y16761   2.059   2.789   7.513 -0.3015  1.3138  0.3546
  151SAPE  C31016762   2.188   2.897   7.656 -0.3946  0.3135 -0.2253
  151SAPE  H10X16763   2.173   2.991   7.599 -1.1931  1.2971  1.5761
  151SAPE  H10Y16764   2.297   2.887   7.676 -0.3350  0.6087 -0.4153
  151SAPE  C31116765   2.109   2.898   7.781  0.1972  0.0242 -0.0057
  151SAPE  H11X16766   2.111   2.810   7.847 -0.5008  1.6600  2.2547
  151SAPE  H11Y16767   2.000   2.912   7.767  0.2470  1.4011  0.9200
  151SAPE  C31216768   2.146   3.008   7.890 -0.1237  0.0764  0.6295
  151SAPE  H12X16769   2.130   3.105   7.839 -2.8410 -0.7927 -0.2692
  151SAPE  H12Y16770   2.252   2.991   7.919 -0.4869  0.2942  2.1378
  151SAPE  C31316771   2.068   2.991   8.019  0.6031 -0.2884 -0.4067
  151SAPE  H13X16772   2.090   2.893   8.066  1.2149  0.1146  0.1536
  151SAPE  H13Y16773   1.960   3.001   7.995  0.6567  1.8940  0.2483
  151SAPE  C31416774   2.094   3.095   8.126 -0.0534  0.1174  0.0579
  151SAPE  H14X16775   2.060   3.197   8.098 -1.0460 -0.4225 -0.7373
  151SAPE  H14Y16776   2.204   3.113   8.117  0.1561 -1.4675 -0.7339
  151SAPE  C31516777   2.054   3.052   8.265  0.7182  0.1720 -0.3951
  151SAPE  H15X16778   2.095   2.950   8.283 -1.3026 -0.2466  2.2378
  151SAPE  H15Y16779   1.943   3.062   8.263  0.8656  1.7416 -0.7442
  151SAPE  C31616780   2.112   3.147   8.369  0.0312 -0.1656  0.2336
  151SAPE  H16X16781   2.216   3.184   8.357 -0.1245  0.2785  0.2234
  151SAPE  H16Y16782   2.103   3.105   8.471 -0.5916 -1.9312 -0.5354
  151SAPE  C31716783   2.038   3.286   8.375 -0.4578  0.2155 -0.2685
  151SAPE  H17X16784   1.950   3.274   8.442  0.4785  1.8847  1.2821
  151SAPE  H17Y16785   2.000   3.310   8.274  1.1970  0.2553 -0.9072
  151SAPE  C31816786   2.119   3.409   8.421 -0.2100 -1.2296 -0.6517
  151SAPE  H18X16787   2.223   3.413   8.383  0.0931  1.3848  0.3516
  151SAPE  H18Y16788   2.139   3.412   8.530 -2.6982 -0.3734 -0.1772
  151SAPE  H18Z16789   2.063   3.499   8.389  0.2589 -0.7770 -0.1989
  152SAPE     N16790   5.321   6.278   6.047 -0.0923 -0.1676  0.0158
  152SAPE   HN116791   5.390   6.289   5.970 -1.3787 -2.5774 -1.5360
  152SAPE   HN216792   5.378   6.237   6.124 -1.3790  0.4466  1.2961
  152SAPE   HN316793   5.252   6.210   6.011  0.1050 -0.4724  0.2109
  152SAPE   C1216794   5.264   6.399   6.115  0.4530 -0.0337  0.0647
  152SAPE  H12A16795   5.323   6.479   6.066  0.2085 -0.5487 -1.1020
  152SAPE  H12B16796   5.285   6.385   6.223  1.1519  1.4270  0.1224
  152SAPE   C1116797   5.111   6.419   6.082  0.3557 -0.2040 -0.9626
  152SAPE  H11A16798   5.111   6.439   5.973 -0.2175  3.5698 -0.3487
  152SAPE  H11B16799   5.077   6.515   6.126 -2.1369 -0.0243 -3.1622
  152SAPE     P16800   4.956   6.284   6.257  0.2965 -0.4421 -0.3544
  152SAPE   O1316801   4.841   6.375   6.270  0.4754 -0.4947  0.0416
  152SAPE   O1416802   4.933   6.142   6.271 -0.5625 -0.1278  0.0752
  152SAPE   O1216803   5.026   6.313   6.120 -0.3224  0.2307 -0.2904
  152SAPE   O1116804   5.064   6.336   6.360  0.1734  0.5105  0.6393
  152SAPE    C116805   5.131   6.250   6.457 -0.4311 -0.5864  0.7718
  152SAPE    HA16806   5.189   6.164   6.418  1.4780  0.5664  0.9751
  152SAPE    HB16807   5.216   6.308   6.501 -0.9080  0.0194  0.9088
  152SAPE    C216808   5.042   6.217   6.581 -0.2814  0.2521  0.4748
  152SAPE    HS16809   4.954   6.163   6.541 -0.3731  1.8912 -1.6022
  152SAPE   O2116810   4.996   6.337   6.637 -0.5614  0.6703  0.6512
  152SAPE   C2116811   4.879   6.335   6.699  0.4417 -0.1352  0.4831
  152SAPE   O2216812   4.806   6.241   6.717  0.1253  0.8029  0.0280
  152SAPE   C2216813   4.852   6.478   6.753  0.1732  0.0415 -0.9055
  152SAPE   H2R16814   4.948   6.525   6.783 -0.3558 -0.1299  1.0972
  152SAPE   H2S16815   4.811   6.525   6.661 -1.8937  0.2879  0.1300
  152SAPE    C316816   5.120   6.135   6.683 -1.0657  0.4924 -0.2680
  152SAPE    HX16817   5.200   6.206   6.715  0.9387 -0.9939 -1.8637
  152SAPE    HY16818   5.179   6.053   6.638  0.5354  0.8408  1.1335
  152SAPE   O3116819   5.046   6.089   6.800 -0.0841  0.5749  0.7331
  152SAPE   C3116820   4.962   5.983   6.770 -0.4673  0.3425  0.5608
  152SAPE   O3216821   4.949   5.936   6.659 -0.2208 -0.3310 -0.2312
  152SAPE   C3216822   4.896   5.934   6.903  1.2336  1.0180 -0.1611
  152SAPE   H2X16823   4.974   5.894   6.971 -0.8193 -0.1747  1.5501
  152SAPE   H2Y16824   4.830   5.847   6.880  2.0443  0.5036 -0.5311
  152SAPE   C2316825   4.745   6.486   6.868  0.1782 -0.1471  0.1054
  152SAPE   H3R16826   4.657   6.430   6.829  0.6979  1.2735 -3.2811
  152SAPE   H3S16827   4.703   6.587   6.887 -1.3112 -0.8530  0.6403
  152SAPE   C2416828   4.798   6.432   7.002 -0.3165 -0.5993 -0.5265
  152SAPE   H4R16829   4.867   6.503   7.055  1.3916 -1.2945 -1.7854
  152SAPE   H4S16830   4.853   6.337   6.985 -2.2489 -1.8946  0.2549
  152SAPE   C2516831   4.678   6.375   7.079  0.5159 -0.6713  0.2199
  152SAPE   H5R16832   4.618   6.310   7.014 -1.0610 -1.2716  2.1964
  152SAPE   C2616833   4.637   6.402   7.206  0.0901  0.3448 -0.0759
  152SAPE   H6R16834   4.534   6.372   7.228  0.5867 -0.4884  1.1833
  152SAPE   C2716835   4.702   6.487   7.309  0.5245 -0.1459 -0.5666
  152SAPE   H7R16836   4.626   6.550   7.360 -0.2191 -2.0116  0.7215
  152SAPE   H7S16837   4.781   6.544   7.256  1.4567 -1.4393 -0.5895
  152SAPE   C2816838   4.762   6.393   7.399  0.0660 -1.0160 -0.2230
  152SAPE   H8R16839   4.844   6.331   7.358 -1.3744 -1.9778 -1.6993
  152SAPE   C2916840   4.742   6.386   7.533  0.6088 -0.7296 -0.1694
  152SAPE   H9R16841   4.798   6.313   7.594  1.0736 -0.0331  0.2372
  152SAPE  C21016842   4.648   6.471   7.615  0.2755  0.1851 -0.0073
  152SAPE  H10R16843   4.635   6.435   7.719 -1.3206 -3.5538 -1.4011
  152SAPE  H10S16844   4.546   6.442   7.581 -0.7367  2.7552  0.7050
  152SAPE  C21116845   4.673   6.620   7.621 -0.4506 -0.8479 -0.4492
  152SAPE  H11R16846   4.735   6.668   7.544 -0.3480 -0.0770  0.1015
  152SAPE  C21216847   4.627   6.703   7.718 -0.0178 -0.1116  0.3975
  152SAPE  H12R16848   4.664   6.806   7.736  0.8213 -0.3575  0.1187
  152SAPE  C21316849   4.546   6.661   7.837  0.0691  0.0698  0.5654
  152SAPE  H13R16850   4.550   6.744   7.911  0.6059 -0.4537  1.1344
  152SAPE  H13S16851   4.589   6.576   7.894 -2.1770 -0.3297  1.6907
  152SAPE  C21416852   4.401   6.634   7.799  0.0019 -0.0458 -0.0392
  152SAPE  H14R16853   4.379   6.614   7.693 -2.5483 -1.7463  0.7585
  152SAPE  C21516854   4.301   6.609   7.880 -0.2020  0.4167  0.3111
  152SAPE  H15R16855   4.205   6.582   7.833 -0.5213  0.5414  0.8817
  152SAPE  C21616856   4.311   6.598   8.030  0.4446  0.2322  0.1331
  152SAPE  H16R16857   4.411   6.612   8.075  0.1400  4.0071 -0.2102
  152SAPE  H16S16858   4.279   6.494   8.053 -0.4985  0.8848  1.8271
  152SAPE  C21716859   4.206   6.695   8.094 -0.4056  0.0208 -0.8239
  152SAPE  H17R16860   4.238   6.802   8.087  0.4459 -0.2359 -0.9059
  152SAPE  H17S16861   4.211   6.686   8.205  2.1438 -1.1931 -1.0149
  152SAPE  C21816862   4.062   6.671   8.054  0.0726  0.1882  0.1052
  152SAPE  H18R16863   4.050   6.561   8.044  0.2199  0.2810 -1.1237
  152SAPE  H18S16864   4.067   6.688   7.945  1.1407 -1.8197 -0.1823
  152SAPE  C21916865   3.945   6.757   8.120 -0.3099 -0.0143  0.4575
  152SAPE  H19R16866   3.958   6.754   8.230  2.4835  1.3160  0.2093
  152SAPE  H19S16867   3.850   6.701   8.114 -0.1921 -0.2141  0.4592
  152SAPE  C22016868   3.936   6.895   8.051 -0.8254 -0.8324  0.2668
  152SAPE  H20R16869   3.890   6.878   7.951 -1.0733 -0.8804  0.3899
  152SAPE  H20S16870   4.036   6.941   8.039 -0.3732 -1.1855  2.4685
  152SAPE  H20T16871   3.868   6.966   8.104 -0.9282 -1.2538  0.7082
  152SAPE   C3316872   4.817   6.043   6.978  0.0521 -0.1833  0.4150
  152SAPE   H3X16873   4.760   6.099   6.901  1.5609 -1.4826 -1.7050
  152SAPE   H3Y16874   4.891   6.115   7.019 -0.3806  0.2633  0.4192
  152SAPE   C3416875   4.723   6.007   7.089  0.5166 -0.4536  0.2183
  152SAPE   H4X16876   4.629   5.966   7.045 -0.3116  0.4855  1.0678
  152SAPE   H4Y16877   4.700   6.101   7.145  1.5810 -1.1187  1.7928
  152SAPE   C3516878   4.781   5.907   7.187 -0.4212  0.0820 -1.2500
  152SAPE   H5X16879   4.826   5.816   7.141  1.4583  0.5738 -0.4589
  152SAPE   H5Y16880   4.702   5.861   7.250  2.1732 -1.2766  1.1236
  152SAPE   C3616881   4.893   5.974   7.277  0.1058 -0.1500 -0.4974
  152SAPE   H6X16882   4.847   6.064   7.324  1.3483  0.6397 -0.7697
  152SAPE   H6Y16883   4.984   5.995   7.217 -0.1928  2.4166 -0.1373
  152SAPE   C3716884   4.936   5.901   7.409  0.3272  0.2134  0.5144
  152SAPE   H7X16885   4.963   5.802   7.367  0.3037  0.1686  0.6056
  152SAPE   H7Y16886   4.851   5.881   7.477  0.4075  1.8183  1.1323
  152SAPE   C3816887   5.054   5.952   7.492 -0.4041 -1.0679 -0.2104
  152SAPE   H8X16888   5.036   6.056   7.527 -3.2536 -1.7837  0.5459
  152SAPE   H8Y16889   5.136   5.957   7.416 -0.3068  3.0380  0.0236
  152SAPE   C3916890   5.102   5.865   7.609  0.8352  0.4293  0.6721
  152SAPE   H9X16891   5.125   5.768   7.559 -1.4685 -0.0351  0.4404
  152SAPE   H9Y16892   5.022   5.845   7.683 -0.7965 -2.4670 -1.7227
  152SAPE  C31016893   5.229   5.923   7.669  0.7627  0.1045  0.7286
  152SAPE  H10X16894   5.203   6.019   7.718 -1.3382  0.8598 -1.8075
  152SAPE  H10Y16895   5.305   5.941   7.590  2.4925  1.4143  2.6081
  152SAPE  C31116896   5.292   5.837   7.791 -0.2907  0.2339  0.1816
  152SAPE  H11X16897   5.343   5.758   7.732 -1.3583  1.6526 -2.6871
  152SAPE  H11Y16898   5.205   5.799   7.850 -0.1769 -2.3409 -1.2314
  152SAPE  C31216899   5.388   5.910   7.880  0.5723  0.1503 -0.2356
  152SAPE  H12X16900   5.467   5.969   7.828  1.4008 -0.0935  0.7329
  152SAPE  H12Y16901   5.449   5.827   7.923  0.0147 -1.4593 -2.4678
  152SAPE  C31316902   5.310   5.999   7.982 -0.4845  0.3451  0.4975
  152SAPE  H13X16903   5.254   5.937   8.055 -1.5311  2.1411  1.2543
  152SAPE  H13Y16904   5.237   6.067   7.932 -0.8399  0.6037  1.3599
  152SAPE  C31416905   5.393   6.096   8.066 -0.1672  0.5963  0.1871
  152SAPE  H14X16906   5.437   6.166   7.992 -1.2743 -0.0213 -1.0721
  152SAPE  H14Y16907   5.484   6.054   8.114 -0.2401 -1.2427 -1.2343
  152SAPE  C31516908   5.300   6.161   8.175 -0.3363  0.3071 -0.1456
  152SAPE  H15X16909   5.268   6.073   8.234 -1.9312 -0.0488 -1.5049
  152SAPE  H15Y16910   5.212   6.207   8.125 -0.2790  2.3831  1.5753
  152SAPE  C31616911   5.374   6.277   8.257 -0.8530  0.4847  0.8724
  152SAPE  H16X16912   5.313   6.321   8.338 -0.3896  0.2715  1.3375
  152SAPE  H16Y16913   5.394   6.363   8.189 -1.9570  1.8333  2.2368
  152SAPE  C31716914   5.503   6.236   8.329  0.6250 -0.0671 -0.4840
  152SAPE  H17X16915   5.565   6.183   8.255 -0.0067  0.2492 -1.2493
  152SAPE  H17Y16916   5.468   6.163   8.406  1.2314  1.2931  1.0976
  152SAPE  C31816917   5.585   6.343   8.398 -0.0734 -0.0539 -0.1715
  152SAPE  H18X16918   5.537   6.384   8.489 -0.7389 -1.1967 -0.0114
  152SAPE  H18Y16919   5.593   6.431   8.330  3.0020  0.4383  0.7266
  152SAPE  H18Z16920   5.681   6.292   8.420 -0.2591  0.0193  0.8082
  153SAPE     N16921   1.756   6.428   6.199  0.3966 -1.0658 -0.4177
  153SAPE   HN116922   1.723   6.487   6.120 -0.8747 -0.3205  0.6650
  153SAPE   HN216923   1.828   6.370   6.151  1.0783 -1.0019  0.5244
  153SAPE   HN316924   1.676   6.367   6.225  0.6474 -0.9580  0.6345
  153SAPE   C1216925   1.818   6.501   6.319  0.2820 -0.8460  0.2802
  153SAPE  H12A16926   1.898   6.561   6.270 -1.5019  1.3355 -0.0301
  153SAPE  H12B16927   1.859   6.415   6.377  0.0127 -2.0039 -1.2135
  153SAPE   C1116928   1.719   6.606   6.384 -0.2805 -0.5431  0.7527
  153SAPE  H11A16929   1.779   6.669   6.454  2.8473 -2.2348 -0.3051
  153SAPE  H11B16930   1.648   6.551   6.449 -0.9548  0.1637  0.6133
  153SAPE     P16931   1.716   6.810   6.221  0.1537 -0.3062 -0.3298
  153SAPE   O1316932   1.849   6.770   6.177  0.0724  0.2625  0.1909
  153SAPE   O1416933   1.634   6.868   6.114  0.2197  0.2734  0.4024
  153SAPE   O1216934   1.646   6.681   6.285  0.2456 -0.2699  0.0219
  153SAPE   O1116935   1.743   6.913   6.335 -0.1292 -0.1472 -0.3196
  153SAPE    C116936   1.634   6.953   6.423 -0.0315  0.3146 -0.0511
  153SAPE    HA16937   1.622   7.063   6.415 -0.1250  0.1350 -2.9477
  153SAPE    HB16938   1.535   6.906   6.402 -0.5694  1.7189 -0.7155
  153SAPE    C216939   1.671   6.936   6.569 -0.5406  0.0569 -0.4690
  153SAPE    HS16940   1.674   7.031   6.626  0.8329  0.5739 -1.3725
  153SAPE   O2116941   1.796   6.858   6.587  0.6069  0.0789  0.8531
  153SAPE   C2116942   1.900   6.934   6.571 -0.1999  0.4588 -0.0658
  153SAPE   O2216943   1.905   7.054   6.569  0.1882 -1.4781 -0.0750
  153SAPE   C2216944   2.020   6.842   6.560  0.4614  0.1541 -0.1849
  153SAPE   H2R16945   2.022   6.792   6.460  1.1171 -1.9142  0.8404
  153SAPE   H2S16946   2.116   6.898   6.557  1.2209 -1.0713  0.6448
  153SAPE    C316947   1.557   6.866   6.643 -0.4049  0.4677  0.2297
  153SAPE    HX16948   1.551   6.767   6.592  1.7722 -0.3211  1.3980
  153SAPE    HY16949   1.473   6.933   6.615  1.0633  2.0153 -0.6292
  153SAPE   O3116950   1.584   6.854   6.789  0.1169  0.8049 -0.6221
  153SAPE   C3116951   1.501   6.768   6.851  0.5827 -0.0673 -0.3682
  153SAPE   O3216952   1.414   6.707   6.793 -0.2763  0.3502 -0.2742
  153SAPE   C3216953   1.555   6.754   6.994  0.2724  0.2945  0.4925
  153SAPE   H2X16954   1.524   6.830   7.068  0.0757 -0.1816  0.9076
  153SAPE   H2Y16955   1.666   6.751   6.989  0.2187  1.0094 -1.2490
  153SAPE   C2316956   2.030   6.741   6.678 -0.4450  0.2758  0.3489
  153SAPE   H3R16957   2.119   6.681   6.650  0.8175  1.7291  1.1632
  153SAPE   H3S16958   1.946   6.669   6.684  0.2077 -0.5263 -0.0772
  153SAPE   C2416959   2.042   6.825   6.810  0.5951 -0.4297  0.9520
  153SAPE   H4R16960   1.942   6.828   6.857  0.5782 -2.0423  1.0482
  153SAPE   H4S16961   2.080   6.925   6.780 -1.0780 -0.4363 -1.2624
  153SAPE   C2516962   2.143   6.760   6.903 -0.4251 -0.3395 -0.2936
  153SAPE   H5R16963   2.241   6.739   6.858 -0.0009 -1.1695  0.9891
  153SAPE   C2616964   2.130   6.737   7.036  0.1412  0.7540  0.4424
  153SAPE   H6R16965   2.216   6.698   7.093 -0.5417 -2.5666 -0.6933
  153SAPE   C2716966   2.012   6.763   7.121 -0.3611  0.2352 -0.0201
  153SAPE   H7R16967   2.010   6.696   7.209  2.1786  0.9785  0.6281
  153SAPE   H7S16968   1.914   6.746   7.070  0.2209 -1.0961 -0.7398
  153SAPE   C2816969   2.004   6.897   7.178  0.8582  0.5149 -0.1022
  153SAPE   H8R16970   1.923   6.961   7.139 -1.0093 -3.2417 -2.6783
  153SAPE   C2916971   2.070   6.945   7.288  0.3683  0.1679 -0.2593
  153SAPE   H9R16972   2.040   7.047   7.317 -0.5548  0.0873 -0.8943
  153SAPE  C21016973   2.172   6.871   7.371 -0.0841 -0.8203 -0.1560
  153SAPE  H10R16974   2.267   6.926   7.360 -1.0968  0.9177 -0.3950
  153SAPE  H10S16975   2.183   6.766   7.337 -0.4581 -1.1313  0.6424
  153SAPE  C21116976   2.121   6.869   7.515 -0.3391 -0.4154  0.2003
  153SAPE  H11R16977   2.058   6.779   7.529  0.5915 -0.8370  1.7633
  153SAPE  C21216978   2.144   6.947   7.623 -0.3666  1.0405 -0.1912
  153SAPE  H12R16979   2.125   6.913   7.725  0.9283 -0.6458 -0.4764
  153SAPE  C21316980   2.237   7.070   7.636 -0.5228 -0.3711 -0.3477
  153SAPE  H13R16981   2.172   7.149   7.680  1.3299  2.1698 -2.0047
  153SAPE  H13S16982   2.272   7.092   7.532  1.8741 -2.0461  0.0609
  153SAPE  C21416983   2.355   7.038   7.727 -0.4578 -0.0497 -0.1384
  153SAPE  H14R16984   2.426   6.958   7.701  0.8829  0.4055  1.9124
  153SAPE  C21516985   2.390   7.112   7.837  0.6645 -0.0525  0.4098
  153SAPE  H15R16986   2.468   7.072   7.904 -1.0357 -1.8435  1.3583
  153SAPE  C21616987   2.318   7.226   7.899 -0.3482 -0.1009  0.5626
  153SAPE  H16R16988   2.239   7.271   7.836  0.2949 -0.3790 -0.4533
  153SAPE  H16S16989   2.397   7.303   7.908 -0.3612 -0.0873  0.5623
  153SAPE  C21716990   2.263   7.194   8.042  0.6619 -0.2371 -0.3017
  153SAPE  H17R16991   2.207   7.276   8.091  1.9852  0.1576  0.5984
  153SAPE  H17S16992   2.346   7.173   8.113  0.8300 -0.5490 -0.5893
  153SAPE  C21816993   2.170   7.069   8.034 -0.3645 -0.1188 -0.1502
  153SAPE  H18R16994   2.156   7.028   8.136  1.2406 -1.3643 -0.4155
  153SAPE  H18S16995   2.214   6.979   7.988  3.3882  1.1808  0.7489
  153SAPE  C21916996   2.027   7.107   7.979 -0.1677  0.5637 -0.5346
  153SAPE  H19R16997   2.045   7.140   7.874 -3.2163  0.9609 -0.9753
  153SAPE  H19S16998   1.985   7.186   8.045  1.8018  0.6119  0.6992
  153SAPE  C22016999   1.919   6.992   7.970 -0.6351 -0.2081 -0.1590
  153SAPE  H20R17000   1.826   7.033   7.926 -0.2133  0.8656 -0.0749
  153SAPE  H20S17001   1.911   6.951   8.073  0.8538  1.8805  0.8296
  153SAPE  H20T17002   1.956   6.911   7.903 -0.7465  1.1636 -1.9289
  153SAPE   C3317003   1.503   6.617   7.050  0.0278  0.2773  0.8477
  153SAPE   H3X17004   1.542   6.519   7.014 -2.6310 -0.7838  0.6937
  153SAPE   H3Y17005   1.396   6.620   7.020  0.0629 -0.5692  0.6062
  153SAPE   C3417006   1.517   6.601   7.205  0.1134  0.1743 -0.1705
  153SAPE   H4X17007   1.490   6.494   7.222  1.4027 -0.2875 -0.9445
  153SAPE   H4Y17008   1.458   6.665   7.273  0.9468 -0.1331  0.8546
  153SAPE   C3517009   1.665   6.615   7.246 -0.3080  0.6710  0.1253
  153SAPE   H5X17010   1.701   6.716   7.216  0.1009  0.3461 -0.4962
  153SAPE   H5Y17011   1.713   6.542   7.177  1.1564  0.0731  1.7378
  153SAPE   C3617012   1.706   6.585   7.393  0.3944  0.2994  0.4287
  153SAPE   H6X17013   1.697   6.477   7.412  3.2227  0.0669  0.5690
  153SAPE   H6Y17014   1.646   6.627   7.477  0.6753  0.2577  0.6473
  153SAPE   C3717015   1.854   6.612   7.413  0.0259 -0.5394 -0.3022
  153SAPE   H7X17016   1.878   6.720   7.407  0.4687 -0.5813  0.6925
  153SAPE   H7Y17017   1.894   6.560   7.323  1.8629 -0.5572  0.4995
  153SAPE   C3817018   1.922   6.536   7.540  0.2215 -0.3800  0.3174
  153SAPE   H8X17019   2.031   6.559   7.539  0.4692 -1.5543 -0.9480
  153SAPE   H8Y17020   1.906   6.427   7.526  1.9675 -0.6486  0.2549
  153SAPE   C3917021   1.867   6.588   7.674 -0.3258 -0.0991 -0.1819
  153SAPE   H9X17022   1.762   6.553   7.680 -0.8544  1.3568 -0.6086
  153SAPE   H9Y17023   1.853   6.698   7.673 -1.1926 -0.1481  1.9419
  153SAPE  C31017024   1.929   6.535   7.804 -0.3444  0.3037 -0.5212
  153SAPE  H10X17025   2.036   6.565   7.811 -0.0145 -0.2860 -2.7088
  153SAPE  H10Y17026   1.924   6.424   7.807 -0.4715  0.3372  3.0539
  153SAPE  C31117027   1.842   6.582   7.916 -0.0619  0.1433  0.2189
  153SAPE  H11X17028   1.740   6.553   7.884  0.2599  0.4981 -1.1707
  153SAPE  H11Y17029   1.838   6.692   7.936  0.7508  0.4935 -1.4278
  153SAPE  C31217030   1.849   6.503   8.051 -0.4709  0.2073 -0.4564
  153SAPE  H12X17031   1.843   6.392   8.048  0.8842  0.0576  1.1118
  153SAPE  H12Y17032   1.770   6.540   8.119 -1.2645  2.0079 -2.3017
  153SAPE  C31317033   1.980   6.522   8.137 -0.4237  0.5891 -0.3707
  153SAPE  H13X17034   2.010   6.628   8.154 -0.2155  0.3696  0.6890
  153SAPE  H13Y17035   2.064   6.476   8.080 -1.7063  2.6369 -4.0923
  153SAPE  C31417036   1.974   6.462   8.275 -1.2290  0.5947 -0.4489
  153SAPE  H14X17037   1.956   6.355   8.252 -0.7689  0.4828 -0.2915
  153SAPE  H14Y17038   1.893   6.514   8.332  0.0346  1.3537  0.6655
  153SAPE  C31517039   2.112   6.482   8.345 -0.6094 -0.4014 -0.1306
  153SAPE  H15X17040   2.122   6.593   8.345  1.2249 -0.5250 -2.4169
  153SAPE  H15Y17041   2.186   6.433   8.278  0.3596 -0.2005  0.7892
  153SAPE  C31617042   2.119   6.424   8.489 -0.4878 -0.0757 -0.5269
  153SAPE  H16X17043   2.030   6.449   8.549  1.0830 -0.9076  2.2355
  153SAPE  H16Y17044   2.203   6.475   8.541  0.3032 -0.1113 -1.7390
  153SAPE  C31717045   2.157   6.278   8.498 -0.1658  0.5680  0.3070
  153SAPE  H17X17046   2.250   6.272   8.438 -0.9193  2.3342 -1.0802
  153SAPE  H17Y17047   2.083   6.212   8.450  1.6307 -2.5077  1.6357
  153SAPE  C31817048   2.174   6.231   8.642 -0.3059 -0.3431 -0.0109
  153SAPE  H18X17049   2.193   6.122   8.643  2.8655  0.1617 -0.4149
  153SAPE  H18Y17050   2.082   6.251   8.702  0.7290 -0.5233  1.6827
  153SAPE  H18Z17051   2.254   6.288   8.695 -0.1914 -1.2967  0.8656
  154SAPE     N17052   0.015   6.227   6.167 -0.1581  0.2024  0.0746
  154SAPE   HN117053  -0.038   6.163   6.105 -1.0039  0.4338  0.5399
  154SAPE   HN217054  -0.046   6.311   6.180 -1.7826 -0.8205 -0.7896
  154SAPE   HN317055   0.109   6.248   6.128 -1.1020 -0.5910 -2.7897
  154SAPE   C1217056   0.030   6.181   6.310 -0.6477  0.0114 -0.0393
  154SAPE  H12A17057  -0.013   6.265   6.369  0.1324  0.8026 -0.5902
  154SAPE  H12B17058   0.137   6.168   6.333 -0.4719  0.5298 -0.5558
  154SAPE   C1117059  -0.046   6.052   6.345  0.2834 -0.1804  0.6441
  154SAPE  H11A17060  -0.029   6.044   6.455 -0.0271  0.1750  0.7177
  154SAPE  H11B17061  -0.007   5.966   6.286  1.2909  1.9261 -1.8186
  154SAPE     P17062  -0.259   6.004   6.192 -0.1951 -0.3944  0.2953
  154SAPE   O1317063  -0.404   6.039   6.192  0.1286  0.3620  0.2553
  154SAPE   O1417064  -0.176   6.040   6.076 -0.4897  0.1767 -0.1414
  154SAPE   O1217065  -0.188   6.060   6.318  0.3418 -0.0248 -0.1454
  154SAPE   O1117066  -0.235   5.850   6.208  0.3428 -0.7663  0.0787
  154SAPE    C117067  -0.329   5.750   6.234 -0.3209  0.3177  0.8086
  154SAPE    HA17068  -0.413   5.753   6.161 -1.0913  0.2373  1.6857
  154SAPE    HB17069  -0.281   5.654   6.205  0.0645  0.8885 -0.4727
  154SAPE    C217070  -0.387   5.753   6.372  0.2323  0.2300 -0.1471
  154SAPE    HS17071  -0.454   5.841   6.387 -2.0344 -1.9134  3.0248
  154SAPE   O2117072  -0.275   5.748   6.466 -0.1254 -0.8386 -0.4744
  154SAPE   C2117073  -0.275   5.850   6.551  0.2270 -0.3872 -0.1942
  154SAPE   O2217074  -0.355   5.937   6.557 -0.3106  0.0273 -0.2386
  154SAPE   C2217075  -0.164   5.837   6.652 -0.5631  0.2139 -0.7034
  154SAPE   H2R17076  -0.153   5.729   6.675  0.3429  0.6105  0.7510
  154SAPE   H2S17077  -0.069   5.881   6.615 -0.4222 -0.4226 -1.0973
  154SAPE    C317078  -0.472   5.625   6.393  0.3084  0.0945  0.2986
  154SAPE    HX17079  -0.435   5.544   6.327 -1.8611 -0.2022 -0.6212
  154SAPE    HY17080  -0.572   5.659   6.357  0.1720 -0.6140 -0.0147
  154SAPE   O3117081  -0.471   5.575   6.533  0.0818  0.3473  0.0701
  154SAPE   C3117082  -0.567   5.621   6.614 -0.3981 -0.4037  0.0919
  154SAPE   O3217083  -0.656   5.697   6.581  0.2904  0.0716 -0.0624
  154SAPE   C3217084  -0.535   5.564   6.761  0.2100  0.1062 -0.7855
  154SAPE   H2X17085  -0.431   5.595   6.784 -0.0368  2.5802 -2.8381
  154SAPE   H2Y17086  -0.539   5.453   6.750  1.6708 -0.1387  0.9305
  154SAPE   C2317087  -0.195   5.904   6.787  0.1204 -0.8225  0.5378
  154SAPE   H3R17088  -0.290   5.859   6.824  0.1824 -1.3198  0.1097
  154SAPE   H3S17089  -0.207   6.011   6.762 -0.3304 -1.3033 -1.3952
  154SAPE   C2417090  -0.077   5.879   6.876  0.4009 -0.5910 -0.2139
  154SAPE   H4R17091   0.017   5.931   6.848 -1.1618  2.0687 -0.7702
  154SAPE   H4S17092  -0.045   5.774   6.861 -0.4052 -0.5583 -2.4275
  154SAPE   C2517093  -0.099   5.914   7.021  0.5066 -0.1297 -0.2941
  154SAPE   H5R17094  -0.097   6.022   7.040 -1.4411 -0.2359  0.6728
  154SAPE   C2617095  -0.116   5.836   7.129  0.3695 -0.0415  0.1120
  154SAPE   H6R17096  -0.138   5.889   7.223  1.7307 -0.1318  0.4915
  154SAPE   C2717097  -0.120   5.681   7.132 -0.7419  0.2794  0.0115
  154SAPE   H7R17098  -0.033   5.651   7.193  0.6826 -1.6712 -2.8695
  154SAPE   H7S17099  -0.089   5.634   7.036  1.0224 -1.4058  1.3838
  154SAPE   C2817100  -0.252   5.615   7.167  0.4564  0.3370  0.1513
  154SAPE   H8R17101  -0.306   5.560   7.089  2.3915  1.3117 -1.9288
  154SAPE   C2917102  -0.311   5.615   7.291 -0.1273  0.4283 -0.1946
  154SAPE   H9R17103  -0.409   5.567   7.303  0.3279 -0.5335 -0.3366
  154SAPE  C21017104  -0.248   5.683   7.417 -0.1090  0.4291 -0.1916
  154SAPE  H10R17105  -0.323   5.762   7.440  0.7737  1.2306 -0.0569
  154SAPE  H10S17106  -0.152   5.736   7.396 -0.2332  0.3238 -1.0306
  154SAPE  C21117107  -0.217   5.599   7.546 -0.1854 -0.9144  0.0873
  154SAPE  H11R17108  -0.190   5.493   7.531  1.3481 -0.6897  1.1902
  154SAPE  C21217109  -0.220   5.652   7.669 -0.4826  0.0503  0.5164
  154SAPE  H12R17110  -0.184   5.590   7.753  0.5896  2.8235  2.1593
  154SAPE  C21317111  -0.255   5.797   7.701 -0.3354 -0.0736 -1.1915
  154SAPE  H13R17112  -0.252   5.861   7.610 -2.6379  2.3370  0.3813
  154SAPE  H13S17113  -0.171   5.848   7.754 -0.4081 -0.0491 -1.1003
  154SAPE  C21417114  -0.381   5.806   7.786 -0.0442  0.4964 -0.2456
  154SAPE  H14R17115  -0.474   5.780   7.735 -0.7732 -3.7294  2.8716
  154SAPE  C21517116  -0.382   5.821   7.918 -0.6223 -0.4472  0.4436
  154SAPE  H15R17117  -0.476   5.814   7.974  0.0826 -0.0627  1.7029
  154SAPE  C21617118  -0.266   5.842   8.007  0.3427 -0.2257  0.2473
  154SAPE  H16R17119  -0.245   5.951   8.016  1.3093 -0.3113 -0.7982
  154SAPE  H16S17120  -0.177   5.792   7.962  1.2160  1.5929 -0.1158
  154SAPE  C21717121  -0.291   5.802   8.150 -0.4542  0.1367 -0.2017
  154SAPE  H17R17122  -0.365   5.719   8.152 -0.7674  0.4345  1.6026
  154SAPE  H17S17123  -0.318   5.893   8.207  2.7353  0.7926  0.3751
  154SAPE  C21817124  -0.157   5.745   8.199  0.2508 -0.3772 -0.0986
  154SAPE  H18R17125  -0.126   5.668   8.125  2.3239 -0.0307  0.3894
  154SAPE  H18S17126  -0.174   5.680   8.287  3.3613 -1.3387 -0.1618
  154SAPE  C21917127  -0.049   5.853   8.206  0.0817  0.6688  0.0095
  154SAPE  H19R17128  -0.083   5.955   8.232  0.7479  0.1780  3.0057
  154SAPE  H19S17129  -0.016   5.854   8.099  0.4002  0.4295  0.1046
  154SAPE  C22017130   0.063   5.808   8.303 -0.1602  0.0490  0.2312
  154SAPE  H20R17131   0.022   5.803   8.406 -0.2381  0.2157  0.2101
  154SAPE  H20S17132   0.137   5.891   8.306  0.1296 -0.2037  0.0958
  154SAPE  H20T17133   0.107   5.714   8.263 -1.3375 -0.4367  0.0783
  154SAPE   C3317134  -0.637   5.612   6.861  0.3243 -0.1882 -0.4851
  154SAPE   H3X17135  -0.738   5.618   6.814  0.1292  0.5157  0.0171
  154SAPE   H3Y17136  -0.601   5.710   6.897  0.1785  0.0914 -1.0864
  154SAPE   C3417137  -0.650   5.517   6.977  0.2063 -0.3001  0.4466
  154SAPE   H4X17138  -0.554   5.507   7.031 -0.4242 -0.2031  1.5976
  154SAPE   H4Y17139  -0.667   5.413   6.940  0.4656 -0.7433  1.5516
  154SAPE   C3517140  -0.754   5.558   7.075 -0.7637  0.8265  0.3176
  154SAPE   H5X17141  -0.826   5.477   7.097  0.9123 -1.9147 -3.6383
  154SAPE   H5Y17142  -0.807   5.649   7.037 -1.4522 -0.7137 -2.5446
  154SAPE   C3617143  -0.688   5.608   7.210 -0.3621  0.3514 -1.0632
  154SAPE   H6X17144  -0.644   5.710   7.205  0.1846  0.2964  1.5381
  154SAPE   H6Y17145  -0.600   5.543   7.231  0.9167  2.4173  0.2098
  154SAPE   C3717146  -0.785   5.607   7.331  0.0102  0.7313  0.5842
  154SAPE   H7X17147  -0.832   5.506   7.334  2.9324 -0.6803  1.3202
  154SAPE   H7Y17148  -0.863   5.686   7.324  0.3188  1.1679  1.9227
  154SAPE   C3817149  -0.721   5.642   7.469 -0.9089  0.1345 -1.0498
  154SAPE   H8X17150  -0.676   5.743   7.470  1.4194 -0.8347 -2.0775
  154SAPE   H8Y17151  -0.647   5.564   7.499 -0.9828  0.7865  0.8858
  154SAPE   C3917152  -0.821   5.656   7.581 -0.3202 -0.0291  0.4252
  154SAPE   H9X17153  -0.842   5.557   7.627  0.2593  0.4855  1.8508
  154SAPE   H9Y17154  -0.918   5.701   7.550 -1.5190 -1.0092  2.6495
  154SAPE  C31017155  -0.774   5.749   7.692  0.1332 -0.0094 -0.4371
  154SAPE  H10X17156  -0.747   5.853   7.666  0.5106 -0.0208 -0.1047
  154SAPE  H10Y17157  -0.688   5.704   7.747  0.2224  0.4520 -0.2018
  154SAPE  C31117158  -0.882   5.773   7.803 -0.2472  0.2233  1.2651
  154SAPE  H11X17159  -0.923   5.672   7.824 -0.1095  0.1345  1.1055
  154SAPE  H11Y17160  -0.965   5.828   7.754 -0.7101 -1.6081 -0.0761
  154SAPE  C31217161  -0.826   5.845   7.918  0.3477  0.3717 -0.2339
  154SAPE  H12X17162  -0.759   5.926   7.881 -1.3300  0.1647 -3.9561
  154SAPE  H12Y17163  -0.762   5.783   7.984  3.4061  1.7903 -1.7778
  154SAPE  C31317164  -0.935   5.895   8.011 -0.3277 -0.2341  0.4165
  154SAPE  H13X17165  -0.992   5.979   7.964 -0.8240  0.0160  1.4480
  154SAPE  H13Y17166  -0.887   5.942   8.100  1.9832 -1.1150 -0.3340
  154SAPE  C31417167  -1.037   5.787   8.060 -0.2984  1.3794  0.2760
  154SAPE  H14X17168  -0.972   5.707   8.101  0.1159  1.1246 -0.8659
  154SAPE  H14Y17169  -1.093   5.740   7.976  2.0345 -0.9036 -0.0669
  154SAPE  C31517170  -1.131   5.834   8.168 -0.7405 -0.0615  0.0526
  154SAPE  H15X17171  -1.222   5.769   8.171 -0.8985 -0.4192 -6.1834
  154SAPE  H15Y17172  -1.157   5.934   8.130  1.1035  0.0165 -1.0659
  154SAPE  C31617173  -1.079   5.828   8.314 -0.1855 -0.2203  1.1294
  154SAPE  H16X17174  -0.987   5.890   8.314 -0.6206  0.4308  1.0238
  154SAPE  H16Y17175  -1.040   5.725   8.330  0.1854 -0.3927 -0.8083
  154SAPE  C31717176  -1.163   5.880   8.429  0.0423  0.5198 -0.0140
  154SAPE  H17X17177  -1.254   5.816   8.436 -0.1667  0.6278 -1.5583
  154SAPE  H17Y17178  -1.194   5.985   8.409 -0.9790 -0.0723 -1.6820
  154SAPE  C31817179  -1.096   5.861   8.568  0.3508 -0.1571  0.2102
  154SAPE  H18X17180  -0.999   5.915   8.570 -0.7009  1.8564 -1.0017
  154SAPE  H18Y17181  -1.089   5.755   8.599 -0.5376 -0.1990  0.2990
  154SAPE  H18Z17182  -1.156   5.916   8.643 -2.2591 -3.3222  0.5834
  155SAPE     N17183   6.292   6.170   6.415  0.6124 -0.0800 -0.0024
  155SAPE   HN117184   6.257   6.091   6.472 -0.7231  0.9592  0.6247
  155SAPE   HN217185   6.204   6.223   6.402  0.4486  0.6587  3.5267
  155SAPE   HN317186   6.328   6.131   6.325  1.8024 -0.8915  0.7973
  155SAPE   C1217187   6.396   6.249   6.481  0.1129 -0.7853  0.4232
  155SAPE  H12A17188   6.481   6.180   6.496  0.3454 -0.6591 -0.3095
  155SAPE  H12B17189   6.358   6.297   6.574  1.0033  2.2875 -0.7251
  155SAPE   C1117190   6.439   6.369   6.380 -0.2149 -0.2404 -0.6977
  155SAPE  H11A17191   6.503   6.333   6.297 -0.7402 -2.6620 -0.0976
  155SAPE  H11B17192   6.504   6.435   6.442  0.3824 -2.1753  0.7559
  155SAPE     P17193   6.279   6.575   6.382  0.1047 -0.0883  0.0482
  155SAPE   O1317194   6.353   6.679   6.306  0.5092 -0.2500 -0.2484
  155SAPE   O1417195   6.135   6.576   6.382  0.3335 -0.0229 -0.0857
  155SAPE   O1217196   6.325   6.439   6.329 -0.4611 -0.5551 -0.0424
  155SAPE   O1117197   6.330   6.566   6.531  0.1995 -0.0553 -0.0481
  155SAPE    C117198   6.396   6.686   6.575 -0.2775  0.6252  0.2080
  155SAPE    HA17199   6.495   6.698   6.528 -0.7161  1.6189 -0.4728
  155SAPE    HB17200   6.332   6.775   6.557  1.1251  1.5479 -0.2151
  155SAPE    C217201   6.434   6.670   6.733  0.5677 -0.0228  0.4145
  155SAPE    HS17202   6.502   6.750   6.770  0.6704  0.5279 -0.9235
  155SAPE   O2117203   6.479   6.544   6.769 -0.3618 -0.6812  0.3447
  155SAPE   C2117204   6.599   6.505   6.718  1.1210  0.3449  0.5212
  155SAPE   O2217205   6.665   6.569   6.638  0.0900  0.2156  0.3364
  155SAPE   C2217206   6.641   6.369   6.778  0.0468 -0.0300 -0.2545
  155SAPE   H2R17207   6.693   6.397   6.872 -1.4734  0.7192  0.3812
  155SAPE   H2S17208   6.552   6.302   6.788  1.0900 -1.3392  0.3992
  155SAPE    C317209   6.304   6.706   6.804  0.2464 -0.4647  0.2225
  155SAPE    HX17210   6.221   6.633   6.787 -0.8491  0.4997  1.3074
  155SAPE    HY17211   6.269   6.802   6.760  2.1374 -1.0500 -2.6430
  155SAPE   O3117212   6.324   6.716   6.947 -0.0603  0.4737 -0.3270
  155SAPE   C3117213   6.328   6.833   7.004  0.2943  0.3125  0.1227
  155SAPE   O3217214   6.313   6.938   6.948  0.4691 -0.0800  0.2197
  155SAPE   C3217215   6.375   6.814   7.148 -0.7345  0.8005  0.0512
  155SAPE   H2X17216   6.485   6.800   7.142 -0.9788 -1.2354 -0.0550
  155SAPE   H2Y17217   6.329   6.722   7.189  0.6192 -0.2585 -0.7741
  155SAPE   C2317218   6.736   6.299   6.678  0.3580  0.1462  0.2057
  155SAPE   H3R17219   6.700   6.313   6.574 -1.6791  2.0553  1.1367
  155SAPE   H3S17220   6.728   6.190   6.699  0.3483  0.0112 -0.4666
  155SAPE   C2417221   6.883   6.341   6.691 -0.3931 -0.3306  0.0694
  155SAPE   H4R17222   6.901   6.370   6.797 -0.0358 -3.7538  1.0027
  155SAPE   H4S17223   6.912   6.416   6.614 -0.1241 -1.9273 -1.4181
  155SAPE   C2517224   6.978   6.228   6.678 -0.0948 -0.3775 -0.6043
  155SAPE   H5R17225   7.009   6.208   6.575 -1.3974 -0.9591 -0.8996
  155SAPE   C2617226   7.018   6.144   6.774  0.0801 -0.0980  0.2804
  155SAPE   H6R17227   7.092   6.066   6.750  0.2662  1.0602 -3.1309
  155SAPE   C2717228   6.986   6.155   6.919  0.1773 -0.2853 -0.0042
  155SAPE   H7R17229   6.967   6.051   6.951  1.4454 -0.5774 -0.1797
  155SAPE   H7S17230   6.896   6.218   6.935  1.3231  1.0186  1.5653
  155SAPE   C2817231   7.095   6.217   7.005 -0.3046  0.2328 -0.4990
  155SAPE   H8R17232   7.195   6.230   6.962 -0.3377  0.4518 -0.5104
  155SAPE   C2917233   7.073   6.257   7.129 -0.3180  0.7668  0.4970
  155SAPE   H9R17234   7.155   6.306   7.184  0.5659 -1.1340  0.9354
  155SAPE  C21017235   6.944   6.241   7.207  1.1114 -0.2032 -0.4889
  155SAPE  H10R17236   6.857   6.285   7.155 -1.5326 -2.9180  1.4784
  155SAPE  H10S17237   6.959   6.308   7.294  1.9926 -0.1132 -0.7001
  155SAPE  C21117238   6.907   6.110   7.272 -0.4268 -0.5316  0.8528
  155SAPE  H11R17239   6.877   6.029   7.204 -0.1161  0.8417 -0.9266
  155SAPE  C21217240   6.892   6.077   7.404 -0.1846  0.0105  0.6890
  155SAPE  H12R17241   6.856   5.977   7.436 -0.4169  0.2957  1.3259
  155SAPE  C21317242   6.895   6.172   7.521  0.2129 -0.0721  0.1913
  155SAPE  H13R17243   6.837   6.129   7.605 -0.0255  1.4512  0.8027
  155SAPE  H13S17244   6.860   6.271   7.486  2.0540 -0.2166 -2.2459
  155SAPE  C21417245   7.035   6.209   7.558  0.1288 -0.3246 -0.1886
  155SAPE  H14R17246   7.112   6.188   7.482  1.4167 -2.5130  1.6486
  155SAPE  C21517247   7.064   6.252   7.689 -0.5807 -0.6913  0.4479
  155SAPE  H15R17248   7.170   6.278   7.703 -0.8782  0.6958  0.1617
  155SAPE  C21617249   6.960   6.269   7.798 -1.0394 -0.4796 -0.0764
  155SAPE  H16R17250   6.857   6.251   7.762 -1.0611 -0.3108 -0.0989
  155SAPE  H16S17251   6.967   6.372   7.838  0.8839 -1.2392  1.6515
  155SAPE  C21717252   6.969   6.171   7.919  0.3104 -0.1068  0.5000
  155SAPE  H17R17253   6.982   6.070   7.875  2.0217  0.6149 -0.7231
  155SAPE  H17S17254   6.872   6.158   7.971 -0.3202 -1.0021 -0.8949
  155SAPE  C21817255   7.082   6.198   8.015  0.1111  0.1141  0.1447
  155SAPE  H18R17256   7.070   6.300   8.057  1.1914  1.2538 -2.2453
  155SAPE  H18S17257   7.179   6.192   7.962  0.1921 -2.4440  0.4968
  155SAPE  C21917258   7.084   6.087   8.124 -0.8635 -0.0693  0.6643
  155SAPE  H19R17259   7.063   5.983   8.091 -1.2246  0.6069 -1.2904
  155SAPE  H19S17260   7.003   6.129   8.187  0.7781  2.0217  1.4693
  155SAPE  C22017261   7.212   6.082   8.210 -0.2970 -0.1078 -0.3051
  155SAPE  H20R17262   7.216   6.169   8.279  0.4087 -2.1946  2.4000
  155SAPE  H20S17263   7.305   6.081   8.150  1.3835  0.4020  2.2023
  155SAPE  H20T17264   7.205   5.995   8.279 -2.3365 -0.1121 -0.4924
  155SAPE   C3317265   6.335   6.938   7.230 -0.1296 -0.0523 -0.4119
  155SAPE   H3X17266   6.224   6.945   7.231 -0.2420 -1.2442 -1.7767
  155SAPE   H3Y17267   6.358   7.030   7.172  0.4419 -1.1659 -2.0008
  155SAPE   C3417268   6.397   6.940   7.366 -0.1515 -0.5290 -0.0312
  155SAPE   H4X17269   6.508   6.947   7.361 -0.1042  0.3068  1.8718
  155SAPE   H4Y17270   6.379   6.846   7.423 -0.9082  0.3363  1.1687
  155SAPE   C3517271   6.346   7.052   7.451  0.4130 -0.0743 -0.5600
  155SAPE   H5X17272   6.235   7.045   7.459  0.4718 -4.1157 -2.0746
  155SAPE   H5Y17273   6.375   7.146   7.401 -1.2940 -0.9874 -3.3869
  155SAPE   C3617274   6.392   7.061   7.601  0.8370  0.0298 -0.5542
  155SAPE   H6X17275   6.499   7.090   7.601  0.6735  0.6428 -0.7912
  155SAPE   H6Y17276   6.376   6.963   7.651  1.1092  0.3570  0.1951
  155SAPE   C3717277   6.318   7.169   7.680  0.1253  0.0697  0.0171
  155SAPE   H7X17278   6.207   7.159   7.678  0.1677 -0.3676 -0.1421
  155SAPE   H7Y17279   6.341   7.263   7.627  3.5028  0.8442  2.6615
  155SAPE   C3817280   6.364   7.188   7.821  0.8128 -0.4787 -0.2432
  155SAPE   H8X17281   6.332   7.281   7.871 -2.3306 -2.0808  0.8460
  155SAPE   H8Y17282   6.475   7.182   7.826  0.7320 -1.1172  0.8811
  155SAPE   C3917283   6.311   7.073   7.903 -0.0148 -0.5967 -0.1244
  155SAPE   H9X17284   6.327   6.974   7.856  0.7808 -0.8116  0.5763
  155SAPE   H9Y17285   6.201   7.067   7.923  0.1114  2.6669  1.8716
  155SAPE  C31017286   6.378   7.067   8.043  0.0315 -0.0486 -0.3838
  155SAPE  H10X17287   6.462   7.140   8.048 -0.8477  1.1787 -2.7223
  155SAPE  H10Y17288   6.413   6.964   8.069  0.8926  0.1177 -0.8709
  155SAPE  C31117289   6.282   7.119   8.148  0.6213 -0.9453 -0.7821
  155SAPE  H11X17290   6.188   7.059   8.151 -1.4492  2.2816  2.1455
  155SAPE  H11Y17291   6.257   7.219   8.107 -1.4421 -0.6908  0.9363
  155SAPE  C31217292   6.365   7.131   8.281 -0.2950 -0.3832  0.5094
  155SAPE  H12X17293   6.461   7.181   8.257 -0.6459 -0.0425 -0.1955
  155SAPE  H12Y17294   6.398   7.029   8.309 -1.7918 -0.2312  2.9508
  155SAPE  C31317295   6.292   7.183   8.403  0.2742 -0.2553 -0.0096
  155SAPE  H13X17296   6.202   7.123   8.428  0.1123 -0.7440 -1.7239
  155SAPE  H13Y17297   6.248   7.281   8.375  0.9646 -0.2409 -1.0892
  155SAPE  C31417298   6.359   7.209   8.538  0.4749 -0.2737  0.3546
  155SAPE  H14X17299   6.290   7.244   8.618  2.4407 -1.5846  2.7234
  155SAPE  H14Y17300   6.435   7.289   8.524  1.1481 -1.3134 -2.0219
  155SAPE  C31517301   6.428   7.085   8.603 -0.1404 -0.5171  0.1738
  155SAPE  H15X17302   6.469   7.116   8.701 -2.5551 -1.7359  1.6047
  155SAPE  H15Y17303   6.516   7.048   8.546 -0.4626 -2.5286  0.9364
  155SAPE  C31617304   6.331   6.972   8.620 -0.0502  0.1993  0.2758
  155SAPE  H16X17305   6.381   6.896   8.684 -2.8292  0.1180  2.4518
  155SAPE  H16Y17306   6.294   6.922   8.528 -3.9671 -0.3080  2.0251
  155SAPE  C31717307   6.202   7.007   8.704 -0.3596  0.2270 -0.5148
  155SAPE  H17X17308   6.143   7.084   8.650 -0.7414  0.3811  0.1242
  155SAPE  H17Y17309   6.235   7.063   8.794 -0.9485  0.0666 -0.2046
  155SAPE  C31817310   6.131   6.882   8.736 -0.5222  0.3616  0.0800
  155SAPE  H18X17311   6.114   6.823   8.644  1.0895  1.2320 -0.7884
  155SAPE  H18Y17312   6.041   6.892   8.800 -1.2136  2.9276 -1.2074
  155SAPE  H18Z17313   6.207   6.825   8.793 -0.4317 -0.4287 -0.8233
  156SAPE     N17314   5.404   0.660   6.351 -0.3087 -0.4518  0.1787
  156SAPE   HN117315   5.495   0.699   6.383  0.6949 -1.7422 -1.0018
  156SAPE   HN217316   5.411   0.592   6.273  0.2092  0.2622 -0.3996
  156SAPE   HN317317   5.357   0.744   6.313  1.1993  0.5850  0.5632
  156SAPE   C1217318   5.326   0.613   6.473  0.0152 -0.6547 -0.5366
  156SAPE  H12A17319   5.305   0.705   6.531  2.9003 -0.1653 -0.1844
  156SAPE  H12B17320   5.396   0.555   6.536 -0.4545  1.0035  1.5635
  156SAPE   C1117321   5.201   0.540   6.435  0.5389 -0.0588 -0.2669
  156SAPE  H11A17322   5.159   0.495   6.527 -1.2553 -0.4793 -1.2717
  156SAPE  H11B17323   5.229   0.455   6.369  0.2494  1.1788 -2.0370
  156SAPE     P17324   4.947   0.605   6.358 -0.0511 -0.0023  0.2537
  156SAPE   O1317325   4.873   0.717   6.421  0.1800  0.5016  0.4051
  156SAPE   O1417326   4.911   0.576   6.217  0.2562  0.2204 -0.3170
  156SAPE   O1217327   5.109   0.626   6.368  0.1546  0.3495 -0.2678
  156SAPE   O1117328   4.939   0.468   6.435 -0.0619 -0.2414  0.1641
  156SAPE    C117329   4.817   0.437   6.510 -0.3628  0.1094 -0.0452
  156SAPE    HA17330   4.734   0.494   6.465  0.4908  0.6274 -0.9809
  156SAPE    HB17331   4.791   0.329   6.507  0.8915 -0.2108 -0.0098
  156SAPE    C217332   4.844   0.492   6.659  0.1827  0.4669 -0.1070
  156SAPE    HS17333   4.855   0.601   6.643  4.1991  0.2073  0.3043
  156SAPE   O2117334   4.962   0.428   6.716 -0.3100 -0.1313  0.8388
  156SAPE   C2117335   5.029   0.497   6.807 -0.0175  0.0425 -1.0959
  156SAPE   O2217336   4.997   0.604   6.853  0.7428 -0.4234 -0.3025
  156SAPE   C2217337   5.143   0.418   6.869  0.1206 -0.2489 -0.2662
  156SAPE   H2R17338   5.148   0.314   6.829  1.8119 -0.0325 -0.6785
  156SAPE   H2S17339   5.238   0.462   6.832 -0.1108  2.5644  2.3066
  156SAPE    C317340   4.725   0.466   6.757  0.3576 -0.4637  0.2449
  156SAPE    HX17341   4.693   0.363   6.728 -1.6449  0.0119  0.7188
  156SAPE    HY17342   4.635   0.522   6.726 -0.2023 -2.1099 -1.2091
  156SAPE   O3117343   4.753   0.479   6.898 -1.0740  0.4405  0.0091
  156SAPE   C3117344   4.705   0.599   6.942  0.0020  0.2062  0.1610
  156SAPE   O3217345   4.641   0.677   6.876 -0.1751 -0.7399 -0.1740
  156SAPE   C3217346   4.752   0.613   7.089 -0.3165 -0.8006  0.0183
  156SAPE   H2X17347   4.863   0.603   7.090 -0.3717 -1.4835 -0.4964
  156SAPE   H2Y17348   4.718   0.520   7.138  1.9964 -1.2193  0.8755
  156SAPE   C2317349   5.142   0.443   7.025  0.5703 -0.6778 -0.4960
  156SAPE   H3R17350   5.050   0.400   7.071 -0.3824  0.4296 -1.3139
  156SAPE   H3S17351   5.167   0.551   7.036  0.2860 -0.4064 -2.3314
  156SAPE   C2417352   5.253   0.381   7.109  0.2016 -0.2929  1.2510
  156SAPE   H4R17353   5.254   0.277   7.072 -0.6340  0.2031 -0.1904
  156SAPE   H4S17354   5.230   0.388   7.218 -1.6482 -2.4112  1.0274
  156SAPE   C2517355   5.389   0.435   7.069 -0.1182 -0.3735  0.0727
  156SAPE   H5R17356   5.425   0.418   6.967 -1.4651  2.0192 -0.8351
  156SAPE   C2617357   5.470   0.506   7.153  0.5400  0.1526 -0.2285
  156SAPE   H6R17358   5.563   0.536   7.102 -1.0364 -0.6190 -3.7145
  156SAPE   C2717359   5.443   0.541   7.300 -0.3096 -0.2379  0.4195
  156SAPE   H7R17360   5.354   0.486   7.337 -0.9108  1.0409  0.8996
  156SAPE   H7S17361   5.416   0.649   7.300  1.4627  0.2388 -1.2800
  156SAPE   C2817362   5.561   0.520   7.395 -0.3714  0.2137  0.3998
  156SAPE   H8R17363   5.655   0.492   7.344 -0.7475  0.3212 -0.3677
  156SAPE   C2917364   5.550   0.492   7.531 -0.1034 -0.4478 -1.6044
  156SAPE   H9R17365   5.639   0.462   7.587 -0.1723 -0.7701 -1.6697
  156SAPE  C21017366   5.413   0.505   7.600  0.4899 -0.3572 -0.5437
  156SAPE  H10R17367   5.377   0.400   7.614 -0.2288 -0.3401 -2.1016
  156SAPE  H10S17368   5.340   0.546   7.528 -1.7103 -2.2670  0.5371
  156SAPE  C21117369   5.430   0.589   7.726  0.4307  0.3463  0.1628
  156SAPE  H11R17370   5.410   0.695   7.707  1.0274  0.8695  2.3738
  156SAPE  C21217371   5.461   0.549   7.847 -0.1841  0.4749  0.3793
  156SAPE  H12R17372   5.446   0.620   7.930  1.4620  0.7527  0.4654
  156SAPE  C21317373   5.495   0.408   7.894  0.3940 -1.0499 -0.9486
  156SAPE  H13R17374   5.601   0.424   7.926  0.0896 -0.8623 -0.0076
  156SAPE  H13S17375   5.499   0.329   7.817 -1.8005 -2.4379  0.3425
  156SAPE  C21417376   5.391   0.365   8.001 -0.7294  0.6874 -0.1959
  156SAPE  H14R17377   5.292   0.345   7.956  0.7983  0.2015 -3.4979
  156SAPE  C21517378   5.418   0.324   8.130 -0.1470  0.3969  0.0495
  156SAPE  H15R17379   5.337   0.282   8.191  1.3523 -1.0218  1.1024
  156SAPE  C21617380   5.547   0.317   8.200 -0.4035 -0.0373  0.5338
  156SAPE  H16R17381   5.615   0.380   8.138  0.2940 -0.5699  0.7530
  156SAPE  H16S17382   5.587   0.213   8.199  1.8726  0.7950  0.6407
  156SAPE  C21717383   5.552   0.373   8.344  0.5088  0.6337 -0.2741
  156SAPE  H17R17384   5.479   0.319   8.409 -0.0127  0.4266 -1.0316
  156SAPE  H17S17385   5.530   0.482   8.343  0.2142  0.5693 -0.5848
  156SAPE  C21817386   5.687   0.350   8.406  0.0067 -0.7187  0.0346
  156SAPE  H18R17387   5.693   0.429   8.485 -1.5310  0.8503 -1.3834
  156SAPE  H18S17388   5.759   0.376   8.326 -0.2318 -2.3031 -0.7127
  156SAPE  C21917389   5.706   0.210   8.468  0.3818  0.0768 -0.0953
  156SAPE  H19R17390   5.688   0.131   8.392 -1.6103  0.5318 -0.1305
  156SAPE  H19S17391   5.620   0.195   8.538 -0.1744  0.4458 -0.6923
  156SAPE  C22017392   5.845   0.190   8.525  0.4031 -0.4470 -0.1298
  156SAPE  H20R17393   5.860   0.240   8.623 -1.9515  0.8003 -0.3468
  156SAPE  H20S17394   5.917   0.212   8.443 -1.0325  2.8134 -0.6011
  156SAPE  H20T17395   5.851   0.082   8.548  1.5746 -0.8890 -2.3639
  156SAPE   C3317396   4.722   0.759   7.145 -0.7267  0.4224 -0.4646
  156SAPE   H3X17397   4.614   0.771   7.121 -0.4781 -0.0550 -1.9286
  156SAPE   H3Y17398   4.786   0.836   7.097  0.0212  0.1982  0.1708
  156SAPE   C3417399   4.720   0.771   7.300  0.1125 -0.7319  0.4055
  156SAPE   H4X17400   4.828   0.787   7.319  1.0446 -2.1579 -3.2124
  156SAPE   H4Y17401   4.677   0.679   7.347 -1.8279 -0.2855 -0.4447
  156SAPE   C3517402   4.651   0.896   7.341  0.2991 -0.0068 -0.3567
  156SAPE   H5X17403   4.547   0.893   7.303  0.1335 -1.1768  0.1501
  156SAPE   H5Y17404   4.691   0.984   7.287 -1.4347  1.5120  0.7948
  156SAPE   C3617405   4.649   0.915   7.501 -0.0936  0.5036  0.3338
  156SAPE   H6X17406   4.569   0.991   7.520 -0.1176  1.4760 -3.2598
  156SAPE   H6Y17407   4.733   0.970   7.548 -0.0692  1.6205 -0.9701
  156SAPE   C3717408   4.619   0.783   7.570  0.5343 -0.4429 -0.1690
  156SAPE   H7X17409   4.704   0.712   7.571  0.8755 -0.0302  1.3552
  156SAPE   H7Y17410   4.547   0.735   7.500 -1.9295  4.4411 -1.2318
  156SAPE   C3817411   4.555   0.799   7.709 -0.2927  0.0803 -0.1207
  156SAPE   H8X17412   4.530   0.697   7.746  1.3691 -0.2412  0.1504
  156SAPE   H8Y17413   4.461   0.858   7.712  0.0953  0.7171 -0.5490
  156SAPE   C3917414   4.647   0.846   7.820 -0.0634 -0.3449 -0.3961
  156SAPE   H9X17415   4.717   0.930   7.801 -0.4962  0.2900  0.7609
  156SAPE   H9Y17416   4.714   0.759   7.838  0.8209  0.2919 -0.5552
  156SAPE  C31017417   4.567   0.870   7.945  0.6199 -0.4178 -0.3012
  156SAPE  H10X17418   4.515   0.776   7.974  1.6552 -0.7384  0.5656
  156SAPE  H10Y17419   4.481   0.939   7.935  0.1959 -0.8985 -0.0288
  156SAPE  C31117420   4.647   0.915   8.068  0.3973 -0.5140 -0.3984
  156SAPE  H11X17421   4.611   1.013   8.105  2.8018 -0.4642  1.9229
  156SAPE  H11Y17422   4.757   0.913   8.048  0.4653 -2.6298  0.1068
  156SAPE  C31217423   4.641   0.820   8.185  0.1968 -0.2341 -0.3397
  156SAPE  H12X17424   4.731   0.844   8.245 -1.5740  4.4505  0.6736
  156SAPE  H12Y17425   4.645   0.712   8.160  0.3428 -0.3414  0.1581
  156SAPE  C31317426   4.518   0.847   8.278 -0.4710  0.0774 -0.2472
  156SAPE  H13X17427   4.424   0.799   8.240 -1.4748  2.3801 -0.7290
  156SAPE  H13Y17428   4.500   0.956   8.288 -0.1697  0.0086  1.1597
  156SAPE  C31417429   4.533   0.781   8.416 -0.4350 -0.1813  0.1892
  156SAPE  H14X17430   4.633   0.802   8.459 -0.9952  0.5294  1.1604
  156SAPE  H14Y17431   4.522   0.671   8.402  2.1437 -0.2387 -1.7156
  156SAPE  C31517432   4.433   0.817   8.520  0.8051 -0.4453  0.1128
  156SAPE  H15X17433   4.338   0.774   8.482 -0.9675  3.0565  0.3694
  156SAPE  H15Y17434   4.414   0.926   8.533  2.0475 -0.3531  1.2728
  156SAPE  C31617435   4.465   0.766   8.665 -0.0498  0.0362 -0.4516
  156SAPE  H16X17436   4.552   0.819   8.709  0.1018 -0.9915  0.5178
  156SAPE  H16Y17437   4.484   0.657   8.657 -0.2989 -0.0922  0.5756
  156SAPE  C31717438   4.353   0.790   8.764  0.5211  1.0190 -0.2168
  156SAPE  H17X17439   4.312   0.892   8.751 -0.8438  0.4180 -0.6743
  156SAPE  H17Y17440   4.383   0.794   8.871 -1.1005 -1.8052  0.3972
  156SAPE  C31817441   4.232   0.696   8.738  0.9334  0.4663 -0.2429
  156SAPE  H18X17442   4.150   0.716   8.811  0.9710  0.5907 -0.2365
  156SAPE  H18Y17443   4.269   0.591   8.737 -3.2240 -1.1100 -3.5534
  156SAPE  H18Z17444   4.196   0.724   8.636  2.9673 -1.3881 -1.5001
  157SAPE     N17445   2.213   2.185   6.062 -1.0042  0.0018 -0.0902
  157SAPE   HN117446   2.217   2.240   6.150 -0.2645  0.2215 -0.2554
  157SAPE   HN217447   2.274   2.103   6.078  1.7585  2.1011  0.6967
  157SAPE   HN317448   2.245   2.230   5.973  0.3811 -0.7615  0.0121
  157SAPE   C1217449   2.075   2.136   6.021  0.3807 -0.1304 -0.1122
  157SAPE  H12A17450   2.085   2.081   5.925 -0.7602 -0.2332 -0.1784
  157SAPE  H12B17451   2.025   2.233   6.002  1.2874 -0.0903 -2.3754
  157SAPE   C1117452   1.997   2.063   6.132  0.6431  0.4539 -0.3388
  157SAPE  H11A17453   1.901   2.023   6.092  0.8877 -0.9115  0.3886
  157SAPE  H11B17454   1.967   2.129   6.216 -2.2482 -0.2777 -0.7546
  157SAPE     P17455   2.057   1.862   6.291  0.1254  0.0557 -0.0612
  157SAPE   O1317456   1.935   1.786   6.274 -0.3710 -0.2680  0.0221
  157SAPE   O1417457   2.182   1.794   6.330  0.1353  0.4444  0.9571
  157SAPE   O1217458   2.073   1.955   6.166  0.0084  0.8936 -0.2380
  157SAPE   O1117459   2.018   1.971   6.399 -0.3353 -0.0060  0.6638
  157SAPE    C117460   2.106   2.080   6.431  0.0936 -0.8453  0.3752
  157SAPE    HA17461   2.198   2.092   6.370 -1.9327 -1.1572 -2.8955
  157SAPE    HB17462   2.045   2.173   6.418 -0.8159 -1.3415  1.0493
  157SAPE    C217463   2.137   2.093   6.586 -0.1288  0.4571  0.6730
  157SAPE    HS17464   2.218   2.167   6.601  1.1311 -0.6416 -0.5470
  157SAPE   O2117465   2.181   1.966   6.643  0.1640  0.2391  0.2271
  157SAPE   C2117466   2.309   1.934   6.624  1.1746 -0.1633 -0.7151
  157SAPE   O2217467   2.398   2.000   6.573  0.2031  0.3264 -0.0999
  157SAPE   C2217468   2.328   1.790   6.673 -0.6695  0.4911  0.3144
  157SAPE   H2R17469   2.257   1.774   6.757  1.5487  0.9591  2.3492
  157SAPE   H2S17470   2.307   1.725   6.585 -2.2130 -0.7309  1.5471
  157SAPE    C317471   2.016   2.159   6.649  0.3457  0.8208 -0.3608
  157SAPE    HX17472   1.922   2.105   6.626 -0.2899  1.3373  0.9528
  157SAPE    HY17473   2.011   2.265   6.617 -3.0246  1.1902  1.1488
  157SAPE   O3117474   2.033   2.165   6.795  0.4572 -0.1416  0.4061
  157SAPE   C3117475   2.007   2.050   6.849  0.7428 -0.1636  0.3175
  157SAPE   O3217476   1.959   1.953   6.790 -0.2488  0.2402 -0.5158
  157SAPE   C3217477   2.012   2.066   7.000 -0.1367  0.1372 -0.0824
  157SAPE   H2X17478   2.007   2.175   7.023  0.0450 -0.1789  1.5287
  157SAPE   H2Y17479   2.110   2.020   7.026 -0.0439  0.1804 -0.3530
  157SAPE   C2317480   2.476   1.744   6.714  0.0116 -0.6406  0.3281
  157SAPE   H3R17481   2.560   1.810   6.685  0.1302  0.4987  3.1378
  157SAPE   H3S17482   2.494   1.648   6.661 -1.4628 -0.2098 -1.0028
  157SAPE   C2417483   2.503   1.735   6.873  0.2939 -0.0595 -0.1656
  157SAPE   H4R17484   2.488   1.840   6.907  1.2129 -0.1242  0.4840
  157SAPE   H4S17485   2.609   1.705   6.891  1.2037  1.6222 -2.4742
  157SAPE   C2517486   2.402   1.633   6.937  0.0502 -0.1801  0.3062
  157SAPE   H5R17487   2.415   1.526   6.916 -0.2527  0.1436 -1.6019
  157SAPE   C2617488   2.297   1.662   7.019  0.4343 -0.1470  0.2412
  157SAPE   H6R17489   2.254   1.579   7.078  1.0588 -1.1195 -0.6496
  157SAPE   C2717490   2.253   1.799   7.068 -0.0705 -0.0930 -0.4802
  157SAPE   H7R17491   2.146   1.804   7.097 -0.4366  0.7601 -1.9395
  157SAPE   H7S17492   2.259   1.870   6.983 -0.5674 -0.1338 -0.5477
  157SAPE   C2817493   2.327   1.818   7.202  0.7704  0.1116 -0.4574
  157SAPE   H8R17494   2.427   1.862   7.193 -0.0462  1.8997 -1.0063
  157SAPE   C2917495   2.290   1.765   7.316  0.2206 -0.5276  0.0243
  157SAPE   H9R17496   2.336   1.801   7.409 -1.0788 -0.5839  0.6975
  157SAPE  C21017497   2.172   1.688   7.351 -0.3403  0.8836  0.4346
  157SAPE  H10R17498   2.209   1.593   7.395  3.0496  1.3352 -1.2407
  157SAPE  H10S17499   2.115   1.654   7.262 -0.8961  2.1069  0.3231
  157SAPE  C21117500   2.071   1.743   7.456  0.6258  0.0527  0.4354
  157SAPE  H11R17501   1.969   1.775   7.433  0.1566 -0.4293  1.7908
  157SAPE  C21217502   2.093   1.743   7.589  0.4467  0.4981 -0.9699
  157SAPE  H12R17503   2.005   1.770   7.648  3.0292  0.6300  3.0336
  157SAPE  C21317504   2.210   1.711   7.666  0.3220  0.8742 -0.6654
  157SAPE  H13R17505   2.301   1.702   7.603  1.3909  0.1418  0.9747
  157SAPE  H13S17506   2.196   1.619   7.726  1.0764  1.8590  1.0622
  157SAPE  C21417507   2.247   1.824   7.759  0.2667  0.1945 -0.0360
  157SAPE  H14R17508   2.263   1.919   7.706 -0.5380 -1.1264 -2.7469
  157SAPE  C21517509   2.238   1.839   7.892  0.0408  0.0067  0.5594
  157SAPE  H15R17510   2.272   1.930   7.944 -2.4162  2.1597 -1.4831
  157SAPE  C21617511   2.183   1.739   7.993  0.3717 -0.1140  0.9520
  157SAPE  H16R17512   2.269   1.694   8.047  1.4515  0.9359  0.1582
  157SAPE  H16S17513   2.135   1.655   7.939 -1.5700  1.9280 -0.6077
  157SAPE  C21717514   2.079   1.798   8.080  0.1428  0.0921  0.0610
  157SAPE  H17R17515   2.056   1.715   8.150  1.2423  1.4400  2.0587
  157SAPE  H17S17516   1.986   1.817   8.022  0.9279 -0.5813 -1.4552
  157SAPE  C21817517   2.117   1.929   8.161 -0.1244  0.1993  0.0490
  157SAPE  H18R17518   2.134   2.013   8.091 -3.1835  2.1543  1.5846
  157SAPE  H18S17519   2.217   1.895   8.197 -0.2269 -1.3108 -1.0303
  157SAPE  C21917520   2.036   1.958   8.287 -0.0857  0.0719 -0.9022
  157SAPE  H19R17521   2.093   2.014   8.364 -0.3738  0.0487 -0.6701
  157SAPE  H19S17522   2.005   1.861   8.332  1.0948 -0.1464 -0.5267
  157SAPE  C22017523   1.909   2.036   8.261 -0.1974  0.3226 -0.5817
  157SAPE  H20R17524   1.927   2.145   8.257 -0.4611  0.3944  0.0471
  157SAPE  H20S17525   1.840   2.023   8.347  1.5895 -1.8692  0.5620
  157SAPE  H20T17526   1.866   2.016   8.161 -1.2294 -1.8177  0.2372
  157SAPE   C3317527   1.906   1.978   7.072  0.1910  0.0313  0.2224
  157SAPE   H3X17528   1.937   1.872   7.057  0.9787  0.3207 -0.2559
  157SAPE   H3Y17529   1.805   1.985   7.026  1.2145 -1.4375 -2.3981
  157SAPE   C3417530   1.910   2.025   7.219  0.3720  0.2625 -0.0846
  157SAPE   H4X17531   1.923   2.134   7.233 -1.6208  0.4593  0.2850
  157SAPE   H4Y17532   2.000   1.975   7.261 -0.7810  0.1409  2.2927
  157SAPE   C3517533   1.794   1.965   7.304 -0.1333 -0.2446 -0.5500
  157SAPE   H5X17534   1.803   1.855   7.310  0.3457 -0.1577  0.4699
  157SAPE   H5Y17535   1.697   1.995   7.259 -0.8290  0.5386  1.3794
  157SAPE   C3617536   1.789   2.005   7.458 -0.5331  0.3472 -0.2425
  157SAPE   H6X17537   1.781   2.115   7.465  1.8932  0.4727  1.0943
  157SAPE   H6Y17538   1.887   1.971   7.498  0.6691  2.6875 -1.1199
  157SAPE   C3717539   1.677   1.936   7.535 -0.1553 -0.2848 -0.3102
  157SAPE   H7X17540   1.672   1.825   7.523 -1.2676 -0.2609 -0.1826
  157SAPE   H7Y17541   1.592   1.975   7.474 -0.7716 -1.2386 -0.0876
  157SAPE   C3817542   1.657   1.965   7.684  0.2334 -0.4995 -0.4133
  157SAPE   H8X17543   1.748   1.934   7.739 -0.5621 -2.7931 -0.3456
  157SAPE   H8Y17544   1.570   1.910   7.726  0.0992  1.4128  1.9093
  157SAPE   C3917545   1.634   2.116   7.713 -1.0366 -0.6195  0.5091
  157SAPE   H9X17546   1.577   2.162   7.630  0.8854 -0.0728 -0.5300
  157SAPE   H9Y17547   1.731   2.169   7.726  0.0459 -2.3626 -0.3562
  157SAPE  C31017548   1.564   2.147   7.846  0.2108 -0.6324 -0.4866
  157SAPE  H10X17549   1.472   2.084   7.849  0.0013 -0.2694  1.3297
  157SAPE  H10Y17550   1.517   2.245   7.864 -0.8351 -1.4417  1.3299
  157SAPE  C31117551   1.646   2.131   7.978  0.2128  0.1342  0.2489
  157SAPE  H11X17552   1.734   2.198   7.977  1.1339 -1.0219  1.6471
  157SAPE  H11Y17553   1.687   2.028   7.992  0.9048  0.1764 -1.3601
  157SAPE  C31217554   1.541   2.143   8.099  0.0466  0.3676 -0.2957
  157SAPE  H12X17555   1.572   2.077   8.182 -1.9203  0.4270  0.5161
  157SAPE  H12Y17556   1.443   2.101   8.066 -0.1876  1.7285 -1.3758
  157SAPE  C31317557   1.523   2.280   8.160  0.7257 -0.3538 -0.7800
  157SAPE  H13X17558   1.445   2.262   8.237  1.6099 -2.4792 -0.3600
  157SAPE  H13Y17559   1.497   2.354   8.082  0.9459  0.9668  0.3751
  157SAPE  C31417560   1.649   2.328   8.224 -0.3836 -0.2582 -0.0191
  157SAPE  H14X17561   1.738   2.327   8.159  0.0802 -2.9965  0.6251
  157SAPE  H14Y17562   1.677   2.274   8.317 -1.3344 -1.7937 -0.6130
  157SAPE  C31517563   1.643   2.481   8.235  0.3494  0.0959  0.5726
  157SAPE  H15X17564   1.625   2.532   8.138  1.2269 -0.1549  0.2733
  157SAPE  H15Y17565   1.743   2.504   8.277  1.2009 -0.3027 -1.1705
  157SAPE  C31617566   1.526   2.521   8.330  0.1648 -0.3005  0.0487
  157SAPE  H16X17567   1.541   2.476   8.431  0.9724  0.0094  0.0646
  157SAPE  H16Y17568   1.434   2.477   8.284  0.6040 -1.9380  0.7012
  157SAPE  C31717569   1.495   2.675   8.338 -0.6701  0.2057  0.2254
  157SAPE  H17X17570   1.424   2.688   8.423  0.6546  1.2609  1.1819
  157SAPE  H17Y17571   1.455   2.718   8.244 -2.4959 -0.5514  0.6421
  157SAPE  C31817572   1.610   2.742   8.386 -0.0834  0.1915 -0.1626
  157SAPE  H18X17573   1.655   2.690   8.473  1.1243 -0.5785 -1.2301
  157SAPE  H18Y17574   1.590   2.847   8.414  3.4277  0.9290 -0.2809
  157SAPE  H18Z17575   1.686   2.749   8.305 -0.4160  2.0652 -0.3292
  158SAPE     N17576   3.978   6.353   6.263  0.0643 -0.5990  0.0210
  158SAPE   HN117577   4.009   6.257   6.239 -0.0861 -0.5423 -0.4006
  158SAPE   HN217578   3.937   6.381   6.172 -0.3985 -0.2074  0.3462
  158SAPE   HN317579   4.059   6.415   6.287 -1.2534  0.8994  0.7442
  158SAPE   C1217580   3.857   6.347   6.353  0.4636 -0.6271  0.3588
  158SAPE  H12A17581   3.851   6.254   6.414  1.0684  1.5594  3.8760
  158SAPE  H12B17582   3.761   6.352   6.297 -0.2842 -1.7381  1.5070
  158SAPE   C1117583   3.873   6.466   6.452  0.4698  0.6341 -0.0130
  158SAPE  H11A17584   3.950   6.466   6.531 -0.2392  0.2330  0.6903
  158SAPE  H11B17585   3.773   6.488   6.497 -1.1793 -1.3937 -2.5464
  158SAPE     P17586   3.817   6.687   6.316  0.0260  0.6980  0.0564
  158SAPE   O1317587   3.890   6.777   6.223 -0.0921  0.2677  0.5705
  158SAPE   O1417588   3.707   6.604   6.264 -0.0728 -0.1049  0.7617
  158SAPE   O1217589   3.916   6.587   6.381 -0.2682 -0.5487  0.1739
  158SAPE   O1117590   3.775   6.758   6.445 -0.0275  0.7983  0.4724
  158SAPE    C117591   3.848   6.864   6.519  0.3565 -0.1990  0.0318
  158SAPE    HA17592   3.908   6.924   6.448  2.0255  0.3033  1.8362
  158SAPE    HB17593   3.776   6.932   6.569 -1.0787 -0.4760 -1.5870
  158SAPE    C217594   3.936   6.801   6.627 -0.2889 -0.1420 -0.4000
  158SAPE    HS17595   4.000   6.730   6.570 -0.1530 -2.2287  2.2746
  158SAPE   O2117596   3.850   6.729   6.711 -0.1341 -0.1093  0.1978
  158SAPE   C2117597   3.892   6.650   6.801 -0.4281 -0.2665 -1.1242
  158SAPE   O2217598   4.007   6.611   6.818 -0.4273  0.0151  0.2233
  158SAPE   C2217599   3.765   6.605   6.883 -0.1930 -0.5807 -0.5705
  158SAPE   H2R17600   3.700   6.694   6.896  1.3724  0.6075 -0.7228
  158SAPE   H2S17601   3.715   6.528   6.820  1.1451 -1.8836 -0.0666
  158SAPE    C317602   4.026   6.905   6.701  0.3921  0.6755 -0.6597
  158SAPE    HX17603   4.101   6.950   6.633  1.1432  3.2573  1.8102
  158SAPE    HY17604   4.095   6.850   6.768  0.7971  1.9630 -0.0094
  158SAPE   O3117605   3.948   7.009   6.761 -0.4040  0.4338 -0.4155
  158SAPE   C3117606   3.901   6.995   6.886 -0.5797  0.4976 -0.7727
  158SAPE   O3217607   3.915   6.894   6.952  0.1779  0.5688 -0.2098
  158SAPE   C3217608   3.820   7.115   6.916  0.6078 -0.4681 -0.2286
  158SAPE   H2X17609   3.714   7.081   6.918  0.4529  0.0279  0.8839
  158SAPE   H2Y17610   3.834   7.179   6.827  2.1906 -0.7222 -0.1646
  158SAPE   C2317611   3.804   6.523   7.006  0.5212  0.2754  0.0927
  158SAPE   H3R17612   3.870   6.447   6.961 -0.1074  0.5130 -1.2541
  158SAPE   H3S17613   3.714   6.470   7.043 -0.2363 -0.5707 -2.8861
  158SAPE   C2417614   3.876   6.612   7.114 -0.0299 -0.0506  0.4700
  158SAPE   H4R17615   3.965   6.666   7.076 -1.2457  1.3850 -0.4261
  158SAPE   H4S17616   3.907   6.543   7.195  1.5665 -1.8727 -1.6523
  158SAPE   C2517617   3.774   6.716   7.162 -0.1782  0.3616 -0.7283
  158SAPE   H5R17618   3.724   6.779   7.086 -0.2670  0.9480 -0.1836
  158SAPE   C2617619   3.723   6.732   7.285 -0.0890 -0.1316 -0.3822
  158SAPE   H6R17620   3.646   6.809   7.299 -0.0982 -0.5248  1.8156
  158SAPE   C2717621   3.752   6.660   7.411 -0.0622 -0.5320  0.2083
  158SAPE   H7R17622   3.782   6.554   7.394  2.6344  0.4447 -1.4470
  158SAPE   H7S17623   3.659   6.658   7.472  0.2058  0.3958  0.6595
  158SAPE   C2817624   3.864   6.720   7.486  0.6234 -0.0571 -0.7312
  158SAPE   H8R17625   3.945   6.770   7.431 -0.3558  1.6781 -0.6410
  158SAPE   C2917626   3.872   6.728   7.615 -0.7819 -0.2007 -0.6701
  158SAPE   H9R17627   3.966   6.759   7.663 -0.1200 -0.8123 -1.5597
  158SAPE  C21017628   3.780   6.669   7.718 -0.1717 -0.2293  0.5159
  158SAPE  H10R17629   3.694   6.739   7.720 -0.9270 -1.0437 -2.2617
  158SAPE  H10S17630   3.824   6.679   7.820 -2.1600  2.4118  1.1719
  158SAPE  C21117631   3.732   6.529   7.706 -0.3975  0.0549  0.2345
  158SAPE  H11R17632   3.731   6.500   7.600 -2.5686 -1.0187  0.5225
  158SAPE  C21217633   3.707   6.437   7.803 -0.5858  0.0567  0.4057
  158SAPE  H12R17634   3.660   6.342   7.774  1.0549 -0.5545 -0.2917
  158SAPE  C21317635   3.725   6.472   7.944 -0.2252 -0.5574 -0.0834
  158SAPE  H13R17636   3.667   6.563   7.971 -0.1687 -0.2808 -0.8844
  158SAPE  H13S17637   3.833   6.490   7.965 -0.3441  1.4365 -1.0564
  158SAPE  C21417638   3.673   6.364   8.039 -0.1406 -0.0192  0.1408
  158SAPE  H14R17639   3.601   6.302   7.983 -1.2999  1.9055 -0.5793
  158SAPE  C21517640   3.703   6.334   8.164 -0.0800 -0.7256 -0.2468
  158SAPE  H15R17641   3.646   6.252   8.209  0.2652  0.8680  3.2641
  158SAPE  C21617642   3.797   6.396   8.262  0.0105 -0.8355  0.2275
  158SAPE  H16R17643   3.748   6.424   8.357 -2.8807 -0.7751 -1.1995
  158SAPE  H16S17644   3.840   6.495   8.235 -1.3692 -0.1000  0.6649
  158SAPE  C21717645   3.927   6.301   8.288  0.0414  0.1873  0.3295
  158SAPE  H17R17646   3.951   6.256   8.190  0.6009  0.7848  0.1886
  158SAPE  H17S17647   3.887   6.220   8.353 -1.0277  0.5985  0.1982
  158SAPE  C21817648   4.038   6.371   8.361 -0.3189  0.4576 -0.4383
  158SAPE  H18R17649   3.996   6.405   8.458 -0.6067 -0.7193 -0.1344
  158SAPE  H18S17650   4.077   6.458   8.305 -0.1505  1.2357  0.8649
  158SAPE  C21917651   4.155   6.276   8.390 -0.0296  0.3643 -0.3510
  158SAPE  H19R17652   4.119   6.189   8.449  0.3979 -0.6387 -1.5330
  158SAPE  H19S17653   4.219   6.331   8.462 -0.4260 -1.4233  1.4079
  158SAPE  C22017654   4.245   6.218   8.276 -0.4071 -0.4644  0.1751
  158SAPE  H20R17655   4.280   6.293   8.202  0.8573 -1.2626 -0.0619
  158SAPE  H20S17656   4.193   6.128   8.236 -3.4115  0.2463  2.3466
  158SAPE  H20T17657   4.339   6.183   8.324 -0.5627  0.5044  1.1876
  158SAPE   C3317658   3.844   7.187   7.051  0.1050  0.5150  0.3639
  158SAPE   H3X17659   3.808   7.292   7.041  0.6670  0.8047  1.3155
  158SAPE   H3Y17660   3.954   7.182   7.062  0.2032 -0.3977 -0.9818
  158SAPE   C3417661   3.791   7.125   7.179 -0.8907  0.1151  0.1167
  158SAPE   H4X17662   3.852   7.038   7.210  2.5529  1.4973 -2.5069
  158SAPE   H4Y17663   3.687   7.088   7.169 -0.7920 -1.0230  3.0185
  158SAPE   C3517664   3.813   7.231   7.293  0.2559  0.3354  0.3277
  158SAPE   H5X17665   3.764   7.327   7.265  0.8080  0.3211 -0.7310
  158SAPE   H5Y17666   3.920   7.261   7.301  0.3524  0.0485  0.1040
  158SAPE   C3617667   3.776   7.182   7.436 -1.0475  0.9953 -0.1684
  158SAPE   H6X17668   3.798   7.074   7.450 -2.6576  0.9600  2.2963
  158SAPE   H6Y17669   3.666   7.194   7.448 -1.1664 -1.4867  1.6271
  158SAPE   C3717670   3.842   7.261   7.555  0.1330 -0.1087  0.1741
  158SAPE   H7X17671   3.952   7.245   7.549  0.3150 -0.7349  3.9813
  158SAPE   H7Y17672   3.827   7.370   7.541  1.5894  0.1521  0.5456
  158SAPE   C3817673   3.792   7.227   7.699 -0.9024  0.3456 -0.0738
  158SAPE   H8X17674   3.819   7.119   7.705 -1.9250  0.1074  0.3408
  158SAPE   H8Y17675   3.683   7.247   7.710 -0.6346  1.3048  0.9621
  158SAPE   C3917676   3.877   7.293   7.805  0.7116 -0.5115 -0.2749
  158SAPE   H9X17677   3.884   7.399   7.773 -1.1622 -0.2119  0.2654
  158SAPE   H9Y17678   3.982   7.256   7.808  0.8820  0.0829  1.3111
  158SAPE  C31017679   3.824   7.283   7.957 -0.2894 -0.4711  0.6633
  158SAPE  H10X17680   3.829   7.182   8.004 -0.3865 -0.8866 -0.2075
  158SAPE  H10Y17681   3.721   7.325   7.945 -0.2802 -1.2010 -2.3685
  158SAPE  C31117682   3.899   7.372   8.049 -0.0989 -0.3544 -0.8219
  158SAPE  H11X17683   3.827   7.442   8.096  2.0440  2.2916 -1.3963
  158SAPE  H11Y17684   3.966   7.448   8.003  0.7177 -1.1518 -0.9684
  158SAPE  C31217685   3.988   7.299   8.160  0.4850 -0.1351 -0.3604
  158SAPE  H12X17686   4.083   7.265   8.115 -0.8986 -1.5390 -2.3310
  158SAPE  H12Y17687   3.926   7.210   8.184  0.3805 -0.1522 -0.6883
  158SAPE  C31317688   4.018   7.393   8.281 -0.0896 -0.5887  0.1839
  158SAPE  H13X17689   4.073   7.478   8.235  0.1047 -0.6328  0.3321
  158SAPE  H13Y17690   4.085   7.335   8.349  2.2208  1.2887 -0.4108
  158SAPE  C31417691   3.901   7.456   8.359  1.0080 -0.2449 -0.5407
  158SAPE  H14X17692   3.828   7.372   8.360 -0.7540  1.2624 -0.8777
  158SAPE  H14Y17693   3.851   7.525   8.288 -0.3722 -1.5628 -0.8888
  158SAPE  C31517694   3.921   7.516   8.498 -0.4554  0.2481 -0.0658
  158SAPE  H15X17695   4.004   7.590   8.491  0.1734 -0.3874  0.5482
  158SAPE  H15Y17696   3.953   7.443   8.576  1.6360  1.2402  0.0362
  158SAPE  C31617697   3.812   7.600   8.559  0.5627 -0.0860  0.6266
  158SAPE  H16X17698   3.726   7.530   8.569 -1.3774  2.1439 -0.0712
  158SAPE  H16Y17699   3.780   7.680   8.489 -0.2313 -0.4414  0.5859
  158SAPE  C31717700   3.850   7.654   8.699  0.2674 -0.6240 -0.0554
  158SAPE  H17X17701   3.949   7.704   8.700  1.2858 -2.5751  0.3432
  158SAPE  H17Y17702   3.855   7.566   8.767 -1.7408 -0.0276  0.8838
  158SAPE  C31817703   3.753   7.769   8.755 -0.5946  0.2198  0.5325
  158SAPE  H18X17704   3.644   7.752   8.748 -0.7999  1.5522  0.3381
  158SAPE  H18Y17705   3.761   7.861   8.693 -2.2827 -0.3007 -0.4867
  158SAPE  H18Z17706   3.778   7.797   8.860  0.1747 -0.5693  0.5669
  159SAPE     N17707   3.589   3.043   6.074  0.3679  0.1228 -0.3433
  159SAPE   HN117708   3.657   3.029   5.997  1.5961  0.2333  0.7010
  159SAPE   HN217709   3.526   3.114   6.033  0.6329 -0.7834 -2.3524
  159SAPE   HN317710   3.630   3.086   6.160  0.0035 -0.4583  0.1304
  159SAPE   C1217711   3.507   2.923   6.104 -0.4053 -1.0352 -0.0868
  159SAPE  H12A17712   3.579   2.858   6.158  1.3417  1.3483  0.5527
  159SAPE  H12B17713   3.489   2.872   6.007  1.7632 -0.8133 -0.6276
  159SAPE   C1117714   3.374   2.963   6.172 -0.2855 -0.2668 -0.2682
  159SAPE  H11A17715   3.421   3.001   6.265 -1.7379 -2.2012  1.2964
  159SAPE  H11B17716   3.313   2.878   6.206 -0.8343 -0.2398 -1.1609
  159SAPE     P17717   3.169   3.034   6.018  0.0761  0.5344 -0.1539
  159SAPE   O1317718   3.120   3.154   5.942 -0.3540 -0.1904  0.1808
  159SAPE   O1417719   3.208   2.925   5.924 -0.0782 -0.0723 -0.4414
  159SAPE   O1217720   3.293   3.065   6.107 -0.2698 -0.0503  0.5869
  159SAPE   O1117721   3.053   2.986   6.117  0.5447  0.0310 -0.7177
  159SAPE    C117722   3.005   3.063   6.231 -0.0074  0.9450 -0.2839
  159SAPE    HA17723   3.001   3.173   6.213 -0.2963  1.0599  0.4544
  159SAPE    HB17724   2.903   3.030   6.258  0.3673 -1.4854 -1.7113
  159SAPE    C217725   3.079   3.024   6.361  0.1602 -0.4667  0.3199
  159SAPE    HS17726   3.166   3.093   6.368 -0.3596  0.1539  0.6870
  159SAPE   O2117727   3.127   2.892   6.374  0.4853  0.0528 -0.8306
  159SAPE   C2117728   3.050   2.790   6.347 -0.3890 -0.1996  0.3629
  159SAPE   O2217729   2.931   2.778   6.343  0.5464 -0.1786  0.1386
  159SAPE   C2217730   3.141   2.673   6.337  0.7910 -0.1072 -0.2028
  159SAPE   H2R17731   3.181   2.686   6.234 -1.6523 -1.1793 -1.3321
  159SAPE   H2S17732   3.224   2.690   6.409  0.6280 -0.3659  0.0460
  159SAPE    C317733   2.987   3.060   6.488 -0.2479  0.5564  0.6689
  159SAPE    HX17734   2.904   2.986   6.489 -1.1358  1.5295  0.7688
  159SAPE    HY17735   2.950   3.164   6.480  0.3823  0.5770 -2.3314
  159SAPE   O3117736   3.059   3.035   6.608  0.4346 -0.1111 -0.8085
  159SAPE   C3117737   3.135   3.135   6.653 -0.4539 -0.1074  0.3645
  159SAPE   O3217738   3.141   3.245   6.606 -0.5021  0.1585  0.0223
  159SAPE   C3217739   3.221   3.087   6.765 -0.1111  0.5367 -0.2780
  159SAPE   H2X17740   3.245   2.979   6.752 -2.5819  0.0772 -1.3704
  159SAPE   H2Y17741   3.152   3.086   6.852 -0.7786  1.5900 -0.7904
  159SAPE   C2317742   3.075   2.536   6.360  0.4044  0.4030  1.5257
  159SAPE   H3R17743   3.146   2.455   6.336 -1.2130 -0.1631 -1.7206
  159SAPE   H3S17744   2.986   2.515   6.297 -0.0458  1.6063  1.7465
  159SAPE   C2417745   3.022   2.500   6.502 -0.0184  0.0154 -0.0014
  159SAPE   H4R17746   2.971   2.402   6.494  0.4127 -0.0767 -1.8901
  159SAPE   H4S17747   2.949   2.580   6.527  1.9885  1.8174  0.3108
  159SAPE   C2517748   3.133   2.505   6.603  0.1473  0.0466  0.0462
  159SAPE   H5R17749   3.235   2.496   6.563 -0.9904 -0.2970 -2.9282
  159SAPE   C2617750   3.106   2.528   6.735 -0.1491  0.0693 -0.4746
  159SAPE   H6R17751   3.184   2.539   6.811 -0.5937 -1.2660  0.1835
  159SAPE   C2717752   2.977   2.555   6.800  0.0042 -0.0004 -0.0714
  159SAPE   H7R17753   2.983   2.490   6.889 -1.1433  0.2626  0.2133
  159SAPE   H7S17754   2.893   2.515   6.739 -1.5134  1.4268  1.0151
  159SAPE   C2817755   2.957   2.702   6.843  0.4446 -0.2204 -0.1679
  159SAPE   H8R17756   2.938   2.764   6.754 -1.2832  0.5782  0.7377
  159SAPE   C2917757   2.971   2.764   6.962  0.6286  0.9507  0.7712
  159SAPE   H9R17758   2.938   2.868   6.969  2.0726  1.4300  0.5379
  159SAPE  C21017759   3.019   2.705   7.094 -0.1784  0.1849 -0.7775
  159SAPE  H10R17760   2.989   2.599   7.110 -1.0345  0.0845 -2.9262
  159SAPE  H10S17761   2.973   2.753   7.183  2.6621 -0.1851  0.9348
  159SAPE  C21117762   3.170   2.736   7.098  0.2194 -0.3536  0.3951
  159SAPE  H11R17763   3.209   2.729   6.996  1.5927 -1.6832  0.9779
  159SAPE  C21217764   3.243   2.754   7.204 -0.5101 -0.1398  0.3855
  159SAPE  H12R17765   3.351   2.761   7.188 -0.5161 -0.2502  0.2968
  159SAPE  C21317766   3.197   2.764   7.347  0.0439  0.1551  0.3933
  159SAPE  H13R17767   3.088   2.746   7.359 -0.1627  0.1396 -1.4159
  159SAPE  H13S17768   3.208   2.871   7.374  1.3102  1.1793 -3.9306
  159SAPE  C21417769   3.281   2.685   7.443  0.6504 -0.6612  0.4680
  159SAPE  H14R17770   3.387   2.665   7.419  0.2435  0.4654 -2.4060
  159SAPE  C21517771   3.238   2.648   7.556  0.3224 -0.2536 -0.2292
  159SAPE  H15R17772   3.310   2.611   7.630  1.1025 -0.0596 -0.8769
  159SAPE  C21617773   3.099   2.669   7.607  0.6432  0.0126  0.1173
  159SAPE  H16R17774   3.044   2.750   7.554  0.2650 -0.8684 -0.8630
  159SAPE  H16S17775   3.098   2.700   7.713 -1.0784  4.2066 -1.0121
  159SAPE  C21717776   3.010   2.543   7.614 -0.7398 -0.4164  0.3041
  159SAPE  H17R17777   3.061   2.465   7.674  2.8282  1.5525 -0.0351
  159SAPE  H17S17778   3.014   2.486   7.519  0.3811 -0.3465  0.3077
  159SAPE  C21817779   2.865   2.572   7.664  0.3728  0.4751  0.4232
  159SAPE  H18R17780   2.810   2.641   7.596 -0.6502 -0.7624 -0.0242
  159SAPE  H18S17781   2.881   2.622   7.762 -2.0241  0.6222  0.7639
  159SAPE  C21917782   2.777   2.446   7.681 -0.2861  0.9231  0.1685
  159SAPE  H19R17783   2.771   2.386   7.588  0.4123  1.3280 -0.1372
  159SAPE  H19S17784   2.675   2.487   7.696 -0.4265  0.1807  1.3783
  159SAPE  C22017785   2.817   2.374   7.796 -0.5831  0.3957  0.2382
  159SAPE  H20R17786   2.804   2.444   7.882 -0.4157 -0.4639  0.9673
  159SAPE  H20S17787   2.921   2.335   7.792 -0.9323 -0.3542 -2.5036
  159SAPE  H20T17788   2.754   2.285   7.814 -0.5147 -0.0881 -1.7918
  159SAPE   C3317789   3.349   3.169   6.793 -0.1215  0.3521 -0.4855
  159SAPE   H3X17790   3.324   3.277   6.798  1.7808  0.8381 -0.7821
  159SAPE   H3Y17791   3.419   3.158   6.707  1.7672  0.0969  1.0516
  159SAPE   C3417792   3.410   3.133   6.930 -0.2244 -0.3115  0.3193
  159SAPE   H4X17793   3.345   3.154   7.017  2.2435  1.8018  1.7042
  159SAPE   H4Y17794   3.487   3.211   6.947 -0.5564 -0.1709  1.2162
  159SAPE   C3517795   3.488   3.002   6.941 -0.2238  0.4542 -0.3240
  159SAPE   H5X17796   3.574   3.003   6.869 -0.5923  2.4378 -0.7804
  159SAPE   H5Y17797   3.425   2.911   6.931 -2.7686  2.2278 -0.9272
  159SAPE   C3617798   3.552   2.984   7.078  0.2734 -0.2234  0.9485
  159SAPE   H6X17799   3.486   3.016   7.161 -1.5336  1.4882 -1.1094
  159SAPE   H6Y17800   3.636   3.057   7.078  0.1410 -0.0567  2.0069
  159SAPE   C3717801   3.609   2.844   7.102 -0.2680  0.1749  0.0968
  159SAPE   H7X17802   3.657   2.801   7.011 -2.0337 -1.1874 -0.2444
  159SAPE   H7Y17803   3.536   2.764   7.129  1.4531 -0.9773  1.4515
  159SAPE   C3817804   3.714   2.846   7.220 -0.1915  0.4937  0.1048
  159SAPE   H8X17805   3.783   2.933   7.221  0.6291 -0.1668  1.2278
  159SAPE   H8Y17806   3.777   2.755   7.211 -0.2626  0.5591 -1.2179
  159SAPE   C3917807   3.650   2.814   7.352 -0.0813  0.1031 -0.0901
  159SAPE   H9X17808   3.585   2.724   7.356 -1.3544  0.9743 -0.7995
  159SAPE   H9Y17809   3.581   2.899   7.373 -0.7580 -0.1567 -1.2408
  159SAPE  C31017810   3.741   2.797   7.471  0.0046 -0.2547  0.0307
  159SAPE  H10X17811   3.778   2.898   7.498 -0.0876 -0.6156  1.5606
  159SAPE  H10Y17812   3.837   2.746   7.451  0.2164  0.0858  0.1806
  159SAPE  C31117813   3.683   2.738   7.602  0.3142  0.3189  0.1018
  159SAPE  H11X17814   3.644   2.636   7.578  1.6013 -0.2588  0.4056
  159SAPE  H11Y17815   3.600   2.797   7.646 -0.4931 -1.9723  1.7880
  159SAPE  C31217816   3.794   2.707   7.702  0.0306  0.1973 -0.5061
  159SAPE  H12X17817   3.859   2.625   7.664 -0.8541 -1.1011  0.7352
  159SAPE  H12Y17818   3.754   2.666   7.797  0.6338 -2.2109 -1.2580
  159SAPE  C31317819   3.876   2.828   7.722 -0.4378  0.7850 -0.0329
  159SAPE  H13X17820   3.818   2.920   7.745  0.8267  1.6877 -0.3806
  159SAPE  H13Y17821   3.940   2.837   7.631 -1.2454 -1.3288 -0.8301
  159SAPE  C31417822   3.973   2.795   7.841 -0.1495  0.0079  0.3048
  159SAPE  H14X17823   4.039   2.712   7.809  1.7228  0.3672  3.1138
  159SAPE  H14Y17824   3.911   2.748   7.919 -2.8481 -0.1936 -1.8848
  159SAPE  C31517825   4.047   2.911   7.883 -0.4083 -0.4607  0.3513
  159SAPE  H15X17826   3.998   2.986   7.949  0.3862  0.6189 -0.2896
  159SAPE  H15Y17827   4.080   2.976   7.799 -1.0691  2.7005  2.4552
  159SAPE  C31617828   4.183   2.879   7.962 -0.5427 -0.5762 -0.8841
  159SAPE  H16X17829   4.226   2.979   7.982 -1.4955 -0.2737 -0.3291
  159SAPE  H16Y17830   4.255   2.824   7.898  0.3269  1.1124 -1.3911
  159SAPE  C31717831   4.150   2.815   8.093 -0.4211  0.5387 -0.9289
  159SAPE  H17X17832   4.131   2.706   8.081 -0.3859  0.6489 -2.0178
  159SAPE  H17Y17833   4.063   2.862   8.144  2.0771  1.5020  2.6897
  159SAPE  C31817834   4.274   2.832   8.188 -0.4655 -0.5002 -0.5269
  159SAPE  H18X17835   4.366   2.843   8.127 -0.6234 -3.2934 -1.3294
  159SAPE  H18Y17836   4.282   2.738   8.247  1.9562 -0.6747 -1.0894
  159SAPE  H18Z17837   4.258   2.918   8.257  0.4071 -0.4129 -0.4319
  160SAPE     N17838   4.167   1.354   6.644  0.7334  0.3226 -0.5544
  160SAPE   HN117839   4.115   1.390   6.726 -1.7688  0.3223 -2.0975
  160SAPE   HN217840   4.213   1.430   6.589  1.2161  1.1655  0.9777
  160SAPE   HN317841   4.101   1.304   6.582  0.8785 -1.5806  0.7799
  160SAPE   C1217842   4.287   1.268   6.690  0.1252 -0.3653 -0.2473
  160SAPE  H12A17843   4.245   1.165   6.681  0.5782 -0.3688 -2.8373
  160SAPE  H12B17844   4.317   1.294   6.794 -1.5955  0.3559  0.0832
  160SAPE   C1117845   4.411   1.284   6.598 -0.0112 -0.7522  0.4025
  160SAPE  H11A17846   4.421   1.387   6.558 -0.2267  0.6270  3.7693
  160SAPE  H11B17847   4.375   1.225   6.511  1.6655 -1.2380  0.0287
  160SAPE     P17848   4.622   1.137   6.570  0.1764 -0.1085  0.2650
  160SAPE   O1317849   4.569   0.997   6.581 -0.0565 -0.0595  0.4695
  160SAPE   O1417850   4.652   1.191   6.435  0.3527 -0.4933 -0.3929
  160SAPE   O1217851   4.532   1.239   6.651  0.5629  0.1365  0.1395
  160SAPE   O1117852   4.752   1.135   6.657  0.1891  1.2124  0.0771
  160SAPE    C117853   4.828   1.257   6.666 -0.7244 -0.9446  0.6435
  160SAPE    HA17854   4.921   1.248   6.606 -1.8006  0.5414 -1.3103
  160SAPE    HB17855   4.779   1.350   6.628  0.0713 -0.1544  1.5163
  160SAPE    C217856   4.863   1.291   6.806  0.4770 -0.2146  0.4231
  160SAPE    HS17857   4.942   1.222   6.842  1.9103  1.8141  1.2719
  160SAPE   O2117858   4.741   1.281   6.893 -1.3508 -0.1953 -0.2829
  160SAPE   C2117859   4.711   1.164   6.935  0.7809 -0.1583 -0.1788
  160SAPE   O2217860   4.788   1.068   6.941  0.4009 -0.5309 -0.0598
  160SAPE   C2217861   4.568   1.162   6.978  0.5085 -0.0608 -0.5615
  160SAPE   H2R17862   4.512   1.144   6.884 -0.6944  0.3613  0.0587
  160SAPE   H2S17863   4.563   1.069   7.038  1.0754 -0.3657 -0.9889
  160SAPE    C317864   4.917   1.444   6.816  0.4466 -0.1363 -0.5087
  160SAPE    HX17865   4.839   1.511   6.774 -1.2644 -0.9646  1.2762
  160SAPE    HY17866   5.016   1.452   6.766  0.8975  2.1149  0.7057
  160SAPE   O3117867   4.941   1.478   6.954 -0.8809  0.5935 -0.0095
  160SAPE   C3117868   4.853   1.548   7.019  0.2099  0.1862 -0.0326
  160SAPE   O3217869   4.744   1.588   6.988 -0.5123 -0.7463 -0.2318
  160SAPE   C3217870   4.900   1.558   7.165  0.0682  0.0168  0.4537
  160SAPE   H2X17871   4.882   1.667   7.181 -1.3419 -0.2377  0.6623
  160SAPE   H2Y17872   5.004   1.527   7.187  1.1561  3.1486 -0.0336
  160SAPE   C2317873   4.518   1.288   7.053 -0.4437  0.1762 -0.5515
  160SAPE   H3R17874   4.539   1.381   6.998 -2.0440  2.0158  1.8195
  160SAPE   H3S17875   4.572   1.295   7.150 -0.3720  3.9309 -0.7823
  160SAPE   C2417876   4.370   1.279   7.084  0.2441  0.2892 -0.0505
  160SAPE   H4R17877   4.322   1.263   6.986 -1.5929  5.3949 -0.1312
  160SAPE   H4S17878   4.331   1.378   7.118 -2.7875 -1.1671  0.7960
  160SAPE   C2517879   4.335   1.169   7.184  0.7904 -0.0951 -0.0881
  160SAPE   H5R17880   4.348   1.070   7.138  1.2799  0.0151 -0.1951
  160SAPE   C2617881   4.277   1.171   7.306  0.7551 -0.2287 -0.7892
  160SAPE   H6R17882   4.244   1.077   7.353  0.5584  0.0769 -0.3142
  160SAPE   C2717883   4.232   1.293   7.383 -0.9307  0.2508 -0.9417
  160SAPE   H7R17884   4.158   1.257   7.458  1.0096  1.6148  1.7054
  160SAPE   H7S17885   4.191   1.364   7.308  2.0116  0.1166 -2.7807
  160SAPE   C2817886   4.350   1.351   7.461  0.1060  0.5700  0.2162
  160SAPE   H8R17887   4.410   1.419   7.399  0.3800 -1.2576 -1.5540
  160SAPE   C2917888   4.381   1.334   7.589  0.3674  0.4802 -0.6326
  160SAPE   H9R17889   4.460   1.398   7.631 -0.8395  0.7796  1.2567
  160SAPE  C21017890   4.312   1.236   7.680  0.2311 -0.1770 -0.1772
  160SAPE  H10R17891   4.268   1.157   7.616 -0.9157 -1.1118  1.6976
  160SAPE  H10S17892   4.234   1.279   7.747  0.6997 -0.0626  0.2963
  160SAPE  C21117893   4.423   1.188   7.773  0.2253 -0.4029 -0.1793
  160SAPE  H11R17894   4.488   1.101   7.757 -0.7227 -1.2192  0.3946
  160SAPE  C21217895   4.449   1.240   7.897 -0.4157 -0.0523  0.3327
  160SAPE  H12R17896   4.542   1.208   7.945 -1.4364 -1.2253  1.5658
  160SAPE  C21317897   4.380   1.348   7.977 -0.2166  0.1895 -0.9752
  160SAPE  H13R17898   4.286   1.386   7.932  0.0765 -1.2320 -2.8848
  160SAPE  H13S17899   4.446   1.437   7.987 -2.6020  1.7648  1.3157
  160SAPE  C21417900   4.353   1.288   8.113  1.1666 -0.1675 -0.1529
  160SAPE  H14R17901   4.260   1.230   8.124  0.1120  1.5551  0.1681
  160SAPE  C21517902   4.422   1.292   8.225  0.2076  0.6078 -0.6723
  160SAPE  H15R17903   4.385   1.239   8.314 -1.1157  2.3059 -0.1734
  160SAPE  C21617904   4.557   1.371   8.242  0.6413 -0.0979 -0.2143
  160SAPE  H16R17905   4.606   1.392   8.145 -3.0275 -0.2044 -2.1713
  160SAPE  H16S17906   4.626   1.303   8.296  0.9548  0.7370  0.4486
  160SAPE  C21717907   4.556   1.506   8.318  0.0894  0.3428  0.0797
  160SAPE  H17R17908   4.484   1.583   8.285 -1.4537 -0.7460  0.8229
  160SAPE  H17S17909   4.648   1.566   8.300 -1.0938  1.8008 -1.2203
  160SAPE  C21817910   4.523   1.480   8.470  0.0528  0.7083 -0.4182
  160SAPE  H18R17911   4.583   1.397   8.511 -1.9195  0.0362  1.1909
  160SAPE  H18S17912   4.415   1.458   8.483 -0.0080  1.4527  0.3703
  160SAPE  C21917913   4.556   1.602   8.548  0.0206 -0.3237  0.2802
  160SAPE  H19R17914   4.488   1.684   8.517 -0.5932 -0.3487  1.5334
  160SAPE  H19S17915   4.655   1.636   8.510 -0.0129  0.7767  1.1610
  160SAPE  C22017916   4.561   1.591   8.698  0.4497  0.7995 -0.6969
  160SAPE  H20R17917   4.651   1.530   8.724  0.6367  1.0718 -0.7068
  160SAPE  H20S17918   4.467   1.549   8.741 -0.4593  1.0466 -2.4142
  160SAPE  H20T17919   4.573   1.690   8.746  2.1855 -1.2505  3.3462
  160SAPE   C3317920   4.814   1.477   7.263 -0.8469  0.2609  0.4867
  160SAPE   H3X17921   4.709   1.482   7.226  0.0267 -0.1263 -2.1979
  160SAPE   H3Y17922   4.811   1.513   7.368  0.1879  0.3112  0.5013
  160SAPE   C3417923   4.855   1.330   7.263  0.0077  0.4896 -0.6436
  160SAPE   H4X17924   4.957   1.339   7.307 -0.0178 -2.2864  0.0409
  160SAPE   H4Y17925   4.851   1.288   7.160 -1.2875 -0.6466 -0.1293
  160SAPE   C3517926   4.765   1.253   7.358 -0.3243  0.2894  0.1547
  160SAPE   H5X17927   4.795   1.146   7.354  0.0142  0.4258 -1.5218
  160SAPE   H5Y17928   4.664   1.254   7.312  0.7908  2.5922 -2.4213
  160SAPE   C3617929   4.749   1.299   7.502  0.4054 -0.2950  0.2838
  160SAPE   H6X17930   4.676   1.237   7.560  1.3369  0.8666  2.7921
  160SAPE   H6Y17931   4.707   1.401   7.515  0.6184 -0.3410  1.4662
  160SAPE   C3717932   4.875   1.302   7.578  0.1479 -0.1906  0.3287
  160SAPE   H7X17933   4.936   1.392   7.557 -0.3998 -0.0444 -0.7036
  160SAPE   H7Y17934   4.947   1.225   7.545 -0.3940 -1.0957  1.2221
  160SAPE   C3817935   4.844   1.298   7.723 -0.1944 -0.0940  0.1071
  160SAPE   H8X17936   4.775   1.215   7.751  0.9186 -1.1686 -0.2836
  160SAPE   H8Y17937   4.795   1.393   7.754  1.6995 -0.0881  3.3374
  160SAPE   C3917938   4.983   1.282   7.792  0.3429 -0.0466 -1.1133
  160SAPE   H9X17939   5.045   1.367   7.757 -0.5308  2.4555  3.1758
  160SAPE   H9Y17940   5.039   1.189   7.766  1.7780  0.3986  0.3479
  160SAPE  C31017941   4.978   1.300   7.942  0.1134  0.1347 -0.3460
  160SAPE  H10X17942   4.933   1.398   7.968  0.7520  0.4428 -0.3925
  160SAPE  H10Y17943   5.083   1.318   7.974  0.6175 -0.6092 -1.5569
  160SAPE  C31117944   4.909   1.186   8.026 -0.0405  0.3301  0.0811
  160SAPE  H11X17945   4.956   1.087   8.009 -2.2575 -1.0691  1.7585
  160SAPE  H11Y17946   4.804   1.172   7.992 -0.7632 -0.9747  2.7887
  160SAPE  C31217947   4.916   1.208   8.181  0.0666  0.0365  0.6182
  160SAPE  H12X17948   4.862   1.134   8.243  0.3614  0.4853  1.4240
  160SAPE  H12Y17949   4.876   1.309   8.207 -0.3419 -0.2769  1.2055
  160SAPE  C31317950   5.059   1.206   8.237  0.3637  0.4083  1.2788
  160SAPE  H13X17951   5.124   1.265   8.168  0.8680 -1.8195 -0.2246
  160SAPE  H13Y17952   5.089   1.100   8.223  1.3228  0.8223  0.0899
  160SAPE  C31417953   5.061   1.256   8.386 -0.6550 -0.2011 -0.4590
  160SAPE  H14X17954   5.041   1.169   8.451  1.6800  0.6709  1.5056
  160SAPE  H14Y17955   4.998   1.341   8.419  2.6760  0.7734  3.8299
  160SAPE  C31517956   5.201   1.298   8.435  0.5416 -0.5880  0.0655
  160SAPE  H15X17957   5.225   1.396   8.388 -0.9727  0.6673  1.8651
  160SAPE  H15Y17958   5.281   1.231   8.395  0.1146 -0.1028 -1.6625
  160SAPE  C31617959   5.224   1.288   8.583  0.3697 -0.1922 -0.6776
  160SAPE  H16X17960   5.161   1.366   8.631 -1.0988 -1.9344  0.2716
  160SAPE  H16Y17961   5.327   1.317   8.615  0.0623  0.9198 -0.6690
  160SAPE  C31717962   5.196   1.158   8.661 -0.3119  0.0587  1.1634
  160SAPE  H17X17963   5.260   1.085   8.608 -2.3149 -0.2127 -0.9326
  160SAPE  H17Y17964   5.089   1.134   8.643 -0.0538 -0.7185  0.6896
  160SAPE  C31817965   5.227   1.153   8.811 -0.1997  0.8075 -0.7429
  160SAPE  H18X17966   5.168   1.226   8.870 -0.8492 -0.0124 -0.3551
  160SAPE  H18Y17967   5.333   1.163   8.841  0.1566 -0.9308 -1.3768
  160SAPE  H18Z17968   5.204   1.049   8.846  0.6308  0.5088 -1.0834
  161SOPE     N17969   3.238   2.687  10.481  1.0786 -0.1420  0.0385
  161SOPE   HN117970   3.328   2.641  10.459  1.0123 -1.6497  2.6492
  161SOPE   HN217971   3.266   2.765  10.545 -0.1394  0.3567 -0.0281
  161SOPE   HN317972   3.180   2.626  10.542  0.6302 -0.3839 -0.6263
  161SOPE   C1217973   3.168   2.741  10.359 -0.2439 -0.2397 -0.1784
  161SOPE  H12A17974   3.155   2.661  10.283 -4.5329 -0.3084  0.4848
  161SOPE  H12B17975   3.240   2.814  10.317  0.9789 -2.1985 -1.6055
  161SOPE   C1117976   3.028   2.796  10.395  0.1636  0.2410  0.0791
  161SOPE  H11A17977   2.970   2.703  10.417  2.2565 -1.3677 -1.0171
  161SOPE  H11B17978   2.992   2.847  10.303 -1.0281 -0.4445  0.1530
  161SOPE     P17979   2.899   2.953  10.558  0.2388  0.0994 -0.1629
  161SOPE   O1317980   2.923   3.097  10.584 -0.1552 -0.0532  0.4017
  161SOPE   O1417981   2.848   2.879  10.676 -0.4705  0.1389 -0.2073
  161SOPE   O1217982   3.040   2.883  10.509  0.2560 -0.5113 -0.3360
  161SOPE   O1117983   2.798   2.935  10.435 -0.2427 -0.4093 -0.1930
  161SOPE    C117984   2.672   2.998  10.423  0.1584 -0.0307  0.0503
  161SOPE    HA17985   2.646   3.068  10.505  0.4912  0.7096 -0.4696
  161SOPE    HB17986   2.590   2.922  10.419  0.0542  0.1601 -1.8887
  161SOPE    C217987   2.652   3.072  10.290  0.0150  1.0319  1.0767
  161SOPE    HS17988   2.662   3.002  10.205 -0.3372  1.2904  0.8225
  161SOPE   O2117989   2.740   3.183  10.290  0.1672 -0.2634  0.1339
  161SOPE   C2117990   2.858   3.168  10.235 -0.0213  0.2950  0.1479
  161SOPE   O2217991   2.893   3.068  10.172 -0.0799 -0.2419  0.1775
  161SOPE   C2217992   2.940   3.298  10.228  0.2731  1.1093  0.3040
  161SOPE   H2R17993   3.049   3.282  10.215 -0.5701 -2.9439 -2.9562
  161SOPE   H2S17994   2.927   3.347  10.327 -0.6562 -1.8639  1.7363
  161SOPE    C317995   2.499   3.115  10.281  0.4744  0.0391 -0.1173
  161SOPE    HX17996   2.475   3.167  10.377 -1.6639 -2.7851  0.9481
  161SOPE    HY17997   2.448   3.017  10.268 -0.6458  0.4613  0.9679
  161SOPE   O3117998   2.463   3.193  10.162 -0.0492 -0.5426 -0.9169
  161SOPE   C3117999   2.485   3.323  10.173  0.0773  0.0096 -0.7960
  161SOPE   O3218000   2.539   3.386  10.264 -0.2293  0.6912  0.4000
  161SOPE   C3218001   2.433   3.397  10.053  0.0377  0.1971 -0.2637
  161SOPE   H2X18002   2.505   3.482  10.046  0.7766 -0.3209  0.8669
  161SOPE   H2Y18003   2.332   3.433  10.082  1.0340  1.7563  1.4090
  161SOPE   C2318004   2.886   3.386  10.114 -0.3649 -0.6751 -0.0166
  161SOPE   H3R18005   2.924   3.491  10.113  1.2274 -1.2283  0.1901
  161SOPE   H3S18006   2.778   3.392  10.136 -0.2690 -1.6859  0.7298
  161SOPE   C2418007   2.942   3.340   9.983 -0.3432 -0.0043  0.4714
  161SOPE   H4R18008   3.052   3.345   9.996 -0.5691  1.2311  2.1686
  161SOPE   H4S18009   2.919   3.234   9.962  1.4967 -0.0624 -1.3832
  161SOPE   C2518010   2.903   3.415   9.856 -0.4076 -0.1629 -0.2087
  161SOPE   H5R18011   2.795   3.398   9.833 -0.2477  1.3313 -2.1989
  161SOPE   H5S18012   2.924   3.523   9.866 -1.7894  0.2524 -1.5776
  161SOPE   C2618013   2.985   3.357   9.736 -0.4304  0.0132  1.1828
  161SOPE   H6R18014   3.091   3.386   9.752 -0.2298  0.7067 -1.2104
  161SOPE   H6S18015   2.980   3.247   9.750  1.7299 -0.6515 -2.5494
  161SOPE   C2718016   2.939   3.395   9.598  0.0434  0.1806  0.1502
  161SOPE   H7R18017   2.846   3.340   9.572  0.2266 -0.3199  0.5618
  161SOPE   H7S18018   2.917   3.504   9.593  0.6339  0.2587 -0.9461
  161SOPE   C2818019   3.037   3.354   9.487 -1.0221  0.4559  0.6938
  161SOPE   H8R18020   3.099   3.274   9.532  0.6133  1.2938 -0.0135
  161SOPE   H8S18021   2.984   3.311   9.399 -0.5021 -0.3130  0.7584
  161SOPE   C2918022   3.119   3.471   9.455  0.0739  0.0160  0.9067
  161SOPE   H9118023   3.134   3.545   9.535 -1.2521  0.6729  0.5714
  161SOPE  C21018024   3.171   3.500   9.335 -0.3131  0.3515 -0.1702
  161SOPE  H10118025   3.229   3.592   9.317  0.1433 -0.0731 -0.8751
  161SOPE  C21118026   3.161   3.403   9.221 -0.5067  0.1449 -0.0884
  161SOPE  H11R18027   3.152   3.298   9.257  0.1773 -0.1904 -0.8756
  161SOPE  H11S18028   3.263   3.384   9.180 -1.0040  0.6846 -1.6144
  161SOPE  C21218029   3.061   3.441   9.108 -0.7121 -0.3629  0.5572
  161SOPE  H12R18030   3.073   3.544   9.068 -0.9848 -0.3944  0.3940
  161SOPE  H12S18031   2.957   3.414   9.136 -1.8642 -0.0119 -3.0600
  161SOPE  C21318032   3.086   3.350   8.981  0.6852 -0.0777 -0.3033
  161SOPE  H13R18033   3.071   3.246   9.017  2.6555 -0.5211 -0.6629
  161SOPE  H13S18034   3.192   3.361   8.949  0.2509 -0.8211 -2.0923
  161SOPE  C21418035   2.996   3.366   8.862 -0.2905 -0.3204 -0.3320
  161SOPE  H14R18036   3.019   3.469   8.826 -0.0722  0.4182  1.8350
  161SOPE  H14S18037   2.891   3.351   8.896  0.1879 -0.2432  1.2118
  161SOPE  C21518038   3.018   3.272   8.742 -0.7011 -0.3251 -0.3199
  161SOPE  H15R18039   2.997   3.168   8.775 -1.8019  0.2677  0.9035
  161SOPE  H15S18040   3.128   3.273   8.726 -0.5185  0.6870  0.8518
  161SOPE  C21618041   2.962   3.328   8.609 -0.2721 -0.4554 -0.1718
  161SOPE  H16R18042   2.992   3.433   8.587  1.0741 -1.3388 -2.8204
  161SOPE  H16S18043   2.852   3.330   8.624 -0.2115  0.7511  0.1588
  161SOPE  C21718044   2.994   3.240   8.488  0.0853 -0.1595 -0.2814
  161SOPE  H17R18045   2.971   3.132   8.501  1.7543 -0.5010 -0.0097
  161SOPE  H17S18046   3.104   3.250   8.471  0.2845  0.0256  1.1021
  161SOPE  C21818047   2.934   3.285   8.354 -0.6184  0.0169 -0.3742
  161SOPE  H18R18048   2.980   3.384   8.329  1.2596 -1.0862 -1.4163
  161SOPE  H18S18049   2.824   3.297   8.358 -0.4122  2.4872 -1.1140
  161SOPE  H18T18050   2.967   3.212   8.278  0.0199 -0.6712  0.5557
  161SOPE   C3318051   2.427   3.322   9.920  0.4331  0.7244  0.5881
  161SOPE   H3X18052   2.402   3.380   9.829 -2.6080 -0.5753  0.5160
  161SOPE   H3Y18053   2.347   3.245   9.928 -1.9183  2.6564 -3.0862
  161SOPE   C3418054   2.555   3.247   9.886 -0.1761 -0.4472 -0.2786
  161SOPE   H4X18055   2.567   3.172   9.967  0.4473  0.1589  0.1839
  161SOPE   H4Y18056   2.638   3.320   9.880 -0.8474  0.3989  0.5542
  161SOPE   C3518057   2.565   3.183   9.744  0.3905 -1.3337 -0.2898
  161SOPE   H5X18058   2.487   3.105   9.739 -1.6817  0.6464  0.3469
  161SOPE   H5Y18059   2.664   3.134   9.731  1.1233  0.0969 -0.1795
  161SOPE   C3618060   2.548   3.285   9.620 -0.1860  0.3834 -0.0147
  161SOPE   H6X18061   2.596   3.383   9.639  0.6640  0.0080 -0.2100
  161SOPE   H6Y18062   2.441   3.307   9.601 -0.2471 -2.5258 -3.5992
  161SOPE   C3718063   2.599   3.224   9.490 -0.3805 -0.1175  0.1768
  161SOPE   H7X18064   2.555   3.122   9.481 -1.7360  0.5289 -0.5906
  161SOPE   H7Y18065   2.709   3.222   9.474 -0.1765 -0.7580  1.5961
  161SOPE   C3818066   2.547   3.308   9.374 -0.6039  0.6924  1.2081
  161SOPE   H8X18067   2.579   3.415   9.374  1.3450  0.1285  2.5618
  161SOPE   H8Y18068   2.439   3.315   9.399 -0.5573  0.2049  1.5359
  161SOPE   C3918069   2.568   3.230   9.242 -1.0004  0.1594 -0.5587
  161SOPE   H9X18070   2.543   3.122   9.247  0.7323 -0.2826 -0.8697
  161SOPE   H9Y18071   2.676   3.227   9.216 -0.8480 -0.7406  0.1682
  161SOPE  C31018072   2.499   3.306   9.123 -0.4491 -0.1575 -0.4882
  161SOPE  H10X18073   2.540   3.408   9.110  2.0020 -1.1598 -0.8034
  161SOPE  H10Y18074   2.395   3.332   9.153 -1.3204 -0.7919 -2.8882
  161SOPE  C31118075   2.495   3.218   8.994  0.2736 -1.2645 -0.1152
  161SOPE  H11X18076   2.493   3.109   9.015 -0.7592 -1.4694 -1.2387
  161SOPE  H11Y18077   2.579   3.241   8.924 -1.0703  1.3727 -0.9194
  161SOPE  C31218078   2.366   3.238   8.914 -0.3798  1.0225 -0.0962
  161SOPE  H12X18079   2.347   3.348   8.912  0.5970  1.1931 -4.3003
  161SOPE  H12Y18080   2.277   3.192   8.962 -1.4573  0.1750 -2.8093
  161SOPE  C31318081   2.361   3.179   8.773 -0.2512 -0.0017  0.2634
  161SOPE  H13X18082   2.284   3.237   8.718 -0.6868 -0.9382 -0.1266
  161SOPE  H13Y18083   2.315   3.079   8.787  1.0987 -0.4056  2.0066
  161SOPE  C31418084   2.494   3.176   8.703  0.0276  0.0384 -0.1227
  161SOPE  H14X18085   2.569   3.113   8.755 -0.2484  0.5959  0.9606
  161SOPE  H14Y18086   2.520   3.283   8.704 -1.6130  0.4709 -1.6162
  161SOPE  C31518087   2.476   3.132   8.558 -0.1637  0.1233 -0.7622
  161SOPE  H15X18088   2.572   3.150   8.505 -0.3980  0.8733 -0.9465
  161SOPE  H15Y18089   2.401   3.206   8.523 -2.0387 -0.2150  2.3488
  161SOPE  C31618090   2.424   2.987   8.546  0.8474  0.4221 -0.0826
  161SOPE  H16X18091   2.329   2.958   8.594  1.0379 -1.2293 -0.6781
  161SOPE  H16Y18092   2.501   2.926   8.599 -1.0287  0.5385  2.8712
  161SOPE  C31718093   2.415   2.937   8.400  0.2941  0.0345 -0.1605
  161SOPE  H17X18094   2.513   2.966   8.357 -0.3192 -1.5038 -2.7708
  161SOPE  H17Y18095   2.338   2.995   8.345 -2.9125 -5.0649 -1.4551
  161SOPE  C31818096   2.374   2.789   8.382  0.2653  0.5116 -0.1156
  161SOPE  H18X18097   2.442   2.724   8.442  0.6723  1.3008  0.2996
  161SOPE  H18Y18098   2.362   2.757   8.277 -0.6634 -0.3702  0.2518
  161SOPE  H18Z18099   2.270   2.779   8.418  0.3118 -0.7042 -0.3025
  162SOPE     N18100   1.647   2.056  10.998 -0.6743  0.3949 -0.1437
  162SOPE   HN118101   1.714   2.114  10.944  0.1222  0.0070  0.4211
  162SOPE   HN218102   1.600   2.128  11.057  0.7136  2.0878 -1.0759
  162SOPE   HN318103   1.696   1.991  11.062  0.4428 -1.0297 -2.4237
  162SOPE   C1218104   1.548   1.983  10.903  0.4126 -0.0804 -1.0109
  162SOPE  H12A18105   1.472   1.941  10.971  1.1879 -0.7267 -0.5322
  162SOPE  H12B18106   1.608   1.903  10.854  2.3828  1.0315 -0.4654
  162SOPE   C1118107   1.492   2.078  10.805  0.9294  0.3532 -0.4008
  162SOPE  H11A18108   1.420   2.024  10.740  0.8117  0.6120 -0.4850
  162SOPE  H11B18109   1.565   2.117  10.730 -0.9990 -0.8350 -2.9785
  162SOPE     P18110   1.421   2.325  10.868 -0.2710  0.1818  0.4739
  162SOPE   O1318111   1.548   2.367  10.937  0.6608 -0.0684  0.6969
  162SOPE   O1418112   1.294   2.379  10.914 -0.3662 -0.3739  0.3227
  162SOPE   O1218113   1.417   2.171  10.882  0.0394  0.3092  0.0697
  162SOPE   O1118114   1.440   2.350  10.713 -0.5966 -0.6160 -0.0107
  162SOPE    C118115   1.579   2.398  10.672 -0.2350  0.0271  0.1722
  162SOPE    HA18116   1.652   2.320  10.704  0.1522  0.8089  1.2492
  162SOPE    HB18117   1.607   2.496  10.717  2.6155  0.0309 -1.5241
  162SOPE    C218118   1.592   2.404  10.518 -0.7421 -0.2519  0.0146
  162SOPE    HS18119   1.536   2.316  10.481  0.6651 -0.7169 -1.0668
  162SOPE   O2118120   1.733   2.409  10.472  0.4779  0.0474 -0.1808
  162SOPE   C2118121   1.795   2.293  10.469  1.5321  0.0360 -0.4674
  162SOPE   O2218122   1.749   2.186  10.499 -0.3240 -0.0752 -0.9457
  162SOPE   C2218123   1.936   2.308  10.415 -0.2810  0.9994  0.2689
  162SOPE   H2R18124   1.980   2.207  10.420 -0.3436  0.9183 -0.7812
  162SOPE   H2S18125   1.994   2.386  10.470  1.9996 -0.1888 -0.4052
  162SOPE    C318126   1.520   2.537  10.470 -0.4651 -0.2378  1.0465
  162SOPE    HX18127   1.560   2.631  10.514 -0.3799 -0.5580  1.6640
  162SOPE    HY18128   1.417   2.517  10.508 -1.2076  0.4426 -0.5626
  162SOPE   O3118129   1.496   2.554  10.321  0.5032  0.0121 -0.1280
  162SOPE   C3118130   1.608   2.604  10.263  0.7118 -0.0918 -0.0109
  162SOPE   O3218131   1.707   2.645  10.320 -0.0695 -1.4986 -0.1170
  162SOPE   C3218132   1.584   2.602  10.107  0.8687 -0.2184 -0.7051
  162SOPE   H2X18133   1.491   2.660  10.091  1.5170  0.2430 -2.9305
  162SOPE   H2Y18134   1.556   2.497  10.082 -0.1576 -0.0555 -0.2340
  162SOPE   C2318135   1.948   2.361  10.272  0.4062 -0.2313  0.5273
  162SOPE   H3R18136   1.886   2.452  10.270  0.5328 -0.0957  2.6487
  162SOPE   H3S18137   1.901   2.301  10.190 -0.6419  0.9751  0.2449
  162SOPE   C2418138   2.089   2.384  10.230  0.4172 -0.5025 -0.0008
  162SOPE   H4R18139   2.139   2.446  10.308 -1.7880  0.5887  0.6129
  162SOPE   H4S18140   2.134   2.283  10.218  0.7026 -0.0779 -2.8681
  162SOPE   C2518141   2.110   2.453  10.090  0.2101  0.3915  0.7485
  162SOPE   H5R18142   2.215   2.435  10.058  0.3297  2.2820 -0.0048
  162SOPE   H5S18143   2.051   2.398  10.014  1.0155  0.3086  0.1749
  162SOPE   C2618144   2.062   2.599  10.087  0.3709  0.4531  0.5099
  162SOPE   H6R18145   1.952   2.597  10.103  0.2154  0.0474 -0.5710
  162SOPE   H6S18146   2.106   2.648  10.176  1.7213 -1.2387  0.8054
  162SOPE   C2718147   2.093   2.661   9.953  0.0539  0.4360 -0.1918
  162SOPE   H7R18148   2.190   2.620   9.917  1.2511  1.5275  1.7352
  162SOPE   H7S18149   2.015   2.615   9.889  0.4059 -4.6728  2.7086
  162SOPE   C2818150   2.074   2.807   9.934  0.2581  0.5292  0.2960
  162SOPE   H8R18151   2.040   2.820   9.829  0.9902 -0.4994 -0.0781
  162SOPE   H8S18152   1.990   2.845   9.996  0.0463  1.2092 -0.4076
  162SOPE   C2918153   2.208   2.874   9.964 -1.0532  0.0296  0.5489
  162SOPE   H9118154   2.242   2.878  10.068 -0.4852 -0.3985  0.3855
  162SOPE  C21018155   2.285   2.939   9.872  0.1185 -0.0246  0.4888
  162SOPE  H10118156   2.370   2.998   9.911 -1.3908  0.9718  2.3333
  162SOPE  C21118157   2.260   2.951   9.726 -0.0734  0.2645  0.0696
  162SOPE  H11R18158   2.284   3.050   9.682 -1.2854  0.9377  0.9061
  162SOPE  H11S18159   2.154   2.934   9.698 -0.4677  1.8424  0.5835
  162SOPE  C21218160   2.350   2.841   9.660  0.0745  0.1682  0.6513
  162SOPE  H12R18161   2.293   2.748   9.678 -0.4428  0.0755 -1.2948
  162SOPE  H12S18162   2.452   2.833   9.703 -0.2253 -0.9900  1.1416
  162SOPE  C21318163   2.350   2.858   9.506 -0.8137  0.0834  0.0749
  162SOPE  H13R18164   2.414   2.946   9.485  0.1355 -0.5829  0.1412
  162SOPE  H13S18165   2.251   2.879   9.460  0.3919 -1.0731 -3.2289
  162SOPE  C21418166   2.413   2.733   9.438 -0.5947 -0.1621  0.3429
  162SOPE  H14R18167   2.335   2.655   9.452 -2.1896  1.4223  0.3888
  162SOPE  H14S18168   2.510   2.710   9.486  0.1022 -0.2740 -1.1070
  162SOPE  C21518169   2.432   2.733   9.284 -0.0815  0.2860  0.5695
  162SOPE  H15R18170   2.470   2.633   9.253  0.0181 -0.4938  3.0249
  162SOPE  H15S18171   2.514   2.803   9.255 -0.0802 -0.5416 -1.5038
  162SOPE  C21618172   2.305   2.776   9.210  0.8292 -0.1165 -0.1394
  162SOPE  H16R18173   2.301   2.887   9.222  1.5348  0.0824 -1.6198
  162SOPE  H16S18174   2.207   2.734   9.242  0.9329  1.1308  1.8985
  162SOPE  C21718175   2.330   2.755   9.057  0.5755  0.4734  0.5636
  162SOPE  H17R18176   2.334   2.646   9.036 -0.4878  0.2978  1.2432
  162SOPE  H17S18177   2.428   2.798   9.026  2.2074 -2.6129  1.1423
  162SOPE  C21818178   2.227   2.815   8.962  0.0484 -0.1510  0.7312
  162SOPE  H18R18179   2.122   2.792   8.991 -0.3863 -0.0139 -0.6837
  162SOPE  H18S18180   2.234   2.771   8.860 -2.1871 -1.6895  1.2031
  162SOPE  H18T18181   2.240   2.925   8.954  0.0726 -0.1162  1.2468
  162SOPE   C3318182   1.690   2.648  10.002 -0.5047  0.6876 -0.2299
  162SOPE   H3X18183   1.771   2.572  10.001  1.2004  2.3769  2.5532
  162SOPE   H3Y18184   1.736   2.745  10.028  0.7131  0.0785 -0.0536
  162SOPE   C3418185   1.619   2.671   9.860  0.7703 -0.1105 -0.3268
  162SOPE   H4X18186   1.533   2.733   9.893 -2.2173 -2.2694 -3.6589
  162SOPE   H4Y18187   1.589   2.578   9.807 -2.3385  1.5522 -1.5885
  162SOPE   C3518188   1.701   2.770   9.763  0.7014  0.2977 -0.1452
  162SOPE   H5X18189   1.761   2.837   9.829  0.2120 -0.0171  0.6390
  162SOPE   H5Y18190   1.624   2.821   9.701  0.5044  0.7983  0.5044
  162SOPE   C3618191   1.794   2.695   9.671 -1.0924 -0.2168  0.0345
  162SOPE   H6X18192   1.756   2.596   9.635 -1.5502 -0.2595  0.6363
  162SOPE   H6Y18193   1.890   2.674   9.723 -1.0265 -1.2663 -0.4784
  162SOPE   C3718194   1.821   2.784   9.541 -0.7319  0.9061 -0.9535
  162SOPE   H7X18195   1.913   2.744   9.495  0.0876  2.1645 -0.4574
  162SOPE   H7Y18196   1.835   2.888   9.580 -0.5964  0.4198  0.3052
  162SOPE   C3818197   1.697   2.784   9.447  0.6471  0.2657 -0.2231
  162SOPE   H8X18198   1.718   2.857   9.366  1.2341  1.6044  1.1124
  162SOPE   H8Y18199   1.603   2.815   9.498 -0.9606 -1.8298 -1.8227
  162SOPE   C3918200   1.667   2.647   9.378 -0.9515 -0.1224  0.0313
  162SOPE   H9X18201   1.579   2.673   9.315 -0.1839  0.6328 -0.7353
  162SOPE   H9Y18202   1.650   2.568   9.455  0.8407 -0.0669  0.5139
  162SOPE  C31018203   1.776   2.601   9.281 -0.5098  0.0021 -0.9608
  162SOPE  H10X18204   1.853   2.549   9.342 -1.1968  1.6430  1.3837
  162SOPE  H10Y18205   1.811   2.691   9.226 -1.7407  0.7240 -0.5831
  162SOPE  C31118206   1.731   2.500   9.172  0.1598 -0.1608  0.0332
  162SOPE  H11X18207   1.641   2.549   9.129  0.2412  1.6473  1.8338
  162SOPE  H11Y18208   1.702   2.402   9.218 -0.2879  0.0028  0.1095
  162SOPE  C31218209   1.833   2.493   9.062 -0.1293 -0.1428 -0.0204
  162SOPE  H12X18210   1.849   2.385   9.040 -2.1310  0.0799 -2.7090
  162SOPE  H12Y18211   1.933   2.538   9.084  0.5280 -2.5669  2.2891
  162SOPE  C31318212   1.791   2.564   8.934  0.1762 -0.4869  0.0003
  162SOPE  H13X18213   1.776   2.671   8.961  2.4860 -0.3351  0.7915
  162SOPE  H13Y18214   1.698   2.519   8.894  0.5268 -0.9508 -0.2894
  162SOPE  C31418215   1.907   2.536   8.837 -0.0497  0.1681 -0.1031
  162SOPE  H14X18216   1.917   2.428   8.810  1.6395  0.6126 -1.3639
  162SOPE  H14Y18217   2.003   2.577   8.875 -1.0700  0.9213  1.7432
  162SOPE  C31518218   1.872   2.590   8.698 -0.3668  0.9914  0.5645
  162SOPE  H15X18219   1.859   2.700   8.695  1.5990  1.2098 -3.1226
  162SOPE  H15Y18220   1.783   2.548   8.646  1.0937  1.1766 -2.1853
  162SOPE  C31618221   1.990   2.558   8.600  0.7482  0.4652 -0.5017
  162SOPE  H16X18222   1.995   2.448   8.586 -2.4052  0.3010 -0.8107
  162SOPE  H16Y18223   2.076   2.608   8.648  0.6051  1.6824 -1.4881
  162SOPE  C31718224   1.963   2.630   8.469 -0.2858 -0.4617 -0.2635
  162SOPE  H17X18225   1.977   2.739   8.481  0.8526 -0.6125 -0.2007
  162SOPE  H17Y18226   1.860   2.612   8.431  0.2096 -0.3884 -1.6954
  162SOPE  C31818227   2.049   2.573   8.357  0.0428  0.1532 -0.3462
  162SOPE  H18X18228   2.012   2.618   8.262  0.3030  0.5134 -0.2784
  162SOPE  H18Y18229   2.043   2.463   8.350  0.0289  0.2769 -2.6338
  162SOPE  H18Z18230   2.153   2.612   8.352  0.3073 -0.1098  2.3177
  163SOPE     N18231   1.857   0.392  10.935 -0.5111 -0.5426  0.7727
  163SOPE   HN118232   1.792   0.422  11.010 -1.0685  1.6728 -0.5469
  163SOPE   HN218233   1.828   0.441  10.848 -1.2032 -1.0311  0.7301
  163SOPE   HN318234   1.845   0.290  10.919 -0.4211 -0.2719 -1.1488
  163SOPE   C1218235   1.994   0.426  10.983  0.0233 -0.8095  0.4977
  163SOPE  H12A18236   2.002   0.427  11.094 -1.8203 -4.3165  0.7344
  163SOPE  H12B18237   2.018   0.532  10.958 -1.3155 -0.7019 -0.4523
  163SOPE   C1118238   2.100   0.340  10.910 -0.2577 -0.2505  0.0976
  163SOPE  H11A18239   2.195   0.380  10.950 -0.7909 -0.4700  1.6120
  163SOPE  H11B18240   2.107   0.351  10.800  0.4727 -0.2888  0.1391
  163SOPE     P18241   2.025   0.089  10.871 -0.4579  0.2656 -0.0040
  163SOPE   O1318242   1.888   0.111  10.921 -0.3496  0.6471 -0.0194
  163SOPE   O1418243   2.096  -0.039  10.895  0.1050 -0.4863 -0.3981
  163SOPE   O1218244   2.106   0.200  10.939 -0.2312 -0.0247 -0.0708
  163SOPE   O1118245   2.034   0.130  10.722 -0.2264  0.3128 -0.3226
  163SOPE    C118246   2.146   0.103  10.633 -0.7889  0.2091 -0.2258
  163SOPE    HA18247   2.121   0.023  10.560 -1.9515  0.7354 -0.4182
  163SOPE    HB18248   2.235   0.080  10.695 -0.1397  1.0924 -0.8314
  163SOPE    C218249   2.181   0.225  10.540  0.4060 -0.0944  0.2836
  163SOPE    HS18250   2.166   0.323  10.589 -0.6160 -0.1943  0.1691
  163SOPE   O2118251   2.098   0.223  10.424  0.2787 -0.3858  0.1379
  163SOPE   C2118252   1.986   0.285  10.430  1.0160 -0.2107 -0.4903
  163SOPE   O2218253   1.945   0.360  10.518 -0.8067 -0.0832  0.2549
  163SOPE   C2218254   1.925   0.297  10.290 -0.5773  0.5706 -0.1324
  163SOPE   H2R18255   2.015   0.310  10.227  0.9610  2.5304  2.3610
  163SOPE   H2S18256   1.873   0.395  10.299  0.5609  1.0850  0.9237
  163SOPE    C318257   2.327   0.235  10.503  0.1033  0.4113  0.0161
  163SOPE    HX18258   2.388   0.223  10.596 -1.7895  1.8697  1.4689
  163SOPE    HY18259   2.339   0.341  10.473  0.2921  0.5862  0.7077
  163SOPE   O3118260   2.372   0.134  10.421 -0.0253  0.3914  0.1081
  163SOPE   C3118261   2.366   0.163  10.292  0.2474 -0.1182  0.0507
  163SOPE   O3218262   2.350   0.274  10.244  0.1551  0.4011  0.4779
  163SOPE   C3218263   2.382   0.024  10.227  0.1202  0.3586 -0.3314
  163SOPE   H2X18264   2.310  -0.055  10.258  2.3891 -0.9287  1.9604
  163SOPE   H2Y18265   2.483  -0.013  10.256 -0.2186 -0.0937  0.2841
  163SOPE   C2318266   1.847   0.176  10.250 -0.5386 -0.6030  0.1688
  163SOPE   H3R18267   1.762   0.172  10.322 -0.7615  0.2889 -0.0359
  163SOPE   H3S18268   1.903   0.081  10.256  0.3150 -0.1560 -0.6268
  163SOPE   C2418269   1.795   0.190  10.104  0.0374  0.1495 -0.3806
  163SOPE   H4R18270   1.710   0.119  10.096  0.7904 -0.7126 -0.7448
  163SOPE   H4S18271   1.747   0.289  10.085 -1.9699 -0.7676 -0.2316
  163SOPE   C2518272   1.891   0.160   9.999 -0.7609  0.4690  0.5027
  163SOPE   H5R18273   1.973   0.233   9.982 -1.3076  0.9072 -0.3165
  163SOPE   H5S18274   1.940   0.061   9.995  0.1071  0.9601 -1.1095
  163SOPE   C2618275   1.810   0.170   9.864 -0.4479  0.1021 -0.1057
  163SOPE   H6R18276   1.719   0.106   9.858  0.5330 -1.2117 -1.4965
  163SOPE   H6S18277   1.759   0.267   9.850 -1.7345 -0.7524 -1.6082
  163SOPE   C2718278   1.884   0.145   9.732 -0.3886  0.0917  0.5472
  163SOPE   H7R18279   1.965   0.217   9.709  1.6982 -2.3171  0.1957
  163SOPE   H7S18280   1.931   0.046   9.750  0.0733  0.2504  0.2244
  163SOPE   C2818281   1.796   0.137   9.603  0.1773  0.7209 -0.1732
  163SOPE   H8R18282   1.718   0.066   9.636 -0.1703  2.0454  1.9605
  163SOPE   H8S18283   1.748   0.235   9.581 -2.0760 -0.4386 -0.5454
  163SOPE   C2918284   1.877   0.072   9.489 -0.8943 -0.3912 -0.0276
  163SOPE   H9118285   1.949   0.000   9.529  0.1373  1.2754  1.1646
  163SOPE  C21018286   1.892   0.110   9.363 -0.2071  0.2397 -0.5168
  163SOPE  H10118287   1.941   0.042   9.291 -1.5504 -1.6250  0.2885
  163SOPE  C21118288   1.827   0.232   9.313  0.3293 -0.3057 -0.4188
  163SOPE  H11R18289   1.837   0.319   9.382 -0.2134 -1.0689  0.6469
  163SOPE  H11S18290   1.718   0.212   9.304  0.3819 -0.9278  0.2415
  163SOPE  C21218291   1.879   0.275   9.172 -0.1202 -0.4278 -0.3678
  163SOPE  H12R18292   1.864   0.186   9.107 -0.7535 -0.7924  0.2560
  163SOPE  H12S18293   1.985   0.306   9.175 -0.1429 -0.4342  0.8097
  163SOPE  C21318294   1.788   0.388   9.117 -0.3250  0.3853  0.8881
  163SOPE  H13R18295   1.797   0.475   9.185 -0.3056 -1.3759  3.1800
  163SOPE  H13S18296   1.681   0.358   9.124 -0.3414 -0.2986 -1.5592
  163SOPE  C21418297   1.807   0.410   8.968 -0.0280  0.8057 -0.3402
  163SOPE  H14R18298   1.785   0.311   8.922 -1.0297  0.8451  0.0423
  163SOPE  H14S18299   1.915   0.422   8.944  0.1889 -2.0123 -1.0359
  163SOPE  C21518300   1.711   0.518   8.918 -0.9024  0.6506 -0.2608
  163SOPE  H15R18301   1.714   0.604   8.989 -1.9697 -0.7020  1.4410
  163SOPE  H15S18302   1.609   0.475   8.914 -0.3108 -0.7511 -0.6199
  163SOPE  C21618303   1.748   0.573   8.774 -0.3850  0.1101 -0.1118
  163SOPE  H16R18304   1.771   0.682   8.778 -0.7938  0.1476  2.1724
  163SOPE  H16S18305   1.653   0.573   8.717 -1.8698  1.1975  2.2905
  163SOPE  C21718306   1.852   0.487   8.690  0.5740  0.2973  0.3776
  163SOPE  H17R18307   1.804   0.390   8.669  3.4605 -0.9747 -0.6629
  163SOPE  H17S18308   1.950   0.476   8.743  1.1946  2.0745 -0.3289
  163SOPE  C21818309   1.877   0.553   8.552  0.9163  0.0374 -0.4681
  163SOPE  H18R18310   1.874   0.472   8.477 -1.6124  0.9410 -1.3992
  163SOPE  H18S18311   1.971   0.611   8.538 -0.4345  2.4182 -0.0044
  163SOPE  H18T18312   1.793   0.619   8.522 -0.0999 -1.3488 -0.6990
  163SOPE   C3318313   2.385   0.043  10.072  0.0390 -0.4596  0.2570
  163SOPE   H3X18314   2.423  -0.047  10.018 -2.3983  0.3706 -3.0426
  163SOPE   H3Y18315   2.456   0.120  10.037  1.1695 -1.8114 -0.4954
  163SOPE   C3418316   2.247   0.078  10.019 -0.1871  0.4406 -0.1566
  163SOPE   H4X18317   2.214   0.180  10.049 -0.5811  0.3594 -0.3208
  163SOPE   H4Y18318   2.171   0.004  10.052  0.7770 -1.6336 -2.4302
  163SOPE   C3518319   2.231   0.067   9.867 -0.2245  0.2955  0.7957
  163SOPE   H5X18320   2.126   0.095   9.844  0.7345  1.5941 -2.2551
  163SOPE   H5Y18321   2.261  -0.036   9.838  0.2029  0.5005  0.5044
  163SOPE   C3618322   2.316   0.159   9.775  0.2918  0.2299 -0.2357
  163SOPE   H6X18323   2.422   0.151   9.808  0.4165 -0.3926 -0.7912
  163SOPE   H6Y18324   2.293   0.266   9.794  1.8707  0.3082  1.3143
  163SOPE   C3718325   2.289   0.135   9.633  0.1111  0.0281 -0.4894
  163SOPE   H7X18326   2.179   0.118   9.627 -0.3071  1.7207  1.8320
  163SOPE   H7Y18327   2.337   0.043   9.594 -0.3808 -0.4734  0.0682
  163SOPE   C3818328   2.321   0.259   9.550 -0.1993 -0.9125 -0.3149
  163SOPE   H8X18329   2.426   0.286   9.575 -0.0041 -1.6909 -0.2952
  163SOPE   H8Y18330   2.259   0.349   9.570  2.6917  1.1230 -0.0988
  163SOPE   C3918331   2.318   0.229   9.402  0.3094 -0.1466  0.2101
  163SOPE   H9X18332   2.214   0.202   9.375  0.2541 -0.0981  0.3762
  163SOPE   H9Y18333   2.381   0.144   9.368 -0.2689  0.0487 -1.4097
  163SOPE  C31018334   2.372   0.356   9.324 -0.2927  0.8573  0.2082
  163SOPE  H10X18335   2.481   0.372   9.337 -0.0783  0.0650 -0.5875
  163SOPE  H10Y18336   2.323   0.445   9.369  0.1062  0.5240  1.2975
  163SOPE  C31118337   2.359   0.345   9.177  1.5596 -0.1391 -0.1198
  163SOPE  H11X18338   2.258   0.310   9.149  2.0420 -0.1077 -1.9319
  163SOPE  H11Y18339   2.432   0.275   9.131  1.2247 -0.5833  0.0222
  163SOPE  C31218340   2.399   0.478   9.111  0.2526 -0.0388  0.6534
  163SOPE  H12X18341   2.504   0.495   9.140  0.1567  0.4423  0.7191
  163SOPE  H12Y18342   2.335   0.560   9.150  1.2492  0.9885  0.1458
  163SOPE  C31318343   2.401   0.473   8.958  0.4069  0.0247 -0.2153
  163SOPE  H13X18344   2.497   0.428   8.927 -0.2001 -0.4016 -1.4970
  163SOPE  H13Y18345   2.425   0.577   8.926  1.0892 -0.1512 -0.2855
  163SOPE  C31418346   2.277   0.404   8.890  0.0670  0.4885 -0.1263
  163SOPE  H14X18347   2.187   0.454   8.933 -0.0746  0.4022 -0.3242
  163SOPE  H14Y18348   2.270   0.301   8.930 -0.9309  0.1351 -1.1863
  163SOPE  C31518349   2.275   0.386   8.737  0.8212 -0.3131  0.2409
  163SOPE  H15X18350   2.322   0.475   8.690 -0.6813  0.6988  0.6397
  163SOPE  H15Y18351   2.173   0.385   8.693  1.5161 -1.0487 -1.4122
  163SOPE  C31618352   2.352   0.260   8.691  0.3277 -0.5777  0.3173
  163SOPE  H16X18353   2.296   0.179   8.742  1.9915 -0.2312  2.7696
  163SOPE  H16Y18354   2.454   0.252   8.734 -0.7221  2.1705  3.5350
  163SOPE  C31718355   2.359   0.242   8.539 -0.4125 -0.6105  0.7983
  163SOPE  H17X18356   2.436   0.166   8.513 -0.7417 -0.0511 -1.9227
  163SOPE  H17Y18357   2.397   0.337   8.495  0.1068  0.0493  2.6324
  163SOPE  C31818358   2.238   0.199   8.465  0.2105 -0.0723  0.2655
  163SOPE  H18X18359   2.150   0.246   8.516 -0.4735  0.1043 -1.0407
  163SOPE  H18Y18360   2.209   0.093   8.480 -0.0566 -0.1165 -0.5212
  163SOPE  H18Z18361   2.229   0.234   8.359  0.9182  0.7831  0.4835
  164SOPE     N18362   4.288   4.904  10.754  0.2365  0.7200  0.2107
  164SOPE   HN118363   4.328   4.893  10.659 -0.8764  0.7118 -0.2707
  164SOPE   HN218364   4.357   4.857  10.816 -1.2049  1.2398  2.2977
  164SOPE   HN318365   4.197   4.855  10.765  0.6413 -0.6988 -2.3728
  164SOPE   C1218366   4.296   5.054  10.763 -0.1511 -0.0259 -0.0147
  164SOPE  H12A18367   4.231   5.092  10.845 -0.6723 -0.2356 -0.3277
  164SOPE  H12B18368   4.253   5.096  10.670  0.5475  1.5236  0.3615
  164SOPE   C1118369   4.436   5.110  10.788  0.7474  0.6028  0.4038
  164SOPE  H11A18370   4.465   5.101  10.895  2.8028  1.0736 -0.0876
  164SOPE  H11B18371   4.425   5.218  10.765  1.8743  0.8020  0.7792
  164SOPE     P18372   4.681   5.047  10.718 -0.0513 -0.0270  0.0616
  164SOPE   O1318373   4.734   4.968  10.605 -0.1280 -0.5040 -0.3981
  164SOPE   O1418374   4.724   5.007  10.855 -0.0879 -0.1037  0.2500
  164SOPE   O1218375   4.528   5.051  10.704  0.2119  0.0904 -0.4374
  164SOPE   O1118376   4.720   5.197  10.708 -1.0330  0.4211  0.0844
  164SOPE    C118377   4.675   5.294  10.609 -0.8596 -0.1505  0.1511
  164SOPE    HA18378   4.690   5.394  10.654  1.4603 -1.0638  1.4400
  164SOPE    HB18379   4.566   5.288  10.588 -0.6963 -0.6879 -0.5856
  164SOPE    C218380   4.745   5.271  10.474  0.1252  0.1427  0.4069
  164SOPE    HS18381   4.728   5.167  10.441  1.7716  0.4096 -1.3822
  164SOPE   O2118382   4.887   5.312  10.487  0.4916  0.5479 -0.1298
  164SOPE   C2118383   4.973   5.253  10.403  0.0549 -0.3776 -0.5005
  164SOPE   O2218384   4.938   5.165  10.327  0.5879 -0.6467  0.0072
  164SOPE   C2218385   5.114   5.310  10.412 -0.3851 -0.0734 -0.4309
  164SOPE   H2R18386   5.172   5.247  10.483  0.9907 -0.6925 -2.0664
  164SOPE   H2S18387   5.102   5.412  10.454  1.7914  0.0528 -0.0501
  164SOPE    C318388   4.673   5.349  10.358 -0.5489  0.0337  0.5527
  164SOPE    HX18389   4.678   5.455  10.388  1.1443 -0.7417  3.1958
  164SOPE    HY18390   4.569   5.311  10.355 -0.9087  1.0596  0.1372
  164SOPE   O3118391   4.739   5.329  10.231 -0.3265 -0.3073 -0.1756
  164SOPE   C3118392   4.691   5.240  10.153 -1.0161 -0.8395 -0.4972
  164SOPE   O3218393   4.592   5.171  10.166 -0.5556  0.3207  0.0096
  164SOPE   C3218394   4.774   5.240  10.023 -0.0133 -0.1342  0.6927
  164SOPE   H2X18395   4.829   5.143  10.025 -1.2793 -0.8925 -0.3313
  164SOPE   H2Y18396   4.855   5.316  10.026  0.2304 -0.4393  2.7047
  164SOPE   C2318397   5.189   5.303  10.276 -0.5189  0.7683 -0.2256
  164SOPE   H3R18398   5.168   5.201  10.238 -2.3515  1.3231 -0.7830
  164SOPE   H3S18399   5.296   5.325  10.296 -0.1185  0.0571 -1.5141
  164SOPE   C2418400   5.136   5.394  10.167 -0.1680  0.6933  0.1441
  164SOPE   H4R18401   5.036   5.357  10.136  0.3775 -1.8729  1.2495
  164SOPE   H4S18402   5.122   5.495  10.211 -1.6610  1.0800 -1.1878
  164SOPE   C2518403   5.215   5.398  10.031 -0.1035 -0.2858 -0.1917
  164SOPE   H5R18404   5.313   5.443  10.058  0.2051 -0.7693 -0.5047
  164SOPE   H5S18405   5.230   5.293   9.998 -2.7388 -0.5677 -0.5817
  164SOPE   C2618406   5.152   5.483   9.919 -0.4706  0.2238  0.0693
  164SOPE   H6R18407   5.044   5.460   9.922 -0.1656 -1.2750 -0.1941
  164SOPE   H6S18408   5.172   5.591   9.933  0.3156  0.3741 -2.0390
  164SOPE   C2718409   5.207   5.453   9.778  0.6500  0.4522 -0.2924
  164SOPE   H7R18410   5.310   5.488   9.753  0.5739  1.9392  1.4388
  164SOPE   H7S18411   5.198   5.347   9.746 -0.8316  0.7366 -0.8452
  164SOPE   C2818412   5.115   5.527   9.678  0.1062  0.5637  0.1697
  164SOPE   H8R18413   5.012   5.486   9.693 -0.8496  2.4152 -1.0697
  164SOPE   H8S18414   5.107   5.634   9.710 -0.9579  0.8283 -0.9214
  164SOPE   C2918415   5.159   5.499   9.532 -0.5693 -0.6153  0.5565
  164SOPE   H9118416   5.149   5.398   9.491  1.1937  0.1663 -1.9716
  164SOPE  C21018417   5.195   5.603   9.448  0.0102 -0.7719  0.1832
  164SOPE  H10118418   5.225   5.580   9.344  2.1637  4.3479 -0.4564
  164SOPE  C21118419   5.212   5.748   9.486  0.1306  0.1874  0.2676
  164SOPE  H11R18420   5.289   5.795   9.421 -1.4233  0.4646 -1.4068
  164SOPE  H11S18421   5.245   5.765   9.590  0.8932  0.4812 -0.0167
  164SOPE  C21218422   5.084   5.830   9.464 -0.2180  0.9784  0.3226
  164SOPE  H12R18423   5.027   5.815   9.559 -2.1543  2.6088 -0.5496
  164SOPE  H12S18424   5.025   5.801   9.375  0.3998  3.3102 -0.8900
  164SOPE  C21318425   5.110   5.984   9.469 -0.6042  0.7060 -0.2746
  164SOPE  H13R18426   5.010   6.033   9.469  0.1012  2.1864 -1.4462
  164SOPE  H13S18427   5.175   6.007   9.382  0.6431 -0.3498  0.3545
  164SOPE  C21418428   5.176   6.039   9.599 -0.0432 -0.1169  0.5827
  164SOPE  H14R18429   5.164   6.150   9.598 -1.6428 -0.2844 -1.0693
  164SOPE  H14S18430   5.285   6.021   9.611  0.3130  0.2696 -1.7909
  164SOPE  C21518431   5.115   5.981   9.728  0.5980  0.4379  0.0655
  164SOPE  H15R18432   5.139   5.873   9.734 -1.2200  0.0557  0.9447
  164SOPE  H15S18433   5.005   5.981   9.708  0.5165  0.3462  0.5053
  164SOPE  C21618434   5.176   6.044   9.855  0.8441 -0.1698 -0.5162
  164SOPE  H16R18435   5.166   6.154   9.847 -2.7557 -0.6309 -4.0025
  164SOPE  H16S18436   5.283   6.018   9.861  0.7384 -0.3400  0.6962
  164SOPE  C21718437   5.108   6.001   9.992  0.1634  0.1297 -0.4887
  164SOPE  H17R18438   5.171   6.047  10.071  0.7144  1.8895 -1.9281
  164SOPE  H17S18439   5.132   5.894  10.008 -1.1793  0.2611  2.7749
  164SOPE  C21818440   4.965   6.036  10.017 -0.5833  0.4130  0.2983
  164SOPE  H18R18441   4.905   5.961   9.961 -2.3550  1.2395  1.0205
  164SOPE  H18S18442   4.950   6.138   9.974 -0.4531  0.3438  0.0878
  164SOPE  H18T18443   4.954   6.026  10.127  0.2598  0.8898  0.4316
  164SOPE   C3318444   4.687   5.248   9.894 -0.4819 -0.7852 -0.2561
  164SOPE   H3X18445   4.665   5.356   9.884  3.3760  0.2636  1.3028
  164SOPE   H3Y18446   4.615   5.164   9.899 -0.1338 -1.0567  0.3055
  164SOPE   C3418447   4.779   5.218   9.771 -0.0694  0.4077 -0.5642
  164SOPE   H4X18448   4.835   5.129   9.808  3.6914  3.1108  0.5676
  164SOPE   H4Y18449   4.846   5.306   9.757 -0.4613  0.5915 -1.3241
  164SOPE   C3518450   4.698   5.188   9.641  0.9467  0.1175 -0.3885
  164SOPE   H5X18451   4.621   5.266   9.623 -0.5009 -0.6895  2.0632
  164SOPE   H5Y18452   4.632   5.101   9.659 -0.2270  0.5624 -2.3964
  164SOPE   C3618453   4.773   5.180   9.510 -0.1635 -0.0077 -0.2443
  164SOPE   H6X18454   4.835   5.088   9.506 -0.6041 -0.2326 -2.0280
  164SOPE   H6Y18455   4.838   5.269   9.492 -0.9472  0.5841 -0.1574
  164SOPE   C3718456   4.670   5.160   9.399 -0.1869 -0.1107  0.4284
  164SOPE   H7X18457   4.618   5.254   9.372  2.5390  1.2437 -0.2619
  164SOPE   H7Y18458   4.602   5.078   9.431  0.0609 -0.6196 -0.3473
  164SOPE   C3818459   4.721   5.109   9.265  0.6838 -0.2273  0.0254
  164SOPE   H8X18460   4.772   5.014   9.293 -0.6046 -1.4947 -1.8205
  164SOPE   H8Y18461   4.792   5.178   9.216 -2.3929  1.4799 -2.1841
  164SOPE   C3918462   4.605   5.093   9.160 -0.0404 -0.6763  0.5513
  164SOPE   H9X18463   4.520   5.057   9.223 -1.0774 -1.9706 -1.5482
  164SOPE   H9Y18464   4.634   5.025   9.077  0.3856  2.7131 -2.1605
  164SOPE  C31018465   4.569   5.222   9.094 -0.4418  0.4114 -0.1954
  164SOPE  H10X18466   4.664   5.265   9.055  0.8978 -1.5249  0.7933
  164SOPE  H10Y18467   4.541   5.295   9.172  0.7582 -3.8361  4.5223
  164SOPE  C31118468   4.456   5.209   8.988 -0.5867  0.0219 -0.4283
  164SOPE  H11X18469   4.358   5.172   9.024 -0.3288  0.0960  0.3735
  164SOPE  H11Y18470   4.491   5.124   8.925  1.8761  0.7527 -0.1202
  164SOPE  C31218471   4.443   5.338   8.910 -0.1650  0.2163 -0.6763
  164SOPE  H12X18472   4.395   5.407   8.982 -2.0688  0.1741 -1.8637
  164SOPE  H12Y18473   4.374   5.313   8.826 -0.8984 -0.9658  0.2390
  164SOPE  C31318474   4.575   5.404   8.855 -0.5341  0.3027 -0.0629
  164SOPE  H13X18475   4.631   5.333   8.791 -2.3574  1.3117 -2.8956
  164SOPE  H13Y18476   4.632   5.453   8.937 -1.2695  2.1772 -0.6465
  164SOPE  C31418477   4.555   5.527   8.766 -0.7345 -0.0860 -0.2110
  164SOPE  H14X18478   4.502   5.606   8.825 -0.1111  1.5987 -1.8557
  164SOPE  H14Y18479   4.483   5.497   8.687  1.4437 -1.0461 -1.8699
  164SOPE  C31518480   4.682   5.578   8.695 -0.7528 -0.4162  0.2282
  164SOPE  H15X18481   4.659   5.609   8.591  0.3425  1.0755  0.4148
  164SOPE  H15Y18482   4.754   5.494   8.680  1.3632  1.2756  0.7317
  164SOPE  C31618483   4.762   5.693   8.765 -0.7271  0.8261  0.0556
  164SOPE  H16X18484   4.863   5.723   8.731 -0.2659  1.0098  1.5619
  164SOPE  H16Y18485   4.779   5.655   8.868 -1.7494 -1.0712 -0.4634
  164SOPE  C31718486   4.683   5.822   8.787 -0.0532 -0.3791  0.5660
  164SOPE  H17X18487   4.587   5.808   8.840 -1.5025  3.6345 -0.8157
  164SOPE  H17Y18488   4.648   5.856   8.687 -0.7917  2.2909  1.6957
  164SOPE  C31818489   4.773   5.927   8.845  0.6463 -0.2102 -0.0486
  164SOPE  H18X18490   4.735   6.032   8.842  0.2791 -0.3179  0.8554
  164SOPE  H18Y18491   4.862   5.919   8.779 -0.0897 -3.7074 -0.6995
  164SOPE  H18Z18492   4.792   5.896   8.950 -3.0402  1.7709  1.2812
  165SOPE     N18493   3.769   6.248  11.119 -0.5046 -0.2580 -0.9413
  165SOPE   HN118494   3.780   6.347  11.090  2.2207 -0.4457 -0.6772
  165SOPE   HN218495   3.722   6.248  11.212 -0.1788  0.4538 -0.7756
  165SOPE   HN318496   3.862   6.205  11.139 -1.0052 -1.5808 -1.4296
  165SOPE   C1218497   3.693   6.165  11.023 -0.3935 -0.3848  0.4984
  165SOPE  H12A18498   3.726   6.060  11.038  2.2659  0.2184 -0.7016
  165SOPE  H12B18499   3.725   6.196  10.921 -0.1352  0.6316  0.8770
  165SOPE   C1118500   3.536   6.199  11.030  0.4156  0.1799  0.2376
  165SOPE  H11A18501   3.512   6.159  11.131 -0.6865 -1.2146 -0.5723
  165SOPE  H11B18502   3.478   6.145  10.953 -0.1514 -0.4060  1.0710
  165SOPE     P18503   3.508   6.423  10.909  0.1272 -0.5381 -0.2126
  165SOPE   O1318504   3.548   6.556  10.951  0.4815  0.6581  0.5923
  165SOPE   O1418505   3.375   6.422  10.846  0.7932  0.5082  0.0491
  165SOPE   O1218506   3.514   6.335  11.034 -0.9189 -0.0123 -0.4140
  165SOPE   O1118507   3.613   6.359  10.803  0.7149 -0.5428 -0.0166
  165SOPE    C118508   3.702   6.444  10.725  0.9229 -0.7431  0.3603
  165SOPE    HA18509   3.801   6.394  10.722  1.7757  0.9334 -0.7260
  165SOPE    HB18510   3.714   6.548  10.762 -0.0777 -0.4471 -0.1423
  165SOPE    C218511   3.663   6.456  10.576  0.3908  1.0023 -0.7197
  165SOPE    HS18512   3.570   6.515  10.563 -0.7699 -0.7203 -0.3184
  165SOPE   O2118513   3.658   6.323  10.512 -0.2510 -0.1885  0.4881
  165SOPE   C2118514   3.563   6.315  10.418 -0.2087 -0.5211  0.0145
  165SOPE   O2218515   3.466   6.388  10.399  0.1290 -0.2097  0.0564
  165SOPE   C2218516   3.584   6.185  10.346 -0.4359 -0.6411  0.5772
  165SOPE   H2R18517   3.567   6.108  10.424 -0.1971 -1.3475 -0.0635
  165SOPE   H2S18518   3.693   6.175  10.328 -0.0380 -2.0204  3.4566
  165SOPE    C318519   3.770   6.538  10.497 -0.0115  0.1436 -0.3251
  165SOPE    HX18520   3.852   6.464  10.484 -0.3533 -0.0730 -1.2878
  165SOPE    HY18521   3.808   6.629  10.547 -0.1291 -0.1212  0.2436
  165SOPE   O3118522   3.720   6.565  10.371 -0.4889 -0.1126  0.2733
  165SOPE   C3118523   3.642   6.676  10.381  0.3658  0.1449 -0.0456
  165SOPE   O3218524   3.605   6.738  10.475 -0.3767 -1.0189  0.4435
  165SOPE   C3218525   3.588   6.694  10.239 -0.2361 -1.1973 -1.3851
  165SOPE   H2X18526   3.574   6.805  10.239  1.8501 -0.8976 -0.1227
  165SOPE   H2Y18527   3.491   6.644  10.225 -0.3937 -0.9879 -1.0437
  165SOPE   C2318528   3.498   6.168  10.223 -1.0379  0.3776  0.0130
  165SOPE   H3R18529   3.391   6.190  10.244 -1.1862  0.3189 -0.6530
  165SOPE   H3S18530   3.501   6.062  10.188  0.5379  0.7246 -0.9509
  165SOPE   C2418531   3.537   6.258  10.105 -0.5990  0.6490  0.0385
  165SOPE   H4R18532   3.548   6.362  10.144 -1.6527  0.2736  1.3455
  165SOPE   H4S18533   3.636   6.226  10.067 -0.7314  1.6277 -1.1687
  165SOPE   C2518534   3.435   6.243   9.996 -0.3439 -1.0473 -0.0496
  165SOPE   H5R18535   3.434   6.134   9.974 -2.4705 -1.0017 -0.3818
  165SOPE   H5S18536   3.332   6.265  10.031  0.3059 -0.8067  1.7253
  165SOPE   C2618537   3.476   6.315   9.861  0.2670  0.2744 -0.5290
  165SOPE   H6R18538   3.513   6.415   9.891 -2.1587  1.4246 -1.2423
  165SOPE   H6S18539   3.564   6.267   9.814  2.6079  1.9741  1.9399
  165SOPE   C2718540   3.360   6.327   9.765  0.3978 -0.6929 -0.2939
  165SOPE   H7R18541   3.319   6.226   9.741 -2.0181  0.4000 -0.8559
  165SOPE   H7S18542   3.280   6.388   9.811  0.5825 -0.6834  0.0161
  165SOPE   C2818543   3.399   6.406   9.642 -0.0036 -0.7388  0.0322
  165SOPE   H8R18544   3.307   6.408   9.579  0.3312 -0.6328 -0.4543
  165SOPE   H8S18545   3.441   6.507   9.661  0.6695 -1.0678  0.3091
  165SOPE   C2918546   3.505   6.331   9.564  0.5295  0.0845  0.1590
  165SOPE   H9118547   3.533   6.235   9.610 -0.9110 -0.6415 -0.4500
  165SOPE  C21018548   3.571   6.375   9.451  0.0830  0.2791  0.3553
  165SOPE  H10118549   3.656   6.316   9.413 -0.4627  1.0383 -2.1299
  165SOPE  C21118550   3.551   6.508   9.381 -0.1455 -0.5645  0.6100
  165SOPE  H11R18551   3.651   6.555   9.369 -0.6589  0.9885  2.1427
  165SOPE  H11S18552   3.483   6.575   9.438 -0.0504  1.3074 -1.4289
  165SOPE  C21218553   3.501   6.498   9.237 -0.6128 -0.8829 -0.5569
  165SOPE  H12R18554   3.468   6.602   9.214  0.9718 -0.4255 -0.7699
  165SOPE  H12S18555   3.412   6.432   9.228  0.2942 -1.9047 -2.3195
  165SOPE  C21318556   3.614   6.462   9.140 -0.1568  0.0788 -0.9805
  165SOPE  H13R18557   3.658   6.360   9.154 -1.2557 -0.2554  0.1048
  165SOPE  H13S18558   3.697   6.536   9.146 -0.5005  0.3534  0.6943
  165SOPE  C21418559   3.580   6.476   8.983  0.0549 -0.1750  0.2921
  165SOPE  H14R18560   3.675   6.438   8.939  0.2099  0.6724 -0.1343
  165SOPE  H14S18561   3.561   6.581   8.949 -0.2115 -1.6366 -4.4686
  165SOPE  C21518562   3.472   6.385   8.943 -0.0664  0.0710 -0.1504
  165SOPE  H15R18563   3.385   6.393   9.010 -0.0464 -0.7136 -0.0219
  165SOPE  H15S18564   3.515   6.283   8.957  2.4956  1.0686 -0.3524
  165SOPE  C21618565   3.416   6.404   8.804  0.2163  0.1776 -0.4827
  165SOPE  H16R18566   3.364   6.502   8.794 -0.2571 -0.2935 -3.1041
  165SOPE  H16S18567   3.334   6.334   8.781  2.6608 -2.7163 -0.7283
  165SOPE  C21718568   3.521   6.389   8.694 -0.1094  0.2132 -0.5594
  165SOPE  H17R18569   3.623   6.428   8.716 -0.0191  0.1491 -0.8642
  165SOPE  H17S18570   3.487   6.444   8.604  1.8152  0.6993 -1.0080
  165SOPE  C21818571   3.550   6.243   8.671  0.0604 -0.5497  0.2276
  165SOPE  H18R18572   3.578   6.193   8.767  0.1868 -0.6294  0.1477
  165SOPE  H18S18573   3.638   6.223   8.607 -0.2935 -3.2429  0.5199
  165SOPE  H18T18574   3.464   6.176   8.647  0.9241 -1.6051  0.0245
  165SOPE   C3318575   3.691   6.660  10.125  0.1132  0.3492 -0.6090
  165SOPE   H3X18576   3.701   6.551  10.108  2.5345  0.5770 -0.7737
  165SOPE   H3Y18577   3.791   6.700  10.153 -0.7405  2.5430 -0.5909
  165SOPE   C3418578   3.649   6.719   9.993  0.4796  0.1424  0.1521
  165SOPE   H4X18579   3.625   6.826  10.012  3.1787  0.3573  2.7429
  165SOPE   H4Y18580   3.558   6.664   9.963 -0.4934  1.4925  0.5727
  165SOPE   C3518581   3.748   6.705   9.879  0.8040  0.9792 -0.9546
  165SOPE   H5X18582   3.780   6.599   9.878  0.3515  0.7797  1.3912
  165SOPE   H5Y18583   3.829   6.775   9.908  1.5605 -0.1359 -0.3486
  165SOPE   C3618584   3.691   6.747   9.741  0.4640  0.2007 -0.0214
  165SOPE   H6X18585   3.652   6.851   9.740 -1.9763 -0.6972 -0.7771
  165SOPE   H6Y18586   3.601   6.687   9.713  1.6473 -2.5336  1.7515
  165SOPE   C3718587   3.796   6.736   9.620 -0.6433 -0.5788  0.3154
  165SOPE   H7X18588   3.834   6.636   9.592  0.7192 -0.0410  0.1983
  165SOPE   H7Y18589   3.882   6.796   9.657 -2.6758  2.3079  0.5915
  165SOPE   C3818590   3.739   6.805   9.490  0.4686  0.3301 -0.2575
  165SOPE   H8X18591   3.717   6.911   9.512  2.0391  0.8262 -1.0422
  165SOPE   H8Y18592   3.648   6.744   9.472 -1.1184  2.7763 -0.6433
  165SOPE   C3918593   3.831   6.780   9.371 -1.3409 -0.6181 -0.1168
  165SOPE   H9X18594   3.845   6.671   9.354  0.0148 -0.5005  0.2258
  165SOPE   H9Y18595   3.926   6.836   9.386 -0.8729 -1.2733 -0.6238
  165SOPE  C31018596   3.769   6.833   9.235  0.1033  0.0244  0.0823
  165SOPE  H10X18597   3.768   6.943   9.252  0.5070  0.3378 -1.7915
  165SOPE  H10Y18598   3.664   6.800   9.228  0.7119 -2.8090  2.9725
  165SOPE  C31118599   3.851   6.774   9.119 -0.5270 -0.2509 -0.2645
  165SOPE  H11X18600   3.860   6.663   9.129  1.0668 -0.0314  0.9555
  165SOPE  H11Y18601   3.957   6.809   9.113 -0.7835  0.4137 -0.9290
  165SOPE  C31218602   3.775   6.806   8.985  0.0877  0.1230  0.1412
  165SOPE  H12X18603   3.750   6.914   8.988 -1.8218 -0.3105  0.2931
  165SOPE  H12Y18604   3.674   6.760   8.989 -0.3599  1.2382  2.2783
  165SOPE  C31318605   3.835   6.749   8.854  0.1330 -0.4080 -0.1455
  165SOPE  H13X18606   3.860   6.641   8.865 -0.2328 -0.4174  0.6185
  165SOPE  H13Y18607   3.924   6.807   8.823 -2.6767  2.0648 -3.9798
  165SOPE  C31418608   3.736   6.772   8.745  0.2535 -0.5101  0.4465
  165SOPE  H14X18609   3.717   6.881   8.731 -2.7426 -0.8677  1.2816
  165SOPE  H14Y18610   3.637   6.725   8.765 -0.1107 -0.3869 -0.9741
  165SOPE  C31518611   3.783   6.711   8.614 -0.9681  0.0936 -0.0693
  165SOPE  H15X18612   3.781   6.600   8.622 -1.2296  0.2071  1.5530
  165SOPE  H15Y18613   3.886   6.749   8.595 -1.1143 -0.3949 -1.9443
  165SOPE  C31618614   3.702   6.756   8.494 -0.0090  0.2262 -0.8221
  165SOPE  H16X18615   3.751   6.709   8.406 -0.3164 -1.7497  0.0401
  165SOPE  H16Y18616   3.712   6.866   8.483  0.9994  0.0123 -2.1734
  165SOPE  C31718617   3.558   6.718   8.485  0.1488 -0.2490  0.2325
  165SOPE  H17X18618   3.505   6.759   8.574  1.5366 -0.5993  1.2263
  165SOPE  H17Y18619   3.556   6.607   8.481  0.3539 -0.2643  0.5171
  165SOPE  C31818620   3.501   6.750   8.350  0.0592  0.0478  0.0069
  165SOPE  H18X18621   3.561   6.709   8.265 -0.3766  0.7801 -0.6522
  165SOPE  H18Y18622   3.499   6.860   8.333 -1.4071  0.3148  1.8426
  165SOPE  H18Z18623   3.397   6.713   8.356  0.3371 -0.3907  2.2580
  166SOPE     N18624   6.415   6.220  11.006  0.1042  0.0956  0.2031
  166SOPE   HN118625   6.466   6.298  11.053  0.8830 -0.1571 -0.2048
  166SOPE   HN218626   6.328   6.206  11.060  0.7861 -0.1168  1.2729
  166SOPE   HN318627   6.473   6.134  11.015 -0.1737  0.0292  1.4014
  166SOPE   C1218628   6.396   6.255  10.861 -0.5776  0.4256 -0.4198
  166SOPE  H12A18629   6.317   6.333  10.861 -0.3816  0.6314 -1.6193
  166SOPE  H12B18630   6.345   6.169  10.812 -0.1200  1.1992 -2.2944
  166SOPE   C1118631   6.528   6.302  10.799  0.7302  0.5981 -0.2001
  166SOPE  H11A18632   6.561   6.396  10.850 -1.5572  1.5423 -0.3935
  166SOPE  H11B18633   6.501   6.318  10.692 -0.7496  0.3595  0.1256
  166SOPE     P18634   6.759   6.219  10.738  0.0412  0.3908  0.1192
  166SOPE   O1318635   6.840   6.097  10.756  0.6977  0.3376  0.4823
  166SOPE   O1418636   6.820   6.350  10.775 -0.4119 -0.1581 -0.3768
  166SOPE   O1218637   6.625   6.188  10.808 -0.1085  0.4015  0.4225
  166SOPE   O1118638   6.711   6.220  10.587  0.5238 -0.2352  0.0233
  166SOPE    C118639   6.658   6.094  10.538  0.1242  0.2853  0.8350
  166SOPE    HA18640   6.576   6.112  10.465  0.1961 -0.3976  0.5751
  166SOPE    HB18641   6.617   6.031  10.620  0.9506  0.1934  1.1885
  166SOPE    C218642   6.765   6.010  10.470  0.0811 -0.1888 -0.6716
  166SOPE    HS18643   6.847   5.999  10.546  2.2815  0.1897 -2.9245
  166SOPE   O2118644   6.816   6.085  10.357 -0.2278 -0.8316 -0.0937
  166SOPE   C2118645   6.915   6.036  10.295 -0.1974 -0.1182  0.0382
  166SOPE   O2218646   6.987   5.947  10.339 -0.3579  0.7581  0.0410
  166SOPE   C2218647   6.929   6.119  10.170  0.0273 -0.4678  0.3344
  166SOPE   H2R18648   6.936   6.221  10.213  0.7923  0.7780 -2.6157
  166SOPE   H2S18649   6.837   6.120  10.108  0.3830  2.8743 -0.2693
  166SOPE    C318650   6.709   5.877  10.431 -0.1766 -0.1831  0.0307
  166SOPE    HX18651   6.635   5.851  10.509 -2.9611  0.9246 -2.1408
  166SOPE    HY18652   6.793   5.805  10.421 -0.3310 -0.1656 -1.5092
  166SOPE   O3118653   6.652   5.881  10.297  0.2671  0.3065  0.0051
  166SOPE   C3118654   6.529   5.878  10.286 -0.4369  0.2127 -0.0860
  166SOPE   O3218655   6.450   5.886  10.378 -0.3700  0.1125  0.1885
  166SOPE   C3218656   6.493   5.862  10.139  0.0123  0.3504  0.7744
  166SOPE   H2X18657   6.383   5.876  10.130 -0.6763 -3.7323  1.7625
  166SOPE   H2Y18658   6.527   5.766  10.095 -2.1306  0.2679 -0.7996
  166SOPE   C2318659   7.053   6.087  10.081 -0.7569 -0.5394  0.1984
  166SOPE   H3R18660   7.017   5.992  10.035 -3.1052  1.6340 -2.7211
  166SOPE   H3S18661   7.151   6.084  10.133 -0.9089 -0.8061  0.4693
  166SOPE   C2418662   7.079   6.182   9.966  0.8025  0.7488 -0.2128
  166SOPE   H4R18663   7.101   6.283  10.007 -1.8908  2.1568 -2.0780
  166SOPE   H4S18664   7.163   6.153   9.900 -0.1749 -1.0054 -0.6942
  166SOPE   C2518665   6.957   6.193   9.883 -0.5551  0.2802  0.1043
  166SOPE   H5R18666   6.935   6.089   9.852 -0.1664  0.1861  0.1330
  166SOPE   H5S18667   6.873   6.245   9.934 -0.4429  0.4794  0.0875
  166SOPE   C2618668   6.998   6.268   9.754 -0.5129 -0.2302  0.3022
  166SOPE   H6R18669   6.999   6.373   9.791 -0.9683 -0.4346  0.9100
  166SOPE   H6S18670   7.095   6.238   9.709 -0.2296  1.5543 -0.3251
  166SOPE   C2718671   6.881   6.254   9.645 -0.5250 -0.2954  0.8474
  166SOPE   H7R18672   6.900   6.157   9.594 -0.6624  0.2392 -0.2345
  166SOPE   H7S18673   6.785   6.256   9.700 -0.9979  0.3578  0.0085
  166SOPE   C2818674   6.887   6.374   9.546 -0.4237  0.5708  0.4117
  166SOPE   H8R18675   6.787   6.361   9.499 -0.2662 -1.3415  0.5661
  166SOPE   H8S18676   6.890   6.463   9.612 -2.1678  1.3585 -0.5203
  166SOPE   C2918677   6.994   6.373   9.444 -0.4432  0.2296  0.4277
  166SOPE   H9118678   7.087   6.406   9.493 -0.9282  2.1409  0.0705
  166SOPE  C21018679   6.995   6.350   9.313  0.4489 -0.1555  0.0256
  166SOPE  H10118680   7.088   6.362   9.256  1.1838 -0.7873  1.0991
  166SOPE  C21118681   6.882   6.309   9.223 -0.2959 -0.4284  0.2858
  166SOPE  H11R18682   6.791   6.311   9.287 -1.6614  0.0803 -1.6347
  166SOPE  H11S18683   6.898   6.204   9.193  3.2786  0.2847 -0.5447
  166SOPE  C21218684   6.847   6.403   9.106  0.0890  0.6740  0.6062
  166SOPE  H12R18685   6.774   6.351   9.040  0.3648  1.4126 -0.3039
  166SOPE  H12S18686   6.941   6.407   9.047 -2.1153  1.3368 -3.0216
  166SOPE  C21318687   6.816   6.548   9.135 -0.4773  0.2076  0.1348
  166SOPE  H13R18688   6.885   6.589   9.213  0.9203  0.8710 -1.4152
  166SOPE  H13S18689   6.713   6.560   9.176  0.0379  0.2925  1.4314
  166SOPE  C21418690   6.842   6.646   9.015 -0.0963 -0.1796  0.3645
  166SOPE  H14R18691   6.949   6.643   8.985 -0.0626  1.1706  0.3591
  166SOPE  H14S18692   6.824   6.748   9.054 -0.9817 -0.5484  0.9176
  166SOPE  C21518693   6.753   6.628   8.888  0.0732  0.5089 -0.4376
  166SOPE  H15R18694   6.644   6.628   8.911  0.2695 -0.9053  0.4995
  166SOPE  H15S18695   6.773   6.530   8.841 -0.6458 -0.0702  0.4495
  166SOPE  C21618696   6.785   6.734   8.783 -0.8412 -0.3141 -0.2447
  166SOPE  H16R18697   6.892   6.712   8.760 -1.6092 -2.2016 -2.2166
  166SOPE  H16S18698   6.785   6.837   8.824  0.9457 -0.5538  0.4372
  166SOPE  C21718699   6.716   6.706   8.659 -0.1524  0.6743  0.7459
  166SOPE  H17R18700   6.607   6.717   8.678 -0.4589 -0.4365 -0.3237
  166SOPE  H17S18701   6.725   6.603   8.619 -0.1456  0.8202  0.3675
  166SOPE  C21818702   6.745   6.807   8.549  0.2632 -0.5294  0.0009
  166SOPE  H18R18703   6.699   6.778   8.452  1.6020  0.4083 -0.9303
  166SOPE  H18S18704   6.852   6.794   8.522 -0.6022 -2.9683 -2.5108
  166SOPE  H18T18705   6.741   6.913   8.580  1.0389 -0.2473 -0.8276
  166SOPE   C3318706   6.549   5.973  10.049  0.0295  0.4689 -0.4875
  166SOPE   H3X18707   6.653   5.995  10.081 -0.3497 -1.4155  2.2454
  166SOPE   H3Y18708   6.501   6.068  10.081  0.7779  0.8301 -0.4328
  166SOPE   C3418709   6.523   5.950   9.903 -0.2955 -0.0978 -0.6710
  166SOPE   H4X18710   6.421   5.987   9.882 -0.2065  1.4615  1.4671
  166SOPE   H4Y18711   6.517   5.843   9.875 -0.3621 -0.5142  0.9029
  166SOPE   C3518712   6.626   6.019   9.806  0.3562  0.0834 -0.5504
  166SOPE   H5X18713   6.717   5.955   9.818  0.3122 -0.4454 -2.8549
  166SOPE   H5Y18714   6.642   6.122   9.844 -2.5666  0.5831 -0.5497
  166SOPE   C3618715   6.569   6.027   9.663 -0.0671 -0.2580  0.3576
  166SOPE   H6X18716   6.628   6.112   9.622 -2.2988  0.5758 -1.2898
  166SOPE   H6Y18717   6.463   6.060   9.669  0.1942  0.7863 -0.5744
  166SOPE   C3718718   6.579   5.912   9.560  0.5085 -0.2220 -0.4724
  166SOPE   H7X18719   6.496   5.840   9.574  1.8763 -1.4272  1.7809
  166SOPE   H7Y18720   6.674   5.856   9.575  2.5186  2.6738 -2.0585
  166SOPE   C3818721   6.581   5.968   9.417 -0.5510 -0.0151  0.2070
  166SOPE   H8X18722   6.676   6.026   9.413  0.6459 -1.9061  0.5043
  166SOPE   H8Y18723   6.495   6.028   9.380 -1.4114 -0.7847  0.9348
  166SOPE   C3918724   6.602   5.855   9.320  0.6695 -0.0231 -0.3930
  166SOPE   H9X18725   6.508   5.822   9.270  0.3699  1.3965 -0.7676
  166SOPE   H9Y18726   6.649   5.763   9.362  0.0899  0.8611  2.2533
  166SOPE  C31018727   6.690   5.892   9.200  0.2624  0.5518  0.3735
  166SOPE  H10X18728   6.784   5.940   9.236  1.2820 -1.0690 -0.1042
  166SOPE  H10Y18729   6.635   5.972   9.146 -1.4263 -1.1863 -0.5466
  166SOPE  C31118730   6.724   5.777   9.100 -0.3623  0.1320  0.1027
  166SOPE  H11X18731   6.644   5.761   9.025 -0.6267  0.6385  0.2750
  166SOPE  H11Y18732   6.754   5.681   9.148  1.9246  0.8568  0.1864
  166SOPE  C31218733   6.834   5.823   8.995 -0.2711  0.2207  0.5946
  166SOPE  H12X18734   6.854   5.732   8.934 -1.1166  1.2012 -1.1871
  166SOPE  H12Y18735   6.932   5.835   9.047  0.2648  1.8577 -0.7452
  166SOPE  C31318736   6.802   5.937   8.900  0.4592  0.2857 -0.0317
  166SOPE  H13X18737   6.797   6.038   8.947 -1.5713  0.8946 -1.4783
  166SOPE  H13Y18738   6.702   5.928   8.852  0.3071  1.5648  0.0222
  166SOPE  C31418739   6.910   5.971   8.801 -0.2255  0.2749 -0.1801
  166SOPE  H14X18740   6.905   5.906   8.711 -1.9029 -1.2948  0.9913
  166SOPE  H14Y18741   7.010   5.964   8.849 -1.7054 -1.4751  2.8187
  166SOPE  C31518742   6.904   6.122   8.751  0.3205 -0.9371 -0.2172
  166SOPE  H15X18743   6.879   6.192   8.833 -0.7470 -1.1443 -0.3637
  166SOPE  H15Y18744   6.810   6.113   8.693 -0.9816  1.9393  1.3754
  166SOPE  C31618745   7.025   6.149   8.672 -0.0718  0.2758 -0.0082
  166SOPE  H16X18746   7.030   6.081   8.585  0.6509  0.9399 -0.4837
  166SOPE  H16Y18747   7.117   6.124   8.729  0.3901 -0.4179 -1.0662
  166SOPE  C31718748   7.021   6.296   8.637  0.2916  0.1943 -0.3659
  166SOPE  H17X18749   7.121   6.323   8.597  0.1492 -1.6899 -2.0979
  166SOPE  H17Y18750   7.002   6.344   8.735  0.8731 -1.5437  0.6156
  166SOPE  C31818751   6.913   6.326   8.529 -0.7658  0.8140 -0.6169
  166SOPE  H18X18752   6.813   6.316   8.576  0.5210 -0.2962  2.0337
  166SOPE  H18Y18753   6.938   6.253   8.449 -1.0921  0.4605 -0.4011
  166SOPE  H18Z18754   6.913   6.433   8.499  1.6562  1.3855  1.2793
  167SOPE     N18755   1.749   4.714   5.725  0.4396  0.1288 -0.2153
  167SOPE   HN118756   1.744   4.703   5.622  0.2042 -0.2439 -0.1654
  167SOPE   HN218757   1.722   4.810   5.754 -1.7402 -1.0377  1.8793
  167SOPE   HN318758   1.843   4.690   5.763  0.1577 -0.8742 -0.1291
  167SOPE   C1218759   1.647   4.624   5.789  0.6915 -0.2016  0.6666
  167SOPE  H12A18760   1.669   4.523   5.747  4.2683  1.7190 -2.4807
  167SOPE  H12B18761   1.548   4.663   5.758  1.1505  1.4584  1.2714
  167SOPE   C1118762   1.655   4.639   5.934 -0.0484 -0.4530 -0.0540
  167SOPE  H11A18763   1.584   4.570   5.984 -1.6993  0.7129 -0.7496
  167SOPE  H11B18764   1.623   4.742   5.960 -0.6162 -0.7125  0.2972
  167SOPE     P18765   1.819   4.600   6.139  0.0900  0.1525  0.2161
  167SOPE   O1318766   1.905   4.717   6.177 -0.2368 -0.3946  0.1110
  167SOPE   O1418767   1.866   4.460   6.162  0.3696  0.0714 -0.1485
  167SOPE   O1218768   1.786   4.607   5.980 -0.1932  0.0964 -0.1620
  167SOPE   O1118769   1.682   4.621   6.206  0.0548  0.1624  0.2592
  167SOPE    C118770   1.668   4.612   6.348  0.0862  0.0112  0.0485
  167SOPE    HA18771   1.734   4.686   6.399 -0.0309  0.4317 -0.4061
  167SOPE    HB18772   1.685   4.506   6.376 -3.6331 -0.5939  0.2446
  167SOPE    C218773   1.522   4.633   6.380 -0.1555  1.1329 -0.2119
  167SOPE    HS18774   1.501   4.734   6.338 -0.6115  1.4151  0.6816
  167SOPE   O2118775   1.515   4.633   6.524  0.0404  0.0314 -0.3377
  167SOPE   C2118776   1.391   4.677   6.575  0.1567 -0.0892 -0.8091
  167SOPE   O2218777   1.297   4.713   6.502  0.0870 -0.4921 -0.1526
  167SOPE   C2218778   1.394   4.669   6.727 -0.3289  0.7038  0.4641
  167SOPE   H2R18779   1.419   4.769   6.768 -0.4241  0.5425  0.9204
  167SOPE   H2S18780   1.471   4.596   6.761 -1.4241 -1.3967 -1.4115
  167SOPE    C318781   1.419   4.536   6.304 -0.6306 -0.6497  0.5010
  167SOPE    HX18782   1.439   4.557   6.197  0.9103  1.6886  1.2047
  167SOPE    HY18783   1.313   4.559   6.329 -0.6473 -0.8373  0.6003
  167SOPE   O3118784   1.452   4.401   6.331  0.3698  0.4743  0.2261
  167SOPE   C3118785   1.400   4.340   6.434  0.2326 -0.3569  0.0072
  167SOPE   O3218786   1.292   4.373   6.485 -0.4599  0.0794 -0.0493
  167SOPE   C3218787   1.469   4.206   6.466 -0.1590  0.5178  0.2418
  167SOPE   H2X18788   1.441   4.132   6.388 -3.8068  1.4344  0.6387
  167SOPE   H2Y18789   1.430   4.173   6.565 -0.8308 -3.7032 -1.3273
  167SOPE   C2318790   1.249   4.627   6.776 -0.2753 -0.3532 -0.1236
  167SOPE   H3R18791   1.195   4.564   6.703  0.1607 -0.3127 -0.4889
  167SOPE   H3S18792   1.185   4.718   6.780 -0.3413 -0.3748 -0.6162
  167SOPE   C2418793   1.246   4.556   6.907  0.0082  0.4033 -0.0858
  167SOPE   H4R18794   1.319   4.473   6.898  1.8122  2.0510 -1.1436
  167SOPE   H4S18795   1.292   4.634   6.972  0.3330 -0.4543  0.7248
  167SOPE   C2518796   1.114   4.502   6.966 -0.0793  0.1674 -0.3955
  167SOPE   H5R18797   1.034   4.574   6.938  1.0699  1.1917 -1.0987
  167SOPE   H5S18798   1.083   4.409   6.914 -1.6486  0.0148  0.7860
  167SOPE   C2618799   1.109   4.461   7.117 -0.3699  0.1563  0.4674
  167SOPE   H6R18800   1.019   4.399   7.139  0.3113 -0.9314  0.1885
  167SOPE   H6S18801   1.206   4.408   7.121  0.5232  1.7756  0.6577
  167SOPE   C2718802   1.124   4.579   7.224 -0.1900 -0.1440 -0.2068
  167SOPE   H7R18803   1.203   4.649   7.187  0.8634 -0.4881  1.3592
  167SOPE   H7S18804   1.031   4.639   7.216 -0.3025 -0.4180 -1.0556
  167SOPE   C2818805   1.162   4.531   7.368 -0.7210 -0.5475  0.6564
  167SOPE   H8R18806   1.257   4.475   7.354  1.1038  2.3530  0.9679
  167SOPE   H8S18807   1.191   4.617   7.433  1.3169 -0.6958  0.0015
  167SOPE   C2918808   1.055   4.447   7.431  0.7470  0.4553 -0.2363
  167SOPE   H9118809   1.019   4.367   7.364 -0.5784  2.3873 -1.9034
  167SOPE  C21018810   0.986   4.478   7.540 -0.6162  0.5697  0.0039
  167SOPE  H10118811   0.933   4.397   7.594  1.3899  0.3794  1.7950
  167SOPE  C21118812   1.012   4.595   7.629 -0.2967 -0.2161 -0.3250
  167SOPE  H11R18813   1.049   4.684   7.573 -1.0004  1.5694  1.9502
  167SOPE  H11S18814   1.086   4.581   7.711  0.1859 -0.3500 -0.7824
  167SOPE  C21218815   0.879   4.641   7.689  0.2221 -0.0407 -0.0940
  167SOPE  H12R18816   0.839   4.554   7.745  0.8675  1.2945  2.5619
  167SOPE  H12S18817   0.809   4.672   7.608 -2.6797 -2.2804  1.4524
  167SOPE  C21318818   0.895   4.765   7.774 -0.0043  0.2443 -0.5070
  167SOPE  H13R18819   0.928   4.842   7.701  1.3301  1.0858  0.9586
  167SOPE  H13S18820   0.972   4.755   7.853 -1.0629 -0.6889  0.4411
  167SOPE  C21418821   0.763   4.817   7.833 -0.2733 -0.1882  0.3046
  167SOPE  H14R18822   0.691   4.843   7.752 -1.5191 -0.8994  1.1570
  167SOPE  H14S18823   0.782   4.906   7.897 -0.3111  0.2944 -0.3485
  167SOPE  C21518824   0.699   4.710   7.917 -0.1350 -0.3495 -0.0134
  167SOPE  H15R18825   0.774   4.676   7.990 -0.4114  3.2483  2.0751
  167SOPE  H15S18826   0.696   4.621   7.851  0.8892  0.0399 -0.5955
  167SOPE  C21618827   0.570   4.756   7.979 -0.2035  0.4424  0.5234
  167SOPE  H16R18828   0.487   4.748   7.906 -2.5184  0.9555  3.0153
  167SOPE  H16S18829   0.591   4.861   8.011  2.1873  0.8918 -2.3072
  167SOPE  C21718830   0.533   4.687   8.113 -0.5354 -0.2457 -0.0807
  167SOPE  H17R18831   0.448   4.740   8.162 -1.3039 -0.3133 -1.3126
  167SOPE  H17S18832   0.620   4.671   8.180  0.2527 -2.0939 -1.4902
  167SOPE  C21818833   0.485   4.546   8.093 -0.6988  0.1290  0.1390
  167SOPE  H18R18834   0.390   4.549   8.035 -0.4813  1.7738 -0.1413
  167SOPE  H18S18835   0.458   4.499   8.191 -0.2458 -2.4433 -0.9241
  167SOPE  H18T18836   0.562   4.481   8.047 -1.5231  0.3982 -1.6655
  167SOPE   C3318837   1.625   4.224   6.482  0.7877  0.5469  0.4038
  167SOPE   H3X18838   1.659   4.258   6.381 -0.2319  1.7518  0.4621
  167SOPE   H3Y18839   1.667   4.123   6.504 -1.0474  0.0069  1.5028
  167SOPE   C3418840   1.679   4.317   6.598 -0.1508  0.7746  0.2666
  167SOPE   H4X18841   1.666   4.417   6.551 -0.0606  0.1639 -1.0952
  167SOPE   H4Y18842   1.787   4.295   6.582 -0.5043  0.6815 -2.1396
  167SOPE   C3518843   1.613   4.299   6.737 -0.0521 -0.2090 -0.3821
  167SOPE   H5X18844   1.640   4.195   6.766  0.9775 -0.2153 -1.3320
  167SOPE   H5Y18845   1.502   4.301   6.734 -0.1113 -0.6341  0.9863
  167SOPE   C3618846   1.670   4.394   6.846  0.0849  0.6652  0.2817
  167SOPE   H6X18847   1.623   4.493   6.826  1.0346  0.6576 -2.2388
  167SOPE   H6Y18848   1.780   4.405   6.831  0.3355 -1.7204  0.2576
  167SOPE   C3718849   1.634   4.355   6.986  0.0906 -0.2857 -1.0020
  167SOPE   H7X18850   1.698   4.270   7.018  0.1933  0.6131  1.2954
  167SOPE   H7Y18851   1.527   4.334   7.007  0.4640  0.4112  1.9346
  167SOPE   C3818852   1.690   4.459   7.081  0.2858 -0.1937 -0.0117
  167SOPE   H8X18853   1.657   4.563   7.057  0.3484 -0.2012 -0.1282
  167SOPE   H8Y18854   1.800   4.461   7.093  0.3219 -1.6749 -0.0443
  167SOPE   C3918855   1.627   4.431   7.221 -0.2265  0.0085  1.3906
  167SOPE   H9X18856   1.519   4.406   7.220 -1.0256  3.2245  0.6324
  167SOPE   H9Y18857   1.639   4.523   7.282 -1.1077  0.2287  1.2473
  167SOPE  C31018858   1.699   4.327   7.308 -0.0324 -0.4071  0.1516
  167SOPE  H10X18859   1.803   4.335   7.268  0.0756 -2.7436 -0.1307
  167SOPE  H10Y18860   1.668   4.226   7.271 -2.4162  0.4332 -0.2239
  167SOPE  C31118861   1.674   4.348   7.452  0.5488  0.0560 -0.4054
  167SOPE  H11X18862   1.664   4.453   7.489 -0.7428 -0.5871  1.1451
  167SOPE  H11Y18863   1.756   4.299   7.508 -0.3618 -0.7252  0.2639
  167SOPE  C31218864   1.536   4.283   7.500  0.2039 -0.7748  0.5743
  167SOPE  H12X18865   1.537   4.172   7.498 -4.2604 -0.8972 -0.3883
  167SOPE  H12Y18866   1.450   4.321   7.440 -0.8732 -2.7981  0.7955
  167SOPE  C31318867   1.514   4.329   7.646  0.3267  0.2010 -0.0895
  167SOPE  H13X18868   1.607   4.324   7.708 -0.7837  0.4191  1.6236
  167SOPE  H13Y18869   1.438   4.261   7.688  2.6811 -2.5233 -0.0906
  167SOPE  C31418870   1.451   4.469   7.673  0.3343 -0.1358  0.7402
  167SOPE  H14X18871   1.345   4.471   7.640  0.7866  1.4643 -0.6962
  167SOPE  H14Y18872   1.518   4.542   7.622 -1.2015  0.3488 -0.6340
  167SOPE  C31518873   1.440   4.519   7.822 -0.2422  0.3407  0.2920
  167SOPE  H15X18874   1.374   4.608   7.820  0.9797  1.2925  1.1011
  167SOPE  H15Y18875   1.541   4.537   7.866 -0.0472 -2.1020  0.9380
  167SOPE  C31618876   1.360   4.422   7.914  0.1075  0.2484 -0.4794
  167SOPE  H16X18877   1.428   4.337   7.936  0.2883 -0.6063 -3.9851
  167SOPE  H16Y18878   1.283   4.370   7.853  1.4102 -0.5087 -1.5070
  167SOPE  C31718879   1.293   4.492   8.039  0.1626 -0.4964  1.0291
  167SOPE  H17X18880   1.242   4.419   8.105 -0.3961 -1.7734 -0.8045
  167SOPE  H17Y18881   1.219   4.562   7.995  0.3291 -0.7270  0.3764
  167SOPE  C31818882   1.395   4.573   8.111  0.0116  0.3089 -0.5929
  167SOPE  H18X18883   1.340   4.641   8.180 -1.6409 -1.0896 -0.4895
  167SOPE  H18Y18884   1.458   4.631   8.041  1.1283 -2.4561 -1.9632
  167SOPE  H18Z18885   1.458   4.496   8.161 -2.0227  0.4235  2.3207
  168SOPE     N18886   0.872   2.375   6.478  0.2285 -0.0347 -0.1353
  168SOPE   HN118887   0.941   2.325   6.536  0.0173 -0.7278 -0.4712
  168SOPE   HN218888   0.895   2.475   6.494 -0.5618 -0.1213  1.6381
  168SOPE   HN318889   0.782   2.347   6.523 -0.5061 -0.5948 -1.8792
  168SOPE   C1218890   0.877   2.333   6.335 -0.9839  0.7481  0.2988
  168SOPE  H12A18891   0.963   2.387   6.290 -0.7646 -0.1727 -0.3885
  168SOPE  H12B18892   0.781   2.366   6.291  0.0910  1.5233 -1.5415
  168SOPE   C1118893   0.907   2.179   6.314 -0.0903 -0.5711 -0.2735
  168SOPE  H11A18894   0.931   2.166   6.206  0.5454 -0.0600 -0.1958
  168SOPE  H11B18895   0.813   2.124   6.337  0.6308 -2.4289 -1.6443
  168SOPE     P18896   1.165   2.137   6.357 -0.3375  0.1329 -0.3530
  168SOPE   O1318897   1.196   2.271   6.294  0.6050  0.4507 -0.2505
  168SOPE   O1418898   1.201   2.018   6.277 -0.1553 -0.2005 -0.3510
  168SOPE   O1218899   1.011   2.139   6.401  0.2609  0.1449  0.2607
  168SOPE   O1118900   1.239   2.127   6.494  0.1034  0.1575  0.2654
  168SOPE    C118901   1.245   2.002   6.572 -0.7803  0.0987  0.3935
  168SOPE    HA18902   1.331   1.939   6.545  0.4628  1.3490  1.3334
  168SOPE    HB18903   1.155   1.940   6.553 -0.4971 -0.8890  2.1436
  168SOPE    C218904   1.270   2.038   6.722  0.0174 -0.1453  0.6897
  168SOPE    HS18905   1.329   1.960   6.774  0.9055 -1.5078 -2.2521
  168SOPE   O2118906   1.148   2.064   6.794  0.0236  0.1347  0.5907
  168SOPE   C2118907   1.078   1.963   6.841 -0.1550  0.7122  0.2429
  168SOPE   O2218908   1.112   1.843   6.835 -0.0777  0.4299 -0.2544
  168SOPE   C2218909   0.951   2.026   6.899  0.5444  0.0376 -0.1514
  168SOPE   H2R18910   0.866   2.017   6.828  0.8316 -0.2414 -0.4591
  168SOPE   H2S18911   0.966   2.134   6.922  0.6678  0.0982 -0.5122
  168SOPE    C318912   1.361   2.169   6.724  0.4967  0.2213  0.3703
  168SOPE    HX18913   1.313   2.252   6.668 -2.6627 -1.0041  1.1988
  168SOPE    HY18914   1.450   2.139   6.664 -1.4768 -0.3845 -2.3379
  168SOPE   O3118915   1.376   2.202   6.857  0.0929  0.4934 -0.2249
  168SOPE   C3118916   1.483   2.143   6.919 -0.2185 -0.9980  0.1048
  168SOPE   O3218917   1.566   2.074   6.862  0.1248 -0.0767 -0.2209
  168SOPE   C3218918   1.488   2.181   7.064  0.0519 -0.5135 -0.6080
  168SOPE   H2X18919   1.470   2.289   7.082 -1.7052 -0.6852 -1.3091
  168SOPE   H2Y18920   1.585   2.147   7.107  0.2738  1.8636  0.8871
  168SOPE   C2318921   0.895   1.952   7.023  0.2538  0.9969 -0.0976
  168SOPE   H3R18922   0.846   2.009   7.105  1.7497 -1.2095  2.4531
  168SOPE   H3S18923   0.979   1.916   7.087 -0.3517  0.8447  0.6117
  168SOPE   C2418924   0.815   1.821   6.991 -0.4225 -0.4332  0.3018
  168SOPE   H4R18925   0.720   1.857   6.946 -0.4645  1.5811  1.9266
  168SOPE   H4S18926   0.871   1.769   6.910 -0.9084 -3.0598  1.5857
  168SOPE   C2518927   0.792   1.742   7.118  0.3619  0.9178  0.3504
  168SOPE   H5R18928   0.752   1.645   7.080 -2.0555  1.1789  2.1136
  168SOPE   H5S18929   0.882   1.717   7.178  1.2023  0.0438 -1.2370
  168SOPE   C2618930   0.682   1.804   7.203 -0.0891  0.1982 -0.4050
  168SOPE   H6R18931   0.688   1.914   7.220 -1.6226  0.4172 -1.1847
  168SOPE   H6S18932   0.596   1.785   7.135  1.9651 -1.2169 -2.7068
  168SOPE   C2718933   0.655   1.738   7.338 -0.5957  0.1708  0.4338
  168SOPE   H7R18934   0.581   1.810   7.379 -0.1518 -0.4103  2.2780
  168SOPE   H7S18935   0.613   1.637   7.321  2.9481 -1.3762  0.4800
  168SOPE   C2818936   0.764   1.736   7.445  0.3427 -0.1826  0.0290
  168SOPE   H8R18937   0.711   1.716   7.540 -1.1481  0.9593 -0.5442
  168SOPE   H8S18938   0.833   1.651   7.426  0.3476  0.0576 -1.0677
  168SOPE   C2918939   0.838   1.866   7.460 -0.3212  0.3677 -0.6352
  168SOPE   H9118940   0.899   1.894   7.373 -1.1396 -0.1509 -1.3904
  168SOPE  C21018941   0.844   1.938   7.575 -0.1103  0.3909  0.0122
  168SOPE  H10118942   0.888   2.039   7.568  0.8876  0.0012  0.5716
  168SOPE  C21118943   0.777   1.909   7.704  0.1676 -0.0081  0.2941
  168SOPE  H11R18944   0.845   1.846   7.766  0.0722 -2.9092 -2.4041
  168SOPE  H11S18945   0.675   1.867   7.713  0.2258  0.3787  3.1744
  168SOPE  C21218946   0.761   2.033   7.792  0.0936  0.0752 -0.5009
  168SOPE  H12R18947   0.679   2.104   7.768  1.2658  1.6376  0.0249
  168SOPE  H12S18948   0.843   2.107   7.789  0.2137 -0.0125  0.3218
  168SOPE  C21318949   0.738   1.977   7.939 -0.8505 -0.8937  0.1227
  168SOPE  H13R18950   0.827   1.919   7.971  0.2720  1.5148  1.5155
  168SOPE  H13S18951   0.645   1.917   7.947 -1.8108  0.7409  1.5758
  168SOPE  C21418952   0.719   2.096   8.034 -0.0052 -0.6476 -0.5832
  168SOPE  H14R18953   0.621   2.147   8.022 -0.0045  0.0586  2.0354
  168SOPE  H14S18954   0.791   2.167   7.987  0.6462 -1.2136 -0.4484
  168SOPE  C21518955   0.750   2.078   8.180 -0.2398  0.3212 -0.5761
  168SOPE  H15R18956   0.743   2.175   8.234 -1.9311  0.3623 -0.8521
  168SOPE  H15S18957   0.850   2.033   8.194  0.8723  2.5990 -0.9023
  168SOPE  C21618958   0.653   1.988   8.254 -0.6646 -0.7721 -0.4799
  168SOPE  H16R18959   0.673   1.880   8.235 -0.6542 -1.0860  1.2310
  168SOPE  H16S18960   0.551   2.021   8.222 -0.3623 -0.4460 -1.1203
  168SOPE  C21718961   0.647   2.014   8.402 -0.5144 -0.5002 -0.0278
  168SOPE  H17R18962   0.616   2.119   8.421 -2.1397 -0.7468 -1.2158
  168SOPE  H17S18963   0.747   1.991   8.443 -1.3540 -1.0645  1.7624
  168SOPE  C21818964   0.556   1.926   8.481 -0.1445  0.0068  0.0701
  168SOPE  H18R18965   0.566   1.936   8.591 -0.0114 -0.6089  0.1146
  168SOPE  H18S18966   0.572   1.818   8.462  0.5894  0.4215 -1.8092
  168SOPE  H18T18967   0.448   1.946   8.461  0.0778 -0.0809 -1.3113
  168SOPE   C3318968   1.359   2.138   7.138 -0.0649  0.5834  0.4273
  168SOPE   H3X18969   1.343   2.028   7.124  3.2663  0.5182 -3.9515
  168SOPE   H3Y18970   1.274   2.196   7.096 -0.3590  0.0815  0.3152
  168SOPE   C3418971   1.382   2.155   7.288 -0.4272 -0.6896 -0.6329
  168SOPE   H4X18972   1.448   2.243   7.303 -1.7964  0.1449  0.4956
  168SOPE   H4Y18973   1.437   2.063   7.320 -1.9802 -1.2674  0.4667
  168SOPE   C3518974   1.259   2.168   7.374 -0.0447  0.3034 -0.2856
  168SOPE   H5X18975   1.190   2.082   7.366 -0.1778  0.4414 -0.6051
  168SOPE   H5Y18976   1.197   2.257   7.349 -1.1350  0.3257  2.3018
  168SOPE   C3618977   1.297   2.190   7.516 -0.2510 -0.4191 -0.3270
  168SOPE   H6X18978   1.346   2.290   7.519 -1.4542  0.1800 -0.3829
  168SOPE   H6Y18979   1.373   2.118   7.552  0.5753  1.1558  1.1762
  168SOPE   C3718980   1.175   2.192   7.613 -0.4248  1.2718 -0.7550
  168SOPE   H7X18981   1.119   2.096   7.603  1.2927  0.2501 -0.7603
  168SOPE   H7Y18982   1.110   2.276   7.580 -1.0328  0.4687 -1.6339
  168SOPE   C3818983   1.225   2.217   7.757 -0.0126  0.5014  0.5566
  168SOPE   H8X18984   1.291   2.306   7.758 -1.2809  1.4306  2.2210
  168SOPE   H8Y18985   1.274   2.117   7.767 -0.4485 -0.1802 -3.1262
  168SOPE   C3918986   1.122   2.246   7.866  0.7833 -0.1128  0.3601
  168SOPE   H9X18987   1.050   2.161   7.871 -1.9312  2.2539  2.7870
  168SOPE   H9Y18988   1.073   2.344   7.849 -0.3714 -0.7553 -0.0872
  168SOPE  C31018989   1.185   2.257   8.006 -0.4979 -0.1884  0.6232
  168SOPE  H10X18990   1.279   2.316   8.004 -1.3180  1.2657  2.5459
  168SOPE  H10Y18991   1.216   2.153   8.027 -2.6980 -0.9521  0.1901
  168SOPE  C31118992   1.075   2.322   8.100  0.3805 -0.4764 -0.8289
  168SOPE  H11X18993   0.981   2.263   8.103  0.9596 -1.3475  1.8820
  168SOPE  H11Y18994   1.068   2.427   8.066  1.7743 -0.5991 -1.5262
  168SOPE  C31218995   1.122   2.329   8.243 -0.6484  0.0264 -0.6451
  168SOPE  H12X18996   1.047   2.386   8.302 -0.9029  1.0335 -1.9274
  168SOPE  H12Y18997   1.212   2.394   8.246 -0.1527 -0.6757 -0.1500
  168SOPE  C31318998   1.148   2.189   8.307 -0.5169  0.1823 -0.2833
  168SOPE  H13X18999   1.215   2.130   8.241  0.2531  1.1446 -0.3633
  168SOPE  H13Y19000   1.060   2.122   8.318 -2.1311  2.5871  2.1490
  168SOPE  C31419001   1.231   2.188   8.438  1.6949 -0.3193 -0.0378
  168SOPE  H14X19002   1.314   2.261   8.432  1.0788  0.3606 -0.3417
  168SOPE  H14Y19003   1.269   2.085   8.455  0.5641 -0.9494 -1.1624
  168SOPE  C31519004   1.150   2.233   8.567 -0.8967  0.1095 -0.4237
  168SOPE  H15X19005   1.060   2.171   8.587 -0.7579 -0.1893 -0.7284
  168SOPE  H15Y19006   1.115   2.338   8.555 -0.9764  0.0443 -0.7690
  168SOPE  C31619007   1.240   2.229   8.698 -0.5279 -0.2330 -0.8042
  168SOPE  H16X19008   1.300   2.323   8.696 -0.6426 -0.1388 -0.0193
  168SOPE  H16Y19009   1.305   2.139   8.706 -0.9005 -0.5749 -1.5662
  168SOPE  C31719010   1.171   2.229   8.831 -0.0741 -0.5410 -0.7767
  168SOPE  H17X19011   1.120   2.131   8.838  0.0820 -0.5202  0.9383
  168SOPE  H17Y19012   1.086   2.300   8.838 -1.3407 -2.1790  1.1271
  168SOPE  C31819013   1.265   2.246   8.955  0.0429 -0.9803 -0.0803
  168SOPE  H18X19014   1.319   2.342   8.944 -0.5235 -0.4973  1.2346
  168SOPE  H18Y19015   1.348   2.173   8.947 -2.3560 -3.9888  1.0860
  168SOPE  H18Z19016   1.206   2.252   9.050 -0.9247  0.8306 -0.7655
  169SOPE     N19017   3.219   3.463   6.484 -0.0384 -0.5974  0.2065
  169SOPE   HN119018   3.276   3.401   6.422 -2.1917 -2.0451 -0.3788
  169SOPE   HN219019   3.285   3.515   6.546  0.3020  0.9528 -1.4209
  169SOPE   HN319020   3.158   3.405   6.545 -0.8845 -0.0628 -0.1332
  169SOPE   C1219021   3.148   3.574   6.409 -0.6650  0.0276  0.7306
  169SOPE  H12A19022   3.050   3.586   6.460 -1.6158 -0.0805 -1.0213
  169SOPE  H12B19023   3.124   3.536   6.307 -2.3858  0.7571  0.8443
  169SOPE   C1119024   3.219   3.707   6.416  0.4259 -0.5105  0.0200
  169SOPE  H11A19025   3.254   3.714   6.521  0.5492  0.7237 -0.0909
  169SOPE  H11B19026   3.150   3.793   6.398 -0.0272 -0.3872  2.1453
  169SOPE     P19027   3.472   3.696   6.379 -0.1754 -0.3353  0.2060
  169SOPE   O1319028   3.507   3.819   6.453  0.2810  0.4447 -0.3154
  169SOPE   O1419029   3.556   3.647   6.270 -0.2727 -0.4874 -0.5676
  169SOPE   O1219030   3.326   3.706   6.327  0.0992  0.2233  0.5327
  169SOPE   O1119031   3.458   3.574   6.486  0.9898  0.6639  0.4805
  169SOPE    C119032   3.580   3.529   6.551  0.9557  0.4480  0.1761
  169SOPE    HA19033   3.652   3.614   6.549  0.2306  1.0611 -0.0679
  169SOPE    HB19034   3.621   3.434   6.510 -2.7446 -1.0652 -0.1395
  169SOPE    C219035   3.553   3.488   6.700 -0.7328 -0.6536  0.6720
  169SOPE    HS19036   3.469   3.414   6.701 -1.6821  0.3908 -0.1885
  169SOPE   O2119037   3.525   3.610   6.773  0.4105  0.1427 -0.7028
  169SOPE   C2119038   3.397   3.640   6.774  0.0433  0.2847  0.5863
  169SOPE   O2219039   3.313   3.572   6.718 -0.0037 -0.0912  0.0667
  169SOPE   C2219040   3.382   3.773   6.846 -0.1798  0.5140 -0.2507
  169SOPE   H2R19041   3.276   3.798   6.824 -0.0999  0.8035 -0.3020
  169SOPE   H2S19042   3.436   3.849   6.786 -1.7218  1.8261 -0.0092
  169SOPE    C319043   3.675   3.423   6.774  0.4503 -0.0776 -0.5200
  169SOPE    HX19044   3.765   3.486   6.760  1.0216 -0.9231 -0.7085
  169SOPE    HY19045   3.705   3.326   6.729 -1.2264 -1.0730  0.4565
  169SOPE   O3119046   3.657   3.381   6.908 -0.1960  0.4221  0.1434
  169SOPE   C3119047   3.755   3.420   6.990  0.0854  0.4406 -0.0644
  169SOPE   O3219048   3.855   3.487   6.964  0.4904  0.9639  0.4145
  169SOPE   C3219049   3.723   3.366   7.133 -0.1658 -0.2907  0.0634
  169SOPE   H2X19050   3.695   3.261   7.110 -3.0612  0.3675  0.4055
  169SOPE   H2Y19051   3.630   3.416   7.167  0.9552  2.0723 -0.3011
  169SOPE   C2319052   3.435   3.766   6.990  0.0026 -0.5725  0.1212
  169SOPE   H3R19053   3.453   3.868   7.029 -1.3935 -0.1627 -0.3035
  169SOPE   H3S19054   3.534   3.715   6.992  1.0750  1.5069  0.8812
  169SOPE   C2419055   3.332   3.693   7.080 -0.0474  0.8224  0.1019
  169SOPE   H4R19056   3.235   3.746   7.072  0.0295  0.8593 -0.5703
  169SOPE   H4S19057   3.327   3.585   7.055  1.3206  0.8616 -0.3648
  169SOPE   C2519058   3.373   3.692   7.225  0.0589  0.2329 -0.4856
  169SOPE   H5R19059   3.483   3.677   7.230  0.1310  1.0362  0.6464
  169SOPE   H5S19060   3.353   3.791   7.270  0.6365 -1.5391  3.9140
  169SOPE   C2619061   3.304   3.579   7.310  0.6130 -0.6015 -0.0385
  169SOPE   H6R19062   3.311   3.596   7.419  0.3060  0.1785 -0.1343
  169SOPE   H6S19063   3.196   3.572   7.286  1.0248  3.3505 -3.7323
  169SOPE   C2719064   3.370   3.440   7.305 -0.5533 -0.2170  0.5100
  169SOPE   H7R19065   3.386   3.414   7.198 -2.5349  1.9967 -0.3874
  169SOPE   H7S19066   3.466   3.447   7.360  0.1242 -0.0873 -0.6765
  169SOPE   C2819067   3.279   3.326   7.355 -0.1384 -0.1447  0.2562
  169SOPE   H8R19068   3.272   3.351   7.463  2.1383 -2.9733  1.1273
  169SOPE   H8S19069   3.173   3.336   7.322  0.5685  1.7647 -1.5459
  169SOPE   C2919070   3.339   3.187   7.328  0.2000 -0.0259  0.0893
  169SOPE   H9119071   3.380   3.177   7.227  1.4443  0.0297  0.5744
  169SOPE  C21019072   3.358   3.092   7.417  0.4534  0.7155 -0.2725
  169SOPE  H10119073   3.400   2.995   7.387 -1.7120 -0.6727  0.9797
  169SOPE  C21119074   3.325   3.101   7.561  0.0808 -0.0282  0.8135
  169SOPE  H11R19075   3.219   3.071   7.575 -0.4582  0.6874 -1.5031
  169SOPE  H11S19076   3.330   3.205   7.601  2.9027  1.3559 -2.8507
  169SOPE  C21219077   3.415   3.016   7.650  0.0955  0.9239 -0.0338
  169SOPE  H12R19078   3.516   3.061   7.656  0.3737  0.6369 -2.2242
  169SOPE  H12S19079   3.423   2.910   7.619  0.3040  0.4629  1.5375
  169SOPE  C21319080   3.369   3.000   7.802 -0.4113  0.2285  0.2353
  169SOPE  H13R19081   3.276   2.939   7.803 -0.7647  0.7707  2.1970
  169SOPE  H13S19082   3.342   3.097   7.848  0.0948  0.4651  0.0394
  169SOPE  C21419083   3.478   2.934   7.887 -0.4630 -0.0205  0.1091
  169SOPE  H14R19084   3.529   2.851   7.833  1.9162  1.4626 -0.0040
  169SOPE  H14S19085   3.422   2.894   7.974 -3.2975 -0.6567 -1.9452
  169SOPE  C21519086   3.573   3.036   7.937  0.4615 -0.2464 -0.1298
  169SOPE  H15R19087   3.514   3.117   7.983 -1.0781 -0.2819 -1.9561
  169SOPE  H15S19088   3.620   3.079   7.846 -0.8732  3.7641  1.0002
  169SOPE  C21619089   3.683   2.995   8.031  0.3589  0.6472 -0.2856
  169SOPE  H16R19090   3.757   3.078   8.024 -0.4686  1.4112 -0.0712
  169SOPE  H16S19091   3.734   2.905   7.988 -0.6271  0.8826 -2.0147
  169SOPE  C21719092   3.628   2.965   8.172 -0.0959 -0.2866 -0.1072
  169SOPE  H17R19093   3.549   2.889   8.153  0.2651 -0.5523 -0.5517
  169SOPE  H17S19094   3.574   3.054   8.210 -1.2941 -1.4076  0.8761
  169SOPE  C21819095   3.722   2.903   8.274 -0.0696  0.5491 -0.4963
  169SOPE  H18R19096   3.827   2.924   8.246  0.9626 -4.1708 -0.6135
  169SOPE  H18S19097   3.715   2.793   8.284 -4.0898  0.6095 -1.7755
  169SOPE  H18T19098   3.692   2.950   8.371 -0.9437 -2.0394  0.5470
  169SOPE   C3319099   3.826   3.374   7.241 -0.7810  0.3980  0.5420
  169SOPE   H3X19100   3.860   3.480   7.249 -2.7990  1.1465 -0.5796
  169SOPE   H3Y19101   3.908   3.304   7.212 -2.3570 -0.6101 -1.5581
  169SOPE   C3419102   3.773   3.317   7.375  0.4696 -0.9602  0.4898
  169SOPE   H4X19103   3.733   3.218   7.345 -2.1940  0.3437 -0.3761
  169SOPE   H4Y19104   3.690   3.378   7.415 -0.9141  0.2148 -3.8721
  169SOPE   C3519105   3.866   3.298   7.492 -0.4344 -0.2607 -0.4911
  169SOPE   H5X19106   3.935   3.382   7.513  0.4414 -1.7146  2.7666
  169SOPE   H5Y19107   3.933   3.215   7.461  1.7080  1.1704  0.1826
  169SOPE   C3619108   3.789   3.266   7.624  0.2098  0.4494  0.4268
  169SOPE   H6X19109   3.720   3.180   7.609  1.5565 -0.4254 -0.9544
  169SOPE   H6Y19110   3.726   3.349   7.661 -0.9081 -1.2742  2.4785
  169SOPE   C3719111   3.873   3.226   7.741 -0.5496  0.2993 -0.7780
  169SOPE   H7X19112   3.952   3.149   7.724 -0.3717 -0.7137  3.7603
  169SOPE   H7Y19113   3.812   3.207   7.832  1.5577  0.6514  0.7415
  169SOPE   C3819114   3.948   3.351   7.795  0.9081 -0.3367  0.1157
  169SOPE   H8X19115   4.029   3.380   7.724  0.5275 -0.7078 -0.4714
  169SOPE   H8Y19116   3.869   3.428   7.811  3.4350  2.3466  0.1434
  169SOPE   C3919117   4.000   3.334   7.938 -0.0232  0.0685  0.3993
  169SOPE   H9X19118   4.073   3.251   7.947  1.1042  0.9620 -0.4162
  169SOPE   H9Y19119   3.909   3.302   7.994 -0.7950 -2.3170 -2.1159
  169SOPE  C31019120   4.062   3.466   7.995  0.1960 -0.2272  0.3087
  169SOPE  H10X19121   3.976   3.536   7.995  0.6972  0.3922 -1.5542
  169SOPE  H10Y19122   4.136   3.493   7.918  0.0813  0.0993  0.3111
  169SOPE  C31119123   4.134   3.444   8.127  0.1334  0.7401  0.7639
  169SOPE  H11X19124   4.214   3.366   8.128  0.4572  1.0893  2.8324
  169SOPE  H11Y19125   4.059   3.414   8.203 -1.2638  0.9520 -0.4899
  169SOPE  C31219126   4.195   3.582   8.179  0.1423  0.9055 -0.6415
  169SOPE  H12X19127   4.108   3.650   8.193  0.1199  1.0313 -1.3998
  169SOPE  H12Y19128   4.270   3.615   8.104  2.1826 -1.4886  0.2573
  169SOPE  C31319129   4.267   3.573   8.315  0.3957 -0.1038 -0.2144
  169SOPE  H13X19130   4.355   3.506   8.315  1.4747  1.2903  0.5667
  169SOPE  H13Y19131   4.197   3.535   8.392  2.4560 -0.2239  1.6459
  169SOPE  C31419132   4.308   3.711   8.378  0.1426  0.3845 -0.4907
  169SOPE  H14X19133   4.220   3.779   8.384 -0.6462 -0.6705  0.1033
  169SOPE  H14Y19134   4.384   3.765   8.318 -0.1209  0.7919 -0.4600
  169SOPE  C31519135   4.366   3.682   8.515  0.3051 -0.2741  0.6376
  169SOPE  H15X19136   4.429   3.591   8.504 -0.8155 -1.2001  1.6894
  169SOPE  H15Y19137   4.278   3.649   8.575 -1.0039  0.8406 -0.6051
  169SOPE  C31619138   4.445   3.794   8.578  0.1389 -0.1093 -0.6360
  169SOPE  H16X19139   4.373   3.876   8.600 -1.5209 -1.7832  0.2400
  169SOPE  H16Y19140   4.519   3.831   8.503 -0.9998  1.0583 -1.2076
  169SOPE  C31719141   4.515   3.771   8.716 -0.6418  0.1555  0.2090
  169SOPE  H17X19142   4.556   3.667   8.718 -0.1862  0.3564  1.8381
  169SOPE  H17Y19143   4.433   3.773   8.791 -3.1265 -0.4260 -2.3690
  169SOPE  C31819144   4.624   3.871   8.751  0.0306 -0.4409  0.0833
  169SOPE  H18X19145   4.584   3.970   8.783  1.6335  0.3667 -0.3479
  169SOPE  H18Y19146   4.697   3.892   8.670  0.0658 -1.7647 -0.2329
  169SOPE  H18Z19147   4.686   3.834   8.836 -0.3009 -1.8536 -0.2734
  170SOPE     N19148   4.589   1.707   6.590 -0.1564  0.6418 -0.0896
  170SOPE   HN119149   4.647   1.632   6.548 -0.6513  0.0273  0.3056
  170SOPE   HN219150   4.655   1.768   6.642 -0.2410  0.2149  0.5298
  170SOPE   HN319151   4.531   1.658   6.661  2.2088 -1.7471  0.2759
  170SOPE   C1219152   4.506   1.794   6.495  0.2696 -0.1729 -0.1242
  170SOPE  H12A19153   4.471   1.732   6.410 -1.6865  1.6659 -0.6885
  170SOPE  H12B19154   4.571   1.872   6.448 -1.2687  1.3100  0.1719
  170SOPE   C1119155   4.394   1.863   6.565  0.4907 -0.0641 -0.4951
  170SOPE  H11A19156   4.347   1.944   6.505  1.4510  0.3115 -0.7335
  170SOPE  H11B19157   4.435   1.915   6.655 -2.5448  1.0182  0.3600
  170SOPE     P19158   4.196   1.712   6.502  0.0560  0.0133 -0.0986
  170SOPE   O1319159   4.223   1.566   6.488  0.3982  0.3002  0.4312
  170SOPE   O1419160   4.208   1.792   6.378 -0.1227  0.0264 -0.1092
  170SOPE   O1219161   4.293   1.770   6.616 -0.6915  0.4225  0.0175
  170SOPE   O1119162   4.051   1.733   6.567  0.4774 -0.1910  0.3280
  170SOPE    C119163   4.009   1.834   6.662 -0.3023 -0.1689  0.2973
  170SOPE    HA19164   3.907   1.869   6.634  0.3431  1.9519  0.4509
  170SOPE    HB19165   4.081   1.919   6.665  0.5765 -0.9499  1.7090
  170SOPE    C219166   3.995   1.764   6.803 -0.0517 -0.1946 -0.4828
  170SOPE    HS19167   3.968   1.846   6.872  0.8885 -0.0567 -0.2759
  170SOPE   O2119168   4.121   1.703   6.846 -0.5008  0.6007  0.4997
  170SOPE   C2119169   4.205   1.789   6.907  0.0413  0.3582 -0.0181
  170SOPE   O2219170   4.185   1.905   6.935  0.1768  0.4012 -0.0858
  170SOPE   C2219171   4.338   1.713   6.942 -0.7482 -0.0001 -0.0529
  170SOPE   H2R19172   4.421   1.776   6.903 -0.4859 -0.4454 -0.2286
  170SOPE   H2S19173   4.332   1.615   6.889  0.9187  0.8717 -1.9474
  170SOPE    C319174   3.881   1.657   6.805  0.3018  0.2085  0.6620
  170SOPE    HX19175   3.894   1.580   6.726 -0.2154 -0.0353  0.8147
  170SOPE    HY19176   3.782   1.702   6.784 -0.2452 -0.8443  0.9294
  170SOPE   O3119177   3.866   1.597   6.938 -0.2788 -0.2411 -0.0226
  170SOPE   C3119178   3.930   1.482   6.956  0.3052 -0.0357  0.6119
  170SOPE   O3219179   3.999   1.422   6.877 -0.7504 -0.0562 -0.3517
  170SOPE   C3219180   3.899   1.430   7.096 -0.3680  0.4765  0.1930
  170SOPE   H2X19181   3.915   1.320   7.103  1.0143  0.3825 -3.3112
  170SOPE   H2Y19182   3.798   1.467   7.122  0.4630  2.0388  1.3028
  170SOPE   C2319183   4.354   1.671   7.087 -0.0082  0.2484 -0.3666
  170SOPE   H3R19184   4.434   1.596   7.104 -0.2345 -0.1792 -1.1482
  170SOPE   H3S19185   4.254   1.639   7.124  0.0067  0.9169  0.2537
  170SOPE   C2419186   4.397   1.791   7.187  0.2662 -0.2539  0.6287
  170SOPE   H4R19187   4.486   1.833   7.137  0.9604 -1.5557  0.7563
  170SOPE   H4S19188   4.323   1.874   7.184 -1.0460 -1.4668 -1.9582
  170SOPE   C2519189   4.429   1.734   7.326  0.5357 -0.2151 -0.7322
  170SOPE   H5R19190   4.333   1.690   7.359 -0.1699  1.3595 -0.6655
  170SOPE   H5S19191   4.509   1.659   7.305  1.7707  1.5745 -2.6701
  170SOPE   C2619192   4.482   1.834   7.419 -0.8485  0.7306 -0.3426
  170SOPE   H6R19193   4.579   1.863   7.371  1.0922 -3.7497  0.6572
  170SOPE   H6S19194   4.420   1.925   7.433 -0.6788  0.3473  3.2926
  170SOPE   C2719195   4.512   1.770   7.555  0.8072 -0.3812  0.1106
  170SOPE   H7R19196   4.570   1.676   7.551  1.5694  0.0983 -0.2564
  170SOPE   H7S19197   4.581   1.840   7.607  2.5425 -0.5664 -1.8667
  170SOPE   C2819198   4.391   1.765   7.651  0.0550 -0.2034  0.6403
  170SOPE   H8R19199   4.336   1.861   7.657 -1.0981 -0.9290  1.9962
  170SOPE   H8S19200   4.322   1.694   7.600  1.1177  1.4651 -3.2936
  170SOPE   C2919201   4.410   1.718   7.791 -0.9108  0.2530 -0.9374
  170SOPE   H9119202   4.385   1.613   7.816  2.2371 -0.5166 -0.8216
  170SOPE  C21019203   4.447   1.798   7.898 -0.0100  0.0346  0.2209
  170SOPE  H10119204   4.467   1.751   7.995 -2.4230 -2.4537 -0.4360
  170SOPE  C21119205   4.481   1.945   7.904  0.2221  0.2985 -0.2906
  170SOPE  H11R19206   4.410   2.006   7.844 -0.5295  0.7781  1.0635
  170SOPE  H11S19207   4.578   1.953   7.851 -0.1864 -1.0912 -1.2985
  170SOPE  C21219208   4.482   1.987   8.051 -0.0903 -0.5543 -0.3865
  170SOPE  H12R19209   4.412   1.934   8.119  1.3690 -1.6822  0.2527
  170SOPE  H12S19210   4.451   2.094   8.055  0.8579 -0.2074 -1.8915
  170SOPE  C21319211   4.613   1.975   8.129  0.0303 -0.4180 -0.3550
  170SOPE  H13R19212   4.697   2.004   8.063 -0.0272  0.9407  0.1653
  170SOPE  H13S19213   4.640   1.870   8.154  0.6681 -0.7573 -2.3735
  170SOPE  C21419214   4.625   2.059   8.261  0.3700  0.7058  0.5005
  170SOPE  H14R19215   4.692   2.000   8.327  2.7191  0.0616 -2.3368
  170SOPE  H14S19216   4.529   2.065   8.315  1.1481  1.8572  1.7833
  170SOPE  C21519217   4.684   2.200   8.240  0.8709 -0.4630 -0.4292
  170SOPE  H15R19218   4.615   2.242   8.163  1.6276 -2.8861 -2.4842
  170SOPE  H15S19219   4.788   2.190   8.203  1.2886  0.1025  0.5748
  170SOPE  C21619220   4.686   2.278   8.371  0.5001  0.4344  0.4477
  170SOPE  H16R19221   4.767   2.235   8.434 -1.0823  0.1817  2.3613
  170SOPE  H16S19222   4.600   2.254   8.437  0.3784  0.5666  0.3394
  170SOPE  C21719223   4.692   2.431   8.363 -0.6768 -0.7040 -0.1482
  170SOPE  H17R19224   4.776   2.457   8.296 -0.7664 -1.1209 -0.4205
  170SOPE  H17S19225   4.714   2.474   8.463 -0.1116 -0.4786 -0.3693
  170SOPE  C21819226   4.561   2.499   8.311  0.4864  0.2717 -0.7365
  170SOPE  H18R19227   4.533   2.447   8.217  4.9342 -1.0590 -1.4067
  170SOPE  H18S19228   4.584   2.606   8.296  0.5254  0.2255 -1.0033
  170SOPE  H18T19229   4.481   2.484   8.388 -0.9231 -1.1583 -2.4431
  170SOPE   C3319230   3.980   1.497   7.213  0.0521  0.7090  0.3584
  170SOPE   H3X19231   4.081   1.525   7.177 -0.2229  0.9000 -0.2600
  170SOPE   H3Y19232   3.988   1.416   7.289  1.6142 -0.5295 -1.0922
  170SOPE   C3419233   3.906   1.613   7.269  0.3194 -0.4258 -0.7241
  170SOPE   H4X19234   3.802   1.576   7.282  0.8635 -1.9007 -0.4737
  170SOPE   H4Y19235   3.911   1.696   7.195  0.8278  0.0990 -0.0984
  170SOPE   C3519236   3.966   1.662   7.405 -0.0683  0.0882 -0.2574
  170SOPE   H5X19237   3.941   1.770   7.418  0.5111  0.4158 -1.7602
  170SOPE   H5Y19238   4.076   1.654   7.404 -0.1934 -1.9312 -0.7183
  170SOPE   C3619239   3.918   1.573   7.520  0.1067  0.6730 -1.0307
  170SOPE   H6X19240   3.951   1.472   7.488  1.2789 -0.1831  2.6108
  170SOPE   H6Y19241   3.808   1.583   7.536  0.2975 -0.9059  1.7033
  170SOPE   C3719242   3.987   1.585   7.660 -0.2784  0.5375  0.3792
  170SOPE   H7X19243   3.974   1.689   7.698  0.3341  0.5959  0.4417
  170SOPE   H7Y19244   4.094   1.557   7.657 -1.0540 -2.3823 -1.1980
  170SOPE   C3819245   3.930   1.490   7.764  0.1088 -0.1627 -0.2297
  170SOPE   H8X19246   3.941   1.383   7.734  0.4994  0.8012 -3.7418
  170SOPE   H8Y19247   3.819   1.491   7.773  0.3260 -0.2133  3.0083
  170SOPE   C3919248   3.988   1.516   7.902 -0.2320  0.0865  0.6453
  170SOPE   H9X19249   3.950   1.615   7.936  1.2046  0.7910  0.2445
  170SOPE   H9Y19250   4.099   1.522   7.899 -0.0012 -3.5242 -1.2299
  170SOPE  C31019251   3.950   1.411   8.006  0.4140 -0.0954 -0.7067
  170SOPE  H10X19252   4.023   1.413   8.090 -0.5901  1.8806  0.1443
  170SOPE  H10Y19253   3.945   1.311   7.957  1.9631 -1.4721  1.8495
  170SOPE  C31119254   3.805   1.421   8.067  0.3173 -0.7572  0.3806
  170SOPE  H11X19255   3.812   1.346   8.149  2.4861 -0.0727  0.8645
  170SOPE  H11Y19256   3.729   1.395   7.990  0.2891 -0.6085  0.3584
  170SOPE  C31219257   3.777   1.559   8.132  0.2666  0.0917 -0.0775
  170SOPE  H12X19258   3.777   1.634   8.050 -0.4877 -2.2764 -2.3067
  170SOPE  H12Y19259   3.848   1.595   8.209  0.8772 -2.5149  0.6351
  170SOPE  C31319260   3.642   1.571   8.205  0.7778 -0.1227  0.6575
  170SOPE  H13X19261   3.640   1.523   8.305 -0.4595  0.6175  0.9978
  170SOPE  H13Y19262   3.568   1.523   8.137  2.2478  0.5172 -1.4533
  170SOPE  C31419263   3.583   1.716   8.210  0.0515  0.4381  0.0846
  170SOPE  H14X19264   3.474   1.695   8.199  0.0856  0.5720 -0.5129
  170SOPE  H14Y19265   3.603   1.778   8.120 -0.0747 -2.0090 -1.6777
  170SOPE  C31519266   3.620   1.786   8.340  0.3235 -0.1974 -0.2003
  170SOPE  H15X19267   3.615   1.897   8.342  2.2523 -0.0813 -0.8367
  170SOPE  H15Y19268   3.728   1.766   8.358 -0.2197 -4.6197 -1.2963
  170SOPE  C31619269   3.550   1.741   8.468  0.0658 -0.0617 -0.5564
  170SOPE  H16X19270   3.572   1.827   8.534 -0.5667  0.5013 -1.0718
  170SOPE  H16Y19271   3.594   1.641   8.489 -0.1336 -0.0233  0.0592
  170SOPE  C31719272   3.394   1.732   8.459 -0.4380  0.2679 -0.2286
  170SOPE  H17X19273   3.348   1.676   8.543 -0.3315  1.8532  0.8869
  170SOPE  H17Y19274   3.374   1.663   8.373  0.7185 -0.7016  0.2591
  170SOPE  C31819275   3.321   1.870   8.438  0.1953 -1.1388 -0.4298
  170SOPE  H18X19276   3.338   1.916   8.339  1.1231 -4.2601 -1.8043
  170SOPE  H18Y19277   3.376   1.931   8.513  0.9119 -0.6272 -1.3646
  170SOPE  H18Z19278   3.212   1.873   8.459  0.1662 -1.3441 -0.5462
  171SOPE     N19279   4.145   5.720   6.097  0.5233  0.2340  0.4400
  171SOPE   HN119280   4.193   5.628   6.087 -2.0753 -1.0791 -0.4378
  171SOPE   HN219281   4.161   5.784   6.017  0.2468  1.9341  1.7246
  171SOPE   HN319282   4.166   5.764   6.189 -2.8216  0.4181  1.1732
  171SOPE   C1219283   3.994   5.697   6.105  0.6702 -0.0004 -0.6935
  171SOPE  H12A19284   3.955   5.670   6.004  0.8434 -1.3957 -0.3906
  171SOPE  H12B19285   3.942   5.793   6.124  0.8787 -0.0591  0.1695
  171SOPE   C1119286   3.964   5.594   6.215 -1.1057  0.3309  0.0525
  171SOPE  H11A19287   4.002   5.494   6.188  0.5581  1.4057 -1.7291
  171SOPE  H11B19288   3.854   5.595   6.230 -1.3385 -2.8249 -1.0779
  171SOPE     P19289   3.988   5.556   6.468 -0.1884 -0.1262 -0.3477
  171SOPE   O1319290   4.109   5.479   6.502 -0.2797  0.2150  0.3889
  171SOPE   O1419291   3.860   5.479   6.458 -0.3813  0.4062  0.2498
  171SOPE   O1219292   4.023   5.639   6.337  0.0184 -0.2399 -0.0757
  171SOPE   O1119293   3.951   5.665   6.566  0.1774  0.3597 -0.2646
  171SOPE    C119294   4.034   5.782   6.595  0.0379  0.3987 -0.1690
  171SOPE    HA19295   3.966   5.861   6.633 -2.9516 -1.9949 -0.3156
  171SOPE    HB19296   4.083   5.807   6.498 -2.4412  2.0547 -1.0346
  171SOPE    C219297   4.146   5.750   6.696 -0.6935  0.0617  0.7348
  171SOPE    HS19298   4.170   5.643   6.678  0.0224  0.5827 -1.5833
  171SOPE   O2119299   4.087   5.781   6.821  0.1507 -0.3346 -0.1097
  171SOPE   C2119300   4.016   5.689   6.883 -0.0496  0.3672  0.7860
  171SOPE   O2219301   4.003   5.573   6.844 -0.3290 -0.4941  0.4413
  171SOPE   C2219302   3.935   5.756   6.992 -0.0384  0.0491  0.7195
  171SOPE   H2R19303   3.852   5.810   6.942 -0.1304  0.1930  1.0285
  171SOPE   H2S19304   4.009   5.825   7.039  1.1875 -0.1907 -0.8213
  171SOPE    C319305   4.277   5.836   6.673  0.3153 -0.5325  0.1148
  171SOPE    HX19306   4.233   5.938   6.661 -1.5080 -1.2605  0.3656
  171SOPE    HY19307   4.322   5.819   6.574 -0.9361  1.0137 -0.7532
  171SOPE   O3119308   4.376   5.825   6.777  0.5780 -0.5289  0.5027
  171SOPE   C3119309   4.440   5.715   6.767 -0.1621  0.2621 -0.3092
  171SOPE   O3219310   4.438   5.637   6.673 -0.6053  0.7665  0.3419
  171SOPE   C3219311   4.513   5.694   6.898 -0.1684  0.3531 -0.8616
  171SOPE   H2X19312   4.519   5.788   6.958 -1.7483 -0.2899  0.3606
  171SOPE   H2Y19313   4.614   5.651   6.883  0.1515  0.4497  0.8836
  171SOPE   C2319314   3.893   5.660   7.099 -0.6332  0.0664 -0.3389
  171SOPE   H3R19315   3.975   5.587   7.113 -0.9050 -0.0293  0.7829
  171SOPE   H3S19316   3.809   5.598   7.059  1.2313 -1.8758 -1.3729
  171SOPE   C2419317   3.875   5.723   7.234 -0.0219 -0.3539  0.4235
  171SOPE   H4R19318   3.974   5.773   7.248  0.6548 -1.7092  0.6033
  171SOPE   H4S19319   3.799   5.804   7.230 -0.7646 -1.1563 -3.5297
  171SOPE   C2519320   3.848   5.624   7.348 -0.2066 -0.0034  0.5067
  171SOPE   H5R19321   3.752   5.573   7.321  0.0971  0.1347 -0.8421
  171SOPE   H5S19322   3.917   5.538   7.361 -1.2361 -1.1962 -1.6763
  171SOPE   C2619323   3.822   5.692   7.482  0.4453 -0.0779  0.9601
  171SOPE   H6R19324   3.905   5.762   7.503  0.5580  0.6166 -1.6646
  171SOPE   H6S19325   3.737   5.762   7.464  1.8656  1.5136  0.3791
  171SOPE   C2719326   3.793   5.592   7.591 -0.1031 -0.2046  0.5519
  171SOPE   H7R19327   3.719   5.517   7.556  0.3864 -1.5210  2.2717
  171SOPE   H7S19328   3.889   5.539   7.609 -1.0546 -2.4021 -0.6806
  171SOPE   C2819329   3.743   5.656   7.721 -0.6211 -0.0289 -0.8366
  171SOPE   H8R19330   3.813   5.731   7.764 -0.6578 -0.0528 -0.7342
  171SOPE   H8S19331   3.646   5.707   7.702 -0.7541 -0.1373 -0.4485
  171SOPE   C2919332   3.741   5.553   7.830 -0.6918  0.2128 -0.8645
  171SOPE   H9119333   3.762   5.449   7.801  0.9720 -0.5251  2.7426
  171SOPE  C21019334   3.736   5.582   7.966  0.6085  0.3790 -0.3800
  171SOPE  H10119335   3.731   5.516   8.054  0.6664 -0.6812 -1.1731
  171SOPE  C21119336   3.715   5.724   8.013 -0.5178 -0.7194 -0.4345
  171SOPE  H11R19337   3.604   5.733   8.011 -0.3203  2.7287  1.0689
  171SOPE  H11S19338   3.764   5.805   7.955  0.0522  0.2143  1.3303
  171SOPE  C21219339   3.751   5.747   8.153  0.0917  0.5476 -0.1023
  171SOPE  H12R19340   3.855   5.711   8.171 -0.1928  0.2589  0.9855
  171SOPE  H12S19341   3.681   5.687   8.214  1.6500 -0.4811  0.7174
  171SOPE  C21319342   3.736   5.887   8.209 -0.0233 -0.1893 -0.0508
  171SOPE  H13R19343   3.627   5.906   8.201 -0.1676 -0.6494  0.7230
  171SOPE  H13S19344   3.788   5.963   8.147 -0.0336  0.0052  0.1795
  171SOPE  C21419345   3.781   5.920   8.353  0.3409  0.0103 -0.1028
  171SOPE  H14R19346   3.753   6.025   8.376 -0.3255  0.1451 -1.4842
  171SOPE  H14S19347   3.886   5.906   8.387 -0.5718 -2.4914  1.9011
  171SOPE  C21519348   3.696   5.830   8.456 -0.3064 -0.1329  0.2014
  171SOPE  H15R19349   3.720   5.725   8.431  2.2874  0.3248  0.5839
  171SOPE  H15S19350   3.588   5.856   8.445 -0.1451  0.1079 -0.8220
  171SOPE  C21619351   3.755   5.843   8.595  0.8328 -0.0080  0.0517
  171SOPE  H16R19352   3.785   5.945   8.627  1.0204  0.9212 -2.8533
  171SOPE  H16S19353   3.844   5.776   8.593  0.0538 -1.0603 -1.1736
  171SOPE  C21719354   3.660   5.789   8.707 -0.2811  0.8695  0.6812
  171SOPE  H17R19355   3.574   5.859   8.708 -1.0914 -0.1177  0.3404
  171SOPE  H17S19356   3.723   5.779   8.798  0.1215 -1.0567  0.2055
  171SOPE  C21819357   3.597   5.662   8.685  0.1045  0.8147 -0.6290
  171SOPE  H18R19358   3.553   5.622   8.778 -1.7682 -1.5095 -2.4568
  171SOPE  H18S19359   3.669   5.578   8.675  0.1983  0.7624  0.4853
  171SOPE  H18T19360   3.517   5.660   8.608 -2.4045  1.3357  1.8833
  171SOPE   C3319361   4.432   5.606   6.996 -0.0107  0.3893  0.0655
  171SOPE   H3X19362   4.501   5.541   7.054  0.0458  0.6453  0.2893
  171SOPE   H3Y19363   4.366   5.538   6.938 -0.5419  2.5167 -1.8908
  171SOPE   C3419364   4.344   5.684   7.086  0.1616  0.1177 -1.1408
  171SOPE   H4X19365   4.277   5.759   7.039 -1.4484 -1.0011 -0.6761
  171SOPE   H4Y19366   4.404   5.746   7.156  1.4850  1.5390 -3.4667
  171SOPE   C3519367   4.245   5.604   7.171 -0.3726  0.0953 -0.1537
  171SOPE   H5X19368   4.175   5.544   7.109 -1.4005  1.6854 -0.5554
  171SOPE   H5Y19369   4.191   5.680   7.233 -0.1527  0.7630 -0.7768
  171SOPE   C3619370   4.318   5.520   7.272  0.3256 -0.2566 -0.1625
  171SOPE   H6X19371   4.387   5.578   7.337 -0.9885  0.4377  0.6427
  171SOPE   H6Y19372   4.371   5.439   7.218  0.6792  0.6027 -1.1094
  171SOPE   C3719373   4.211   5.441   7.351 -0.1563 -0.2548 -0.1127
  171SOPE   H7X19374   4.154   5.379   7.278 -0.9167 -0.9388  1.0355
  171SOPE   H7Y19375   4.145   5.522   7.388 -0.8697 -0.9683  0.1941
  171SOPE   C3819376   4.248   5.356   7.469 -0.6658 -0.4048 -0.4641
  171SOPE   H8X19377   4.358   5.342   7.473 -0.6853 -0.7560 -1.1652
  171SOPE   H8Y19378   4.208   5.252   7.465 -1.6708  0.0034 -1.3004
  171SOPE   C3919379   4.205   5.423   7.602  0.0802  0.6144 -0.6186
  171SOPE   H9X19380   4.094   5.418   7.613  0.1189  1.8958  0.4403
  171SOPE   H9Y19381   4.242   5.528   7.602  2.0888 -0.0715 -1.7287
  171SOPE  C31019382   4.268   5.352   7.722  0.4851  0.9401 -0.5030
  171SOPE  H10X19383   4.378   5.356   7.711  0.5100 -1.4595 -1.4278
  171SOPE  H10Y19384   4.248   5.243   7.713 -1.3592  1.1470  0.7862
  171SOPE  C31119385   4.221   5.404   7.853 -0.1923 -0.2800 -0.1392
  171SOPE  H11X19386   4.219   5.513   7.834 -0.6950 -0.4142 -0.9026
  171SOPE  H11Y19387   4.283   5.389   7.944 -1.0537 -0.6484  0.4007
  171SOPE  C31219388   4.083   5.348   7.891 -0.3243 -0.7258 -0.2619
  171SOPE  H12X19389   4.027   5.360   7.796  1.4892 -0.7180 -1.3716
  171SOPE  H12Y19390   4.036   5.413   7.968 -0.5104  0.8525 -1.6782
  171SOPE  C31319391   4.083   5.197   7.937  0.1790  0.2438 -0.6694
  171SOPE  H13X19392   4.160   5.201   8.017 -0.1069  1.1624 -0.4346
  171SOPE  H13Y19393   4.117   5.126   7.858 -1.5692 -0.4794 -0.7882
  171SOPE  C31419394   3.943   5.163   7.987 -0.3730 -0.0607  0.1574
  171SOPE  H14X19395   3.949   5.057   8.018 -1.5300 -0.3872 -0.6986
  171SOPE  H14Y19396   3.876   5.162   7.899  0.6062 -1.3292 -0.6002
  171SOPE  C31519397   3.889   5.258   8.108  0.1787  0.3414 -0.9704
  171SOPE  H15X19398   3.860   5.358   8.071  0.8210  0.9282  0.0845
  171SOPE  H15Y19399   3.967   5.278   8.185 -0.4110  1.3947 -0.6360
  171SOPE  C31619400   3.774   5.189   8.186  0.9437 -0.1398  0.0283
  171SOPE  H16X19401   3.789   5.085   8.222 -0.6402 -0.9548 -1.6117
  171SOPE  H16Y19402   3.696   5.194   8.107  0.2147  0.6255  0.7936
  171SOPE  C31719403   3.729   5.268   8.304 -0.3716  0.4968 -0.1686
  171SOPE  H17X19404   3.618   5.273   8.303 -0.3919  0.5218  1.1738
  171SOPE  H17Y19405   3.768   5.370   8.281  2.4859 -0.5341 -0.0652
  171SOPE  C31819406   3.789   5.219   8.436  0.5323  0.2159 -0.4096
  171SOPE  H18X19407   3.765   5.111   8.442  0.0294  0.3630  0.2559
  171SOPE  H18Y19408   3.722   5.261   8.514  1.1520  0.7744 -0.1714
  171SOPE  H18Z19409   3.898   5.236   8.450  0.1853  1.7667  0.6107
  172SOPE     N19410   5.081   6.736   6.361  1.0567  0.5318  0.2355
  172SOPE   HN119411   5.026   6.724   6.274 -0.8515 -3.4121  1.8742
  172SOPE   HN219412   5.028   6.808   6.413 -0.7850  0.1927 -1.1062
  172SOPE   HN319413   5.172   6.778   6.333  0.5173 -1.0473 -4.3061
  172SOPE   C1219414   5.096   6.613   6.446  0.3442  0.0141 -0.0010
  172SOPE  H12A19415   5.167   6.550   6.388 -1.3222  1.3680 -3.6519
  172SOPE  H12B19416   4.998   6.560   6.448  0.2293  0.1797 -1.0793
  172SOPE   C1119417   5.153   6.656   6.588 -0.1602 -0.1466  0.0786
  172SOPE  H11A19418   5.157   6.560   6.645  0.7929 -0.4285 -0.4566
  172SOPE  H11B19419   5.086   6.723   6.646 -1.2771 -1.7636  0.7282
  172SOPE     P19420   5.417   6.641   6.580 -0.3651  0.5551 -0.0035
  172SOPE   O1319421   5.516   6.736   6.522  0.1951  0.6127  0.0515
  172SOPE   O1419422   5.392   6.505   6.519 -0.1133 -0.6532 -0.5848
  172SOPE   O1219423   5.281   6.714   6.575 -0.0173 -0.1799  0.4579
  172SOPE   O1119424   5.454   6.617   6.733 -0.4602  0.2573 -0.1948
  172SOPE    C119425   5.496   6.730   6.816 -0.0373 -0.3072  0.5076
  172SOPE    HA19426   5.467   6.826   6.767  0.0917 -1.0152 -0.9834
  172SOPE    HB19427   5.606   6.743   6.812 -0.0417 -0.8114 -2.8370
  172SOPE    C219428   5.452   6.726   6.971  0.5256 -1.2806  0.7240
  172SOPE    HS19429   5.478   6.629   7.018  1.3332 -0.2099  2.5633
  172SOPE   O2119430   5.309   6.732   6.988  0.3867  0.0452 -0.4150
  172SOPE   C2119431   5.243   6.828   6.922  0.3617 -0.1589 -0.6523
  172SOPE   O2219432   5.293   6.926   6.866 -0.0463 -0.4472  0.6367
  172SOPE   C2219433   5.094   6.796   6.943 -0.4335 -0.3506 -0.1054
  172SOPE   H2R19434   5.073   6.774   7.049 -0.1056  2.9356  0.6815
  172SOPE   H2S19435   5.074   6.711   6.873 -0.3303  0.2046 -0.8207
  172SOPE    C319436   5.516   6.843   7.048 -0.4318  0.3151  0.1854
  172SOPE    HX19437   5.488   6.928   6.982 -1.5955 -0.5173 -0.4168
  172SOPE    HY19438   5.625   6.830   7.061 -0.5780 -0.0800  1.0731
  172SOPE   O3119439   5.448   6.853   7.177 -0.2707  0.0261 -0.0923
  172SOPE   C3119440   5.522   6.927   7.262  0.4690  0.7802  0.3595
  172SOPE   O3219441   5.613   7.001   7.231  0.3124 -0.3664  0.6666
  172SOPE   C3219442   5.479   6.875   7.404 -0.0383 -0.1779  0.4505
  172SOPE   H2X19443   5.369   6.865   7.401 -0.4610  3.8198 -1.1196
  172SOPE   H2Y19444   5.511   6.957   7.473  2.6112  0.3504 -1.3171
  172SOPE   C2319445   5.010   6.915   6.905 -0.1833  0.1200  0.0082
  172SOPE   H3R19446   5.029   6.941   6.799  1.7136 -2.0825 -0.2225
  172SOPE   H3S19447   5.039   7.002   6.968  3.2470 -0.7580 -0.2727
  172SOPE   C2419448   4.858   6.897   6.929  0.4252 -0.1085 -0.2170
  172SOPE   H4R19449   4.824   7.003   6.936  0.4408 -0.0494 -1.0371
  172SOPE   H4S19450   4.795   6.844   6.855  1.4317  1.3791 -2.1874
  172SOPE   C2519451   4.823   6.840   7.061 -0.1642  0.7055 -0.2460
  172SOPE   H5R19452   4.712   6.844   7.065 -0.1908  2.2031 -1.7442
  172SOPE   H5S19453   4.861   6.735   7.060 -0.1355  0.7158 -2.0998
  172SOPE   C2619454   4.875   6.930   7.180 -0.4359  0.9215  0.0785
  172SOPE   H6R19455   4.985   6.922   7.182 -0.6124 -2.9260 -1.1772
  172SOPE   H6S19456   4.826   7.026   7.154  0.4329  0.3724 -3.9251
  172SOPE   C2719457   4.828   6.878   7.312 -0.2852  0.7675  0.5689
  172SOPE   H7R19458   4.717   6.876   7.323 -0.2007  1.7594  1.6650
  172SOPE   H7S19459   4.844   6.768   7.308  0.0881  0.8741 -1.3964
  172SOPE   C2819460   4.881   6.942   7.435  0.4479 -0.3429  0.7195
  172SOPE   H8R19461   4.852   7.049   7.441  0.6201 -0.2480 -0.1749
  172SOPE   H8S19462   4.832   6.901   7.526 -0.2890  0.8512  0.8754
  172SOPE   C2919463   5.029   6.942   7.453  0.7289  0.2203  0.0950
  172SOPE   H9119464   5.071   7.029   7.399  1.6059 -0.3326 -0.1397
  172SOPE  C21019465   5.098   6.868   7.539 -0.4067  0.3639 -0.1090
  172SOPE  H10119466   5.207   6.863   7.549 -0.4668 -3.7236 -0.6115
  172SOPE  C21119467   5.024   6.765   7.623 -0.2449 -0.6990 -0.5611
  172SOPE  H11R19468   5.094   6.680   7.634  0.2858 -0.2402 -0.3581
  172SOPE  H11S19469   4.929   6.730   7.577  1.4065 -2.2049 -2.9402
  172SOPE  C21219470   4.983   6.835   7.758  0.6164 -0.3784  0.4030
  172SOPE  H12R19471   4.930   6.758   7.817 -0.1119  0.9072  1.4621
  172SOPE  H12S19472   4.909   6.917   7.742  1.2252 -0.1875 -1.6243
  172SOPE  C21319473   5.096   6.882   7.848 -0.3033 -0.6361 -0.7997
  172SOPE  H13R19474   5.169   6.941   7.789  0.4235 -1.0543 -0.3422
  172SOPE  H13S19475   5.161   6.799   7.885  1.3301  0.7825 -0.4085
  172SOPE  C21419476   5.048   6.964   7.972 -0.2741 -0.0019  0.1995
  172SOPE  H14R19477   4.993   7.055   7.938  0.5810  0.1973 -0.6753
  172SOPE  H14S19478   5.141   6.999   8.022  0.7806 -1.0234 -1.0290
  172SOPE  C21519479   4.977   6.867   8.072  0.1119 -0.5073  1.0245
  172SOPE  H15R19480   4.998   6.764   8.038 -0.9476 -0.1132 -0.8884
  172SOPE  H15S19481   4.869   6.891   8.086  0.4021  1.3899  0.2080
  172SOPE  C21619482   5.046   6.887   8.211  0.4922 -0.3341  0.7346
  172SOPE  H16R19483   5.153   6.863   8.193  0.1117 -1.4673 -0.0496
  172SOPE  H16S19484   4.994   6.819   8.281  2.0882 -1.7807  0.5448
  172SOPE  C21719485   5.018   7.031   8.271  0.2765 -0.6956 -0.7265
  172SOPE  H17R19486   4.911   7.041   8.297  0.6895  0.2771  0.6415
  172SOPE  H17S19487   5.033   7.120   8.207 -2.3591 -0.6755 -1.3381
  172SOPE  C21819488   5.099   7.037   8.401 -0.3389 -0.1836  0.2691
  172SOPE  H18R19489   5.068   6.957   8.472 -1.8631  1.4066  1.4375
  172SOPE  H18S19490   5.067   7.134   8.446  1.4119  1.0551 -1.0715
  172SOPE  H18T19491   5.208   7.031   8.383 -0.4646 -3.2623  0.2567
  172SOPE   C3319492   5.547   6.753   7.448 -0.8059  0.5437  0.4239
  172SOPE   H3X19493   5.657   6.769   7.452 -0.7278  0.4910 -1.0892
  172SOPE   H3Y19494   5.522   6.674   7.374 -1.4911  0.9286  0.2368
  172SOPE   C3419495   5.488   6.691   7.575 -0.1455 -0.4317 -0.5758
  172SOPE   H4X19496   5.542   6.598   7.605 -0.3103 -0.6111 -0.8291
  172SOPE   H4Y19497   5.381   6.665   7.558 -0.7638  1.7419 -0.0945
  172SOPE   C3519498   5.502   6.770   7.707  0.1182 -0.5016 -0.0523
  172SOPE   H5X19499   5.475   6.877   7.697  0.8123 -0.3545 -0.3355
  172SOPE   H5Y19500   5.611   6.782   7.721  0.1258 -2.1890  1.5896
  172SOPE   C3619501   5.432   6.705   7.821  0.8490  0.0956  0.3067
  172SOPE   H6X19502   5.470   6.601   7.822  0.7269  0.0526  0.9853
  172SOPE   H6Y19503   5.326   6.703   7.790  0.5400  0.9921  1.2405
  172SOPE   C3719504   5.461   6.771   7.954  0.0764 -0.8444  0.7548
  172SOPE   H7X19505   5.405   6.867   7.957  0.9865 -0.2245 -1.6636
  172SOPE   H7Y19506   5.569   6.792   7.963 -0.5556  2.2985  1.5515
  172SOPE   C3819507   5.414   6.691   8.087  0.1546  0.1181  0.0900
  172SOPE   H8X19508   5.481   6.604   8.108  1.4286  0.5164 -2.1334
  172SOPE   H8Y19509   5.306   6.675   8.066  0.2296 -1.8829  1.1009
  172SOPE   C3919510   5.424   6.773   8.217 -1.1794  0.1055 -0.4745
  172SOPE   H9X19511   5.365   6.864   8.194  1.1021  2.3823  2.3195
  172SOPE   H9Y19512   5.525   6.799   8.256 -1.1923 -1.6294  0.7450
  172SOPE  C31019513   5.361   6.692   8.326  0.2891  0.7801  1.1106
  172SOPE  H10X19514   5.423   6.600   8.327 -2.3308 -1.1492 -1.8320
  172SOPE  H10Y19515   5.257   6.670   8.291  0.5329  1.9430 -0.4469
  172SOPE  C31119516   5.364   6.746   8.468 -0.1465 -0.4018 -0.5698
  172SOPE  H11X19517   5.289   6.826   8.484 -0.2083 -0.4179 -0.7804
  172SOPE  H11Y19518   5.466   6.787   8.487 -0.6928  0.1092  1.3246
  172SOPE  C31219519   5.327   6.642   8.578 -0.7214  0.3390  0.6996
  172SOPE  H12X19520   5.358   6.684   8.677  1.8857 -1.5799  0.7514
  172SOPE  H12Y19521   5.390   6.554   8.554 -1.0577  0.5758 -1.1252
  172SOPE  C31319522   5.183   6.591   8.575  1.0543 -0.2657  0.1029
  172SOPE  H13X19523   5.130   6.596   8.478  0.5670  1.0120  0.4148
  172SOPE  H13Y19524   5.122   6.669   8.626 -0.6472 -0.7163 -1.2165
  172SOPE  C31419525   5.153   6.464   8.643 -0.1268  0.5123  0.0857
  172SOPE  H14X19526   5.183   6.482   8.748  1.0286 -1.9167  0.2163
  172SOPE  H14Y19527   5.224   6.385   8.611  0.4159  1.1286 -0.2345
  172SOPE  C31519528   5.012   6.410   8.646 -0.9424 -0.3619  0.1422
  172SOPE  H15X19529   4.982   6.371   8.547 -0.1095 -0.0094 -0.2567
  172SOPE  H15Y19530   4.943   6.495   8.661 -1.7039 -0.3672 -2.9965
  172SOPE  C31619531   4.998   6.301   8.753  0.0375 -0.3662  0.4511
  172SOPE  H16X19532   5.086   6.234   8.753  0.1525 -0.2188 -0.2930
  172SOPE  H16Y19533   4.910   6.244   8.717 -0.4158  1.0404 -0.7300
  172SOPE  C31719534   4.989   6.353   8.896  0.2858 -0.0063  0.1843
  172SOPE  H17X19535   4.880   6.367   8.909  0.0172 -0.4379 -1.5384
  172SOPE  H17Y19536   5.037   6.452   8.911  0.5958 -0.0564 -0.5004
  172SOPE  C31819537   5.025   6.246   9.001  0.2363 -0.2485  0.1963
  172SOPE  H18X19538   4.948   6.169   9.018  0.2178  0.0647  1.6287
  172SOPE  H18Y19539   5.019   6.298   9.100  1.0331  1.3710 -0.5809
  172SOPE  H18Z19540   5.123   6.198   8.979 -0.3641 -0.5057 -2.0239
  173SAPI   C1219541   0.005   3.870  10.914 -0.2343 -0.1267 -0.4294
  173SAPI    H219542  -0.017   3.841  10.809 -0.1809  0.1474 -0.5173
  173SAPI    O219543  -0.112   3.930  10.959 -0.5420  0.4030 -0.0631
  173SAPI   HO219544  -0.179   3.930  10.890 -1.3468 -0.1040  0.7130
  173SAPI   C1319545   0.031   3.747  10.995  0.1279 -0.3224  0.0832
  173SAPI    H319546   0.122   3.699  10.953  0.8592  0.1018  1.1586
  173SAPI    O319547  -0.070   3.654  10.975 -0.1309 -0.3862 -0.3214
  173SAPI   HO319548  -0.146   3.705  11.004  1.0355  1.6769 -0.8026
  173SAPI   C1419549   0.059   3.790  11.138 -0.0824  0.4632 -0.2357
  173SAPI    H419550  -0.029   3.838  11.187 -0.4535 -0.8832  0.4577
  173SAPI    O419551   0.078   3.678  11.218 -0.2996  0.5790 -0.0469
  173SAPI   HO419552   0.003   3.654  11.272 -1.7287  1.4675 -1.6004
  173SAPI   C1519553   0.176   3.891  11.133 -0.8641  0.1010 -0.2527
  173SAPI    H519554   0.259   3.831  11.091 -2.4194 -0.4169 -2.6969
  173SAPI    O519555   0.212   3.932  11.269 -0.0860  0.1106 -0.9168
  173SAPI   HO519556   0.308   3.923  11.276 -0.1541  0.5208  0.8200
  173SAPI   C1619557   0.162   4.007  11.048  0.3513 -0.4098 -0.4963
  173SAPI    H619558   0.068   4.055  11.080  1.2298  2.0985 -1.5195
  173SAPI    O619559   0.261   4.111  11.044 -0.3204  0.3223  0.0494
  173SAPI   HO619560   0.292   4.117  10.953  2.6269  0.4043  1.0166
  173SAPI   C1119561   0.128   3.965  10.905 -0.8457  0.1387 -0.0939
  173SAPI    H119562   0.212   3.906  10.865  1.2594  2.4513  0.8090
  173SAPI     P19563   0.209   4.142  10.720  0.5233 -0.4699 -0.0740
  173SAPI   O1319564   0.331   4.147  10.801 -0.0384  0.3845  0.1853
  173SAPI   O1419565   0.163   4.269  10.656  0.1435  0.0596  0.1952
  173SAPI   O1219566   0.098   4.075  10.815  0.0352 -0.1083 -0.3901
  173SAPI   O1119567   0.236   4.044  10.603 -0.4347  0.2736 -0.1783
  173SAPI    C119568   0.129   3.972  10.537  0.0716  0.7399 -0.9395
  173SAPI    HA19569   0.116   3.866  10.565  0.8525  0.0867 -2.9354
  173SAPI    HB19570   0.030   4.023  10.532 -0.1217  0.4269 -0.2899
  173SAPI    C219571   0.166   3.966  10.384 -0.8722  0.2065  0.2282
  173SAPI    HS19572   0.271   3.927  10.383 -1.3069 -0.9688 -2.3531
  173SAPI   O2119573   0.153   4.098  10.321 -0.0963  0.5133 -0.0767
  173SAPI   C2119574   0.268   4.155  10.293  0.2622  0.0628 -0.3090
  173SAPI   O2219575   0.377   4.114  10.310 -0.0897  0.0990 -0.0787
  173SAPI   C2219576   0.234   4.294  10.240  0.6521 -0.2334 -0.2531
  173SAPI   H2R19577   0.183   4.278  10.143 -0.3167  0.8597  0.0612
  173SAPI   H2S19578   0.164   4.343  10.312 -1.0447 -1.5318 -1.0012
  173SAPI    C319579   0.079   3.859  10.304 -0.7862 -0.3379 -0.0576
  173SAPI    HX19580  -0.027   3.888  10.316  0.1838  2.5466  2.1402
  173SAPI    HY19581   0.081   3.756  10.346 -0.6228 -1.3938 -2.5709
  173SAPI   O3119582   0.107   3.849  10.164  0.3107 -0.8033  0.8982
  173SAPI   C3119583   0.217   3.784  10.131  0.0812  0.0616  0.0466
  173SAPI   O3219584   0.295   3.742  10.212 -0.1807  0.3689  0.1873
  173SAPI   C3219585   0.230   3.785   9.978  0.5535 -0.6881  0.3815
  173SAPI   H2X19586   0.133   3.771   9.925  0.9204  0.9019 -0.7385
  173SAPI   H2Y19587   0.296   3.696   9.970  2.3269  0.6699 -0.3855
  173SAPI   C2319588   0.347   4.391  10.215 -0.3206  0.2438  0.6751
  173SAPI   H3R19589   0.418   4.384  10.301  0.1548 -0.1006  0.2564
  173SAPI   H3S19590   0.305   4.493  10.222  1.5284  0.9265  2.4765
  173SAPI   C2419591   0.414   4.372  10.078 -0.7763 -0.4546 -0.5347
  173SAPI   H4R19592   0.446   4.265  10.077  0.6225 -0.0545  0.1823
  173SAPI   H4S19593   0.514   4.420  10.064 -0.7724 -0.8081 -1.7881
  173SAPI   C2519594   0.328   4.407   9.962 -0.7986 -0.2826 -0.3558
  173SAPI   H5R19595   0.249   4.334   9.941  1.0769 -2.4673 -0.0085
  173SAPI   C2619596   0.341   4.513   9.880  0.7883 -0.3358  0.4070
  173SAPI   H6R19597   0.273   4.513   9.793  1.5512  1.3149 -0.2122
  173SAPI   C2719598   0.441   4.624   9.882 -0.0514  0.4395 -0.1760
  173SAPI   H7R19599   0.542   4.580   9.898  0.0628  0.4063 -0.9636
  173SAPI   H7S19600   0.427   4.685   9.973 -0.3861  0.4004 -0.2007
  173SAPI   C2819601   0.453   4.706   9.751  0.8461  0.2821  0.5222
  173SAPI   H8R19602   0.388   4.794   9.740  2.0349  1.4917  2.9042
  173SAPI   C2919603   0.544   4.684   9.652 -1.1545 -0.1051 -0.1602
  173SAPI   H9R19604   0.535   4.746   9.561 -2.4690 -0.9282 -0.6091
  173SAPI  C21019605   0.659   4.585   9.646 -0.0227 -0.3410  0.2196
  173SAPI  H10R19606   0.652   4.504   9.570  2.8341  0.5188 -1.0408
  173SAPI  H10S19607   0.652   4.517   9.734  1.7893 -0.4123  0.3178
  173SAPI  C21119608   0.785   4.668   9.637 -0.0255 -0.2856 -0.3872
  173SAPI  H11R19609   0.787   4.745   9.715 -0.7921 -1.1788  0.5373
  173SAPI  C21219610   0.888   4.655   9.552 -0.2909 -0.3550  0.5648
  173SAPI  H12R19611   0.970   4.728   9.561  0.4136 -0.8782 -1.4854
  173SAPI  C21319612   0.892   4.566   9.431 -0.0215  0.8835  0.9498
  173SAPI  H13R19613   0.796   4.511   9.421  1.0116 -1.1904  1.9994
  173SAPI  H13S19614   0.957   4.477   9.446 -1.8206 -0.2633  2.0202
  173SAPI  C21419615   0.904   4.624   9.291 -0.0838  1.1654 -0.5196
  173SAPI  H14R19616   0.989   4.584   9.234 -0.7177  2.2765 -2.3228
  173SAPI  C21519617   0.833   4.723   9.234  0.2136 -0.1064 -0.1545
  173SAPI  H15R19618   0.863   4.765   9.137 -1.4094  0.5002 -0.4195
  173SAPI  C21619619   0.720   4.803   9.298  0.2230  0.1398  1.2717
  173SAPI  H16R19620   0.768   4.894   9.341 -2.9480  2.3418  0.3797
  173SAPI  H16S19621   0.678   4.739   9.379  2.0416 -0.0716  2.0714
  173SAPI  C21719622   0.607   4.852   9.201 -0.1999  0.2386 -0.0918
  173SAPI  H17R19623   0.556   4.762   9.161 -0.1989 -1.1313  2.8129
  173SAPI  H17S19624   0.652   4.915   9.122  0.9093 -0.4950 -0.0499
  173SAPI  C21819625   0.496   4.925   9.278 -0.2628  0.3191  0.5676
  173SAPI  H18R19626   0.442   4.846   9.335  0.7528 -1.2879 -0.6315
  173SAPI  H18S19627   0.423   4.967   9.205 -0.7350 -1.4098  0.0080
  173SAPI  C21919628   0.545   5.035   9.375 -0.1320  0.4714  0.4948
  173SAPI  H19R19629   0.596   5.111   9.311  0.6312  0.8764  1.5650
  173SAPI  H19S19630   0.621   5.001   9.448 -0.2834 -2.6781 -0.7592
  173SAPI  C22019631   0.428   5.101   9.453  0.3352 -0.1196  0.0969
  173SAPI  H20R19632   0.460   5.186   9.518  0.1340 -0.7198  0.9933
  173SAPI  H20S19633   0.366   5.031   9.513 -0.4581  1.0543  0.6744
  173SAPI  H20T19634   0.362   5.145   9.376 -0.6064  0.8126  1.4106
  173SAPI   C3319635   0.295   3.923   9.939 -0.1964 -0.0397 -0.1814
  173SAPI   H3X19636   0.398   3.935   9.979 -0.3411  1.9184 -0.3833
  173SAPI   H3Y19637   0.224   4.001   9.972 -0.5276 -0.9435  1.2892
  173SAPI   C3419638   0.322   3.938   9.783 -0.0520  0.3361 -0.7096
  173SAPI   H4X19639   0.224   3.940   9.731  0.9191  0.9281 -2.6005
  173SAPI   H4Y19640   0.375   3.851   9.738  0.2015 -0.5598  1.2920
  173SAPI   C3519641   0.384   4.070   9.744  0.3318  0.4326 -0.3474
  173SAPI   H5X19642   0.492   4.079   9.767  0.7770  1.2622 -2.6395
  173SAPI   H5Y19643   0.331   4.155   9.791 -1.1314 -1.5835  1.7830
  173SAPI   C3619644   0.366   4.098   9.591 -0.2902 -0.0831  0.1073
  173SAPI   H6X19645   0.260   4.078   9.563 -0.0763 -0.4990 -0.4191
  173SAPI   H6Y19646   0.419   4.014   9.542 -1.7409  1.4661 -4.3195
  173SAPI   C3719647   0.419   4.230   9.536  0.0834  0.2274 -0.3606
  173SAPI   H7X19648   0.529   4.246   9.538 -0.0352  1.1414 -0.6931
  173SAPI   H7Y19649   0.365   4.307   9.595 -0.1500 -0.0319 -0.2384
  173SAPI   C3819650   0.381   4.248   9.387 -0.2509  0.6908  0.5336
  173SAPI   H8X19651   0.272   4.227   9.378  0.1598 -1.1770 -0.3825
  173SAPI   H8Y19652   0.423   4.163   9.330 -0.9107 -1.1351  2.6871
  173SAPI   C3919653   0.399   4.384   9.325  0.0042  0.1750  0.6245
  173SAPI   H9X19654   0.497   4.430   9.350 -1.0600  2.5220  0.5917
  173SAPI   H9Y19655   0.326   4.451   9.375 -4.5844 -4.1362  0.1287
  173SAPI  C31019656   0.372   4.391   9.173 -0.4415  0.0060  0.4039
  173SAPI  H10X19657   0.278   4.336   9.149 -0.5326  0.0008  0.7608
  173SAPI  H10Y19658   0.452   4.344   9.112 -0.3578  0.0652  0.4683
  173SAPI  C31119659   0.339   4.535   9.142 -0.5984 -0.0895 -0.9382
  173SAPI  H11X19660   0.428   4.595   9.172  0.7526 -2.4840 -0.0538
  173SAPI  H11Y19661   0.264   4.571   9.216 -0.4995 -2.6043  0.4337
  173SAPI  C31219662   0.303   4.558   8.997  0.1662 -0.1385 -0.0833
  173SAPI  H12X19663   0.294   4.668   8.986 -2.5300 -0.2590  0.5238
  173SAPI  H12Y19664   0.204   4.508   8.985  0.6157 -1.1541  0.3931
  173SAPI  C31319665   0.406   4.511   8.894 -0.0576 -0.4848 -0.8006
  173SAPI  H13X19666   0.421   4.402   8.909  0.2131 -0.4966 -1.1664
  173SAPI  H13Y19667   0.505   4.552   8.924 -0.6669  0.4981 -0.0763
  173SAPI  C31419668   0.363   4.522   8.747  0.1591  0.0242  0.4245
  173SAPI  H14X19669   0.269   4.464   8.731  1.2917 -1.0681 -2.7273
  173SAPI  H14Y19670   0.440   4.470   8.685 -1.0104 -2.1159  0.7028
  173SAPI  C31519671   0.340   4.661   8.689  0.3569  0.4670 -0.1920
  173SAPI  H15X19672   0.270   4.719   8.754 -0.0853  0.2095 -0.4349
  173SAPI  H15Y19673   0.291   4.660   8.589  1.3831  0.8080 -0.7034
  173SAPI  C31619674   0.475   4.737   8.670 -0.1665  0.1070  0.3126
  173SAPI  H16X19675   0.547   4.671   8.616  0.6645  0.0149  1.5199
  173SAPI  H16Y19676   0.521   4.767   8.766  0.8488  1.6690 -0.6541
  173SAPI  C31719677   0.465   4.867   8.584 -0.9339  0.2227  0.0864
  173SAPI  H17X19678   0.548   4.936   8.610 -0.3062 -1.7058  3.4588
  173SAPI  H17Y19679   0.364   4.913   8.589 -1.5646 -0.9585 -1.5841
  173SAPI  C31819680   0.462   4.847   8.436 -0.1904  0.4255  0.8047
  173SAPI  H18X19681   0.564   4.818   8.404 -0.8302 -2.9510  1.5877
  173SAPI  H18Y19682   0.438   4.946   8.392 -0.0328  0.0618 -0.1172
  173SAPI  H18Z19683   0.383   4.771   8.418  1.6507 -1.7592  1.5893
  174SAPI   C1219684   3.884   5.337  10.471  0.3387  0.0905  0.0275
  174SAPI    H219685   3.796   5.366  10.409  0.2664 -1.7097 -0.7323
  174SAPI    O219686   3.880   5.191  10.487  0.1906 -0.4617  0.1974
  174SAPI   HO219687   3.788   5.163  10.477 -0.1756  1.4311 -2.1449
  174SAPI   C1319688   4.000   5.376  10.384 -0.2950 -0.5633 -0.3126
  174SAPI    H319689   4.004   5.486  10.370 -0.4820 -0.6070 -0.7213
  174SAPI    O319690   3.981   5.324  10.249 -0.3520 -1.1541 -0.4554
  174SAPI   HO319691   4.005   5.231  10.246  1.3169 -0.7561 -0.2379
  174SAPI   C1419692   4.132   5.332  10.447  0.4170  0.1948 -0.7935
  174SAPI    H419693   4.125   5.222  10.464 -1.1942  0.5090  0.7392
  174SAPI    O419694   4.250   5.345  10.367  0.3037  0.6874 -0.5008
  174SAPI   HO419695   4.280   5.255  10.350 -0.6606  0.1491  0.6032
  174SAPI   C1519696   4.142   5.406  10.581  0.3855  0.0642 -0.3645
  174SAPI    H519697   4.141   5.515  10.560  0.8557  0.3326  0.9115
  174SAPI    O519698   4.269   5.388  10.651 -0.1521  0.3511  0.5170
  174SAPI   HO519699   4.273   5.447  10.726  0.7421  0.0925  0.6756
  174SAPI   C1619700   4.019   5.372  10.673 -0.0102  0.2958 -0.0248
  174SAPI    H619701   4.020   5.265  10.703 -0.5481  0.9981  2.5615
  174SAPI    O619702   4.024   5.451  10.796  0.8346 -0.6090  0.1944
  174SAPI   HO619703   4.046   5.400  10.874  0.6116  1.0630  1.3915
  174SAPI   C1119704   3.894   5.412  10.597 -0.0520 -0.7223 -0.0951
  174SAPI    H119705   3.890   5.520  10.571  0.3385 -0.2288  1.8086
  174SAPI     P19706   3.687   5.511  10.737  0.1920 -0.1482 -0.2532
  174SAPI   O1319707   3.774   5.626  10.786 -0.2153 -0.4207  0.5487
  174SAPI   O1419708   3.591   5.453  10.832 -0.5470  0.8239  0.3427
  174SAPI   O1219709   3.780   5.396  10.678  0.0554 -0.3718  0.3592
  174SAPI   O1119710   3.612   5.560  10.603  0.0726 -0.9529 -0.3451
  174SAPI    C119711   3.529   5.461  10.531 -0.3436 -0.2032  0.7476
  174SAPI    HA19712   3.590   5.377  10.493 -1.2185 -0.4764 -0.0727
  174SAPI    HB19713   3.459   5.412  10.603 -1.1220  0.0454  0.1736
  174SAPI    C219714   3.453   5.529  10.415 -0.3159  0.5552  0.2787
  174SAPI    HS19715   3.373   5.460  10.380 -0.3026 -0.3256  1.9544
  174SAPI   O2119716   3.541   5.550  10.304  0.2947  1.0516 -0.3386
  174SAPI   C2119717   3.584   5.447  10.238 -0.0346 -0.5582  0.3817
  174SAPI   O2219718   3.559   5.329  10.259  0.5747 -0.1059  0.2795
  174SAPI   C2219719   3.662   5.488  10.119  0.5381  0.6000 -0.0407
  174SAPI   H2R19720   3.617   5.577  10.071 -0.0966 -0.7496 -2.0171
  174SAPI   H2S19721   3.762   5.522  10.155  0.7320 -0.2852  0.2713
  174SAPI    C319722   3.385   5.657  10.463 -0.1479 -0.0275 -0.1290
  174SAPI    HX19723   3.454   5.735  10.501 -1.2018  1.1303 -0.5825
  174SAPI    HY19724   3.322   5.633  10.552 -0.1923  0.0141 -0.1490
  174SAPI   O3119725   3.288   5.689  10.355 -0.1946 -0.0320 -0.5216
  174SAPI   C3119726   3.295   5.814  10.308  0.0135  0.0687  0.9182
  174SAPI   O3219727   3.354   5.908  10.359  0.3764 -0.4971  0.5129
  174SAPI   C3219728   3.213   5.820  10.171  0.0243 -0.8198  0.1665
  174SAPI   H2X19729   3.117   5.767  10.189 -1.1085  0.8797 -0.7096
  174SAPI   H2Y19730   3.276   5.756  10.105 -3.0964 -1.3004 -2.4925
  174SAPI   C2319731   3.676   5.389  10.004  0.0408 -0.0030 -0.4467
  174SAPI   H3R19732   3.683   5.291  10.055 -1.1296 -0.7826 -1.7501
  174SAPI   H3S19733   3.772   5.405   9.949 -0.3313 -0.3983 -1.2209
  174SAPI   C2419734   3.553   5.393   9.914 -0.3928 -0.4148 -0.0754
  174SAPI   H4R19735   3.552   5.487   9.855  2.8525  1.1103  2.1664
  174SAPI   H4S19736   3.464   5.388   9.979 -0.3990 -0.6608 -0.1012
  174SAPI   C2519737   3.546   5.278   9.821 -0.6063 -0.3209  0.3783
  174SAPI   H5R19738   3.489   5.193   9.858 -0.7263  0.3398  1.7184
  174SAPI   C2619739   3.603   5.278   9.697  0.0215  0.2434  0.1231
  174SAPI   H6R19740   3.608   5.179   9.649  0.7443 -1.0254  2.7362
  174SAPI   C2719741   3.676   5.388   9.631 -0.0258  0.3030 -0.4335
  174SAPI   H7R19742   3.786   5.373   9.626 -0.2671 -1.2272 -1.3986
  174SAPI   H7S19743   3.668   5.487   9.681 -2.9344 -0.1624  0.1178
  174SAPI   C2819744   3.600   5.406   9.500  0.3769 -0.6006 -0.1823
  174SAPI   H8R19745   3.495   5.374   9.492 -0.5312  2.5224 -1.9029
  174SAPI   C2919746   3.647   5.481   9.394  0.1652 -0.5099 -1.0626
  174SAPI   H9R19747   3.578   5.488   9.308  0.9513 -0.5931 -1.7016
  174SAPI  C21019748   3.778   5.549   9.390  0.3050  0.1000 -0.2366
  174SAPI  H10R19749   3.810   5.570   9.286  0.9983 -2.4299 -0.5845
  174SAPI  H10S19750   3.870   5.493   9.420 -1.1492 -1.6649  1.0797
  174SAPI  C21119751   3.775   5.677   9.468  0.2336 -0.4486 -0.2294
  174SAPI  H11R19752   3.808   5.680   9.572  0.1393  1.0760 -0.2361
  174SAPI  C21219753   3.740   5.795   9.407  0.4391 -0.6212 -0.3322
  174SAPI  H12R19754   3.747   5.888   9.465  0.5414  0.4432 -2.0192
  174SAPI  C21319755   3.701   5.819   9.259 -0.1880 -0.0306 -0.5694
  174SAPI  H13R19756   3.642   5.729   9.229 -0.9811  1.3691 -3.3788
  174SAPI  H13S19757   3.796   5.814   9.201 -1.4871  0.3295 -2.7747
  174SAPI  C21419758   3.619   5.941   9.224 -0.1396  0.2156  0.2647
  174SAPI  H14R19759   3.510   5.943   9.242 -0.0759  1.9412  0.5410
  174SAPI  C21519760   3.676   6.052   9.175  0.5001 -0.3569 -0.0670
  174SAPI  H15R19761   3.609   6.129   9.136  1.7746  1.0205  0.4210
  174SAPI  C21619762   3.822   6.073   9.143  0.3207 -0.0079 -0.0129
  174SAPI  H16R19763   3.894   6.015   9.204  0.4999 -0.2353 -0.4329
  174SAPI  H16S19764   3.852   6.179   9.157 -0.1476  0.2358 -0.8335
  174SAPI  C21719765   3.865   6.026   9.000  0.4812 -0.7287 -0.1949
  174SAPI  H17R19766   3.820   5.926   8.982 -1.1054  0.2620 -1.9835
  174SAPI  H17S19767   3.975   6.017   9.012  0.8364 -3.5393 -4.4370
  174SAPI  C21819768   3.833   6.124   8.885 -0.0364  0.1711  0.0123
  174SAPI  H18R19769   3.758   6.199   8.920  0.3141  0.5912 -0.1365
  174SAPI  H18S19770   3.796   6.075   8.792  1.4738  1.8287 -1.5030
  174SAPI  C21919771   3.956   6.197   8.839  0.1096 -0.1712  0.7099
  174SAPI  H19R19772   4.017   6.132   8.774 -0.7274 -0.0057 -0.2500
  174SAPI  H19S19773   4.001   6.239   8.932  0.8002 -1.9456  1.1837
  174SAPI  C22019774   3.918   6.318   8.746  0.6179  0.6406 -0.4395
  174SAPI  H20R19775   4.013   6.364   8.712  1.4198  0.0352  0.9518
  174SAPI  H20S19776   3.866   6.398   8.802 -0.3900  1.1621 -2.0844
  174SAPI  H20T19777   3.857   6.300   8.655  1.1281 -0.6533 -0.5411
  174SAPI   C3319778   3.191   5.960  10.105  0.2361  0.4853 -0.1210
  174SAPI   H3X19779   3.281   6.019  10.078  0.0462  0.9253  0.1984
  174SAPI   H3Y19780   3.140   6.026  10.178  1.9825  1.1398  0.5285
  174SAPI   C3419781   3.102   5.947   9.979 -0.2747  0.3470 -0.2875
  174SAPI   H4X19782   3.007   5.898  10.010 -0.6916  0.9051 -0.6787
  174SAPI   H4Y19783   3.155   5.874   9.914  0.9957  2.5146 -1.7547
  174SAPI   C3519784   3.105   6.066   9.885  0.0917 -0.2656 -0.2301
  174SAPI   H5X19785   3.207   6.106   9.868  0.5668 -1.6179 -0.6379
  174SAPI   H5Y19786   3.062   6.145   9.950 -1.5386  0.8768 -2.6537
  174SAPI   C3619787   3.024   6.059   9.756 -0.0679  0.6317  0.4675
  174SAPI   H6X19788   2.918   6.050   9.787 -0.6611 -1.7829 -2.0148
  174SAPI   H6Y19789   3.055   5.964   9.706 -2.8053 -0.0466 -0.0125
  174SAPI   C3719790   3.065   6.171   9.660  0.5815 -0.2856 -0.1629
  174SAPI   H7X19791   3.168   6.153   9.622  0.5635 -3.5381  1.1462
  174SAPI   H7Y19792   3.070   6.268   9.713 -1.3539 -0.7870  0.9687
  174SAPI   C3819793   2.971   6.169   9.538  0.4455  0.0988  0.6301
  174SAPI   H8X19794   2.875   6.216   9.567 -1.1573 -1.8549 -1.3168
  174SAPI   H8Y19795   2.937   6.066   9.513  0.4291  0.1690  0.3663
  174SAPI   C3919796   3.030   6.218   9.405  0.7499  0.1725  0.1951
  174SAPI   H9X19797   3.136   6.183   9.409 -0.1142 -2.6220 -0.3469
  174SAPI   H9Y19798   3.040   6.329   9.415  0.0144  0.1126  1.6991
  174SAPI  C31019799   2.960   6.172   9.280  0.2201 -0.3605 -0.4900
  174SAPI  H10X19800   2.850   6.172   9.291 -0.0705  4.2995 -2.0104
  174SAPI  H10Y19801   3.001   6.072   9.253  0.1576 -1.0569  1.8954
  174SAPI  C31119802   3.001   6.267   9.169 -0.0659  0.3309 -0.6833
  174SAPI  H11X19803   3.109   6.295   9.162 -0.1117  1.2001  1.5139
  174SAPI  H11Y19804   2.965   6.371   9.178 -0.0206  0.3373 -0.5619
  174SAPI  C31219805   2.978   6.217   9.028  0.8539  0.8514  0.8723
  174SAPI  H12X19806   2.874   6.183   9.014  1.0806  0.4157  0.2086
  174SAPI  H12Y19807   3.036   6.124   9.009 -1.9053 -0.6437 -0.6032
  174SAPI  C31319808   3.004   6.320   8.921 -0.3901 -0.2828 -0.3567
  174SAPI  H13X19809   3.111   6.347   8.924 -0.3943 -0.0198 -2.0549
  174SAPI  H13Y19810   2.938   6.409   8.928  0.1050  0.0226  0.5046
  174SAPI  C31419811   2.971   6.285   8.773 -0.0823 -0.3447  0.3545
  174SAPI  H14X19812   2.868   6.243   8.781 -0.4212  0.4142 -0.0741
  174SAPI  H14Y19813   3.044   6.208   8.741 -0.9056  0.5495 -3.8685
  174SAPI  C31519814   2.966   6.400   8.679  0.5004  0.5279 -0.0867
  174SAPI  H15X19815   2.904   6.479   8.727 -0.3152 -0.3496  0.3171
  174SAPI  H15Y19816   2.918   6.373   8.583 -1.3784 -2.3288  1.5677
  174SAPI  C31619817   3.103   6.467   8.669 -0.3685 -0.5052 -0.2130
  174SAPI  H16X19818   3.166   6.380   8.645  0.7554  0.1114  0.4712
  174SAPI  H16Y19819   3.141   6.512   8.763  1.3260 -2.0136 -0.1753
  174SAPI  C31719820   3.093   6.564   8.556  0.6078  0.1974 -0.1136
  174SAPI  H17X19821   3.021   6.647   8.573 -1.1896 -1.4665  0.5041
  174SAPI  H17Y19822   3.063   6.514   8.462 -0.6773  2.9296 -1.2299
  174SAPI  C31819823   3.223   6.635   8.540  0.1567  0.4399  0.3012
  174SAPI  H18X19824   3.264   6.679   8.634 -0.0746 -0.5676  0.8730
  174SAPI  H18Y19825   3.217   6.728   8.479  1.2298  1.5422  1.8466
  174SAPI  H18Z19826   3.304   6.576   8.491 -1.3293 -1.8251  0.4883
  175SAPI   C1219827   5.620   4.899   6.245 -0.4492 -0.0187 -0.8381
  175SAPI    H219828   5.682   4.878   6.155 -0.5627  1.1397 -1.1900
  175SAPI    O219829   5.685   5.003   6.314 -0.0200 -0.1855  0.1008
  175SAPI   HO219830   5.681   5.084   6.263  1.2602  0.2610  0.6992
  175SAPI   C1319831   5.484   4.952   6.202 -0.0949  0.9053  0.0803
  175SAPI    H319832   5.443   4.868   6.142 -0.0498 -0.6647  2.1729
  175SAPI    O319833   5.484   5.067   6.120 -0.8027  0.4616  0.0980
  175SAPI   HO319834   5.515   5.041   6.033  0.3648  0.9237  0.3760
  175SAPI   C1419835   5.392   4.979   6.323  0.2268  0.0024  0.9298
  175SAPI    H419836   5.434   5.066   6.379 -0.0663  1.7071 -1.4447
  175SAPI    O419837   5.259   5.009   6.284  0.1306  0.5942 -0.1845
  175SAPI   HO419838   5.259   5.086   6.228  0.6394  0.9026  0.2374
  175SAPI   C1519839   5.390   4.858   6.418  0.0769  0.7969 -0.3400
  175SAPI    H519840   5.337   4.776   6.366 -2.2010  0.6894  2.0295
  175SAPI    O519841   5.325   4.900   6.536  0.0962  0.2647  0.8353
  175SAPI   HO519842   5.259   4.835   6.560  1.0914  0.0301  3.0118
  175SAPI   C1619843   5.530   4.812   6.457 -0.7632 -0.0116 -0.1149
  175SAPI    H619844   5.586   4.895   6.505 -1.4916  0.9127 -0.8508
  175SAPI    O619845   5.524   4.700   6.541  0.2594 -0.7769  0.6357
  175SAPI   HO619846   5.581   4.631   6.507  0.0535 -2.1237  2.9247
  175SAPI   C1119847   5.606   4.775   6.327 -0.1989  1.0012  0.1376
  175SAPI    H119848   5.545   4.710   6.259  2.7689 -1.4763 -0.2628
  175SAPI     P19849   5.763   4.558   6.306 -0.1531  0.1736  0.2021
  175SAPI   O1319850   5.906   4.526   6.303  0.1342 -0.3502 -0.0349
  175SAPI   O1419851   5.682   4.513   6.190 -0.7908  0.5746 -0.0227
  175SAPI   O1219852   5.738   4.716   6.346  0.5200  0.2515  0.0587
  175SAPI   O1119853   5.703   4.486   6.429  1.2497  0.1417 -0.4821
  175SAPI    C119854   5.770   4.490   6.556 -0.6368  0.3965 -0.3592
  175SAPI    HA19855   5.875   4.454   6.552 -1.0237 -0.7782 -0.3551
  175SAPI    HB19856   5.770   4.596   6.589  0.8290  0.5711 -0.8870
  175SAPI    C219857   5.710   4.401   6.664  0.7000 -0.4893 -0.3424
  175SAPI    HS19858   5.693   4.304   6.612  2.4076 -0.0978 -1.6679
  175SAPI   O2119859   5.590   4.464   6.705 -0.2805 -1.0922  0.5818
  175SAPI   C2119860   5.501   4.380   6.753  0.2657  0.0046 -0.0076
  175SAPI   O2219861   5.510   4.257   6.746 -0.4633 -0.0133 -0.0527
  175SAPI   C2219862   5.376   4.464   6.807 -0.4765 -0.2997  0.2461
  175SAPI   H2R19863   5.417   4.537   6.880  0.0612 -0.4514  0.1019
  175SAPI   H2S19864   5.347   4.508   6.709  1.8205 -2.2271 -1.3858
  175SAPI    C319865   5.811   4.384   6.782 -0.7092  0.3598  0.2948
  175SAPI    HX19866   5.838   4.489   6.805 -1.8838  1.1259 -1.6902
  175SAPI    HY19867   5.906   4.347   6.736 -0.1150 -0.0311  1.8071
  175SAPI   O3119868   5.777   4.304   6.895  0.3128 -0.3969  0.0233
  175SAPI   C3119869   5.791   4.177   6.872  0.2692  0.4162 -0.1202
  175SAPI   O3219870   5.832   4.126   6.769  0.7358  0.0514 -0.2907
  175SAPI   C3219871   5.736   4.101   6.997 -0.7316 -0.5128  0.0733
  175SAPI   H2X19872   5.648   4.042   6.965 -0.3955 -1.0144  0.0621
  175SAPI   H2Y19873   5.713   4.173   7.079 -0.4615 -1.9557  1.4288
  175SAPI   C2319874   5.253   4.382   6.847  0.5663  0.0486 -0.4887
  175SAPI   H3R19875   5.254   4.292   6.782 -0.3492 -0.6792  0.5057
  175SAPI   H3S19876   5.167   4.446   6.816  1.2369  1.0188 -0.3518
  175SAPI   C2419877   5.246   4.345   6.991 -0.4822  0.0496  0.7068
  175SAPI   H4R19878   5.143   4.306   7.009 -0.6402 -0.8446 -1.9351
  175SAPI   H4S19879   5.236   4.432   7.060 -0.6840  0.9126 -0.3994
  175SAPI   C2519880   5.339   4.240   7.046  0.3536  0.6133 -0.5203
  175SAPI   H5R19881   5.340   4.142   6.998 -1.9295  0.7232 -0.8680
  175SAPI   C2619882   5.418   4.248   7.150  0.6683  0.2833  0.2815
  175SAPI   H6R19883   5.487   4.163   7.164  0.4073 -0.1854 -1.2109
  175SAPI   C2719884   5.435   4.364   7.245  0.0650 -0.1513  0.0310
  175SAPI   H7R19885   5.354   4.365   7.321 -1.5110  0.8117 -1.6256
  175SAPI   H7S19886   5.434   4.454   7.179  0.3585  0.1022  0.3738
  175SAPI   C2819887   5.570   4.368   7.308 -0.0055 -0.5029 -0.1572
  175SAPI   H8R19888   5.654   4.378   7.238 -1.9528  3.5999 -2.0849
  175SAPI   C2919889   5.607   4.372   7.441  0.4317  0.3706  0.6171
  175SAPI   H9R19890   5.714   4.372   7.467  0.9205 -0.5540 -1.2736
  175SAPI  C21019891   5.516   4.378   7.564  0.1151 -0.3804 -0.5444
  175SAPI  H10R19892   5.412   4.355   7.530 -0.7554  2.3519  0.1520
  175SAPI  H10S19893   5.498   4.485   7.586 -1.5245 -0.6284 -0.5781
  175SAPI  C21119894   5.551   4.297   7.683  0.2988 -0.0176 -0.1627
  175SAPI  H11R19895   5.565   4.188   7.669 -0.9978  0.0508 -2.2001
  175SAPI  C21219896   5.548   4.345   7.807 -0.1312  0.1708 -0.7704
  175SAPI  H12R19897   5.593   4.286   7.888 -1.1229  0.8507  0.2982
  175SAPI  C21319898   5.509   4.482   7.850  0.4668 -0.7419  0.2136
  175SAPI  H13R19899   5.432   4.468   7.928  0.5126  2.8472  0.9893
  175SAPI  H13S19900   5.474   4.551   7.769 -0.3541 -2.1379 -0.6520
  175SAPI  C21419901   5.622   4.550   7.924 -0.2587  0.9925  0.4486
  175SAPI  H14R19902   5.698   4.595   7.858  0.0477 -0.0545  0.0871
  175SAPI  C21519903   5.648   4.561   8.060 -0.5344  0.8406 -1.1299
  175SAPI  H15R19904   5.732   4.625   8.091 -0.1239 -0.4358  0.4829
  175SAPI  C21619905   5.557   4.497   8.162  0.3245  0.7175  0.9928
  175SAPI  H16R19906   5.617   4.446   8.241 -0.5969 -4.6061 -1.5135
  175SAPI  H16S19907   5.490   4.414   8.132  3.8208 -1.0802 -2.3580
  175SAPI  C21719908   5.471   4.598   8.231 -0.3980 -0.0102  0.2693
  175SAPI  H17R19909   5.366   4.565   8.245 -0.7191  1.3408  1.1685
  175SAPI  H17S19910   5.449   4.691   8.173  0.2033 -1.5443 -2.5055
  175SAPI  C21819911   5.533   4.646   8.360 -0.0452  0.3953  0.3227
  175SAPI  H18R19912   5.473   4.735   8.389  1.0056  0.8268  1.1890
  175SAPI  H18S19913   5.640   4.676   8.356 -0.2793  1.2714  0.4237
  175SAPI  C21919914   5.521   4.544   8.471  0.4148 -0.4464 -0.2838
  175SAPI  H19R19915   5.578   4.450   8.455  3.1514  1.1772 -0.3046
  175SAPI  H19S19916   5.413   4.516   8.476 -0.0698  1.4719  0.4405
  175SAPI  C22019917   5.564   4.599   8.610  0.0740 -0.1345  0.6040
  175SAPI  H20R19918   5.530   4.544   8.701 -2.6467 -0.3347 -0.5028
  175SAPI  H20S19919   5.519   4.700   8.617  0.6931  0.2862 -1.2013
  175SAPI  H20T19920   5.673   4.617   8.616  0.0267 -0.3689  2.4835
  175SAPI   C3319921   5.848   4.002   7.033 -0.0887  0.5115 -0.6109
  175SAPI   H3X19922   5.859   3.938   6.943  1.3257 -1.6167  1.0173
  175SAPI   H3Y19923   5.810   3.947   7.122 -1.4084  3.5889  0.7953
  175SAPI   C3419924   5.981   4.064   7.066  0.0647  0.1874 -0.1792
  175SAPI   H4X19925   6.023   4.127   6.985 -0.3703  2.3637  1.2372
  175SAPI   H4Y19926   6.055   3.984   7.086 -0.3218 -0.8049 -2.6111
  175SAPI   C3519927   5.985   4.149   7.196  0.1666 -0.2225  0.3118
  175SAPI   H5X19928   5.894   4.212   7.194 -0.3346 -0.9703 -1.0465
  175SAPI   H5Y19929   6.072   4.217   7.197  0.5224 -0.5970 -1.9096
  175SAPI   C3619930   5.984   4.068   7.325 -0.1166  0.9747 -0.0398
  175SAPI   H6X19931   6.070   3.998   7.328 -0.6165  0.4226  2.0353
  175SAPI   H6Y19932   5.889   4.012   7.314  1.0528 -1.2598  1.0529
  175SAPI   C3719933   5.981   4.164   7.444  0.3216  0.2556 -0.1680
  175SAPI   H7X19934   5.914   4.249   7.419  2.3681  1.5804 -1.1716
  175SAPI   H7Y19935   6.083   4.205   7.452  0.2233  0.6936 -1.1666
  175SAPI   C3819936   5.941   4.102   7.577 -0.1836 -0.3419  0.2489
  175SAPI   H8X19937   5.992   4.008   7.608 -0.6427 -0.4849  0.5812
  175SAPI   H8Y19938   5.830   4.099   7.580 -0.1902  0.0763  0.4289
  175SAPI   C3919939   5.971   4.207   7.695  0.2558 -0.1832  0.8386
  175SAPI   H9X19940   5.929   4.305   7.665 -2.1223 -1.6022 -0.6613
  175SAPI   H9Y19941   6.081   4.224   7.701  0.3333 -0.8433  1.4437
  175SAPI  C31019942   5.917   4.174   7.832  0.6660 -0.3761 -0.8645
  175SAPI  H10X19943   5.982   4.096   7.877  2.3437  2.2684  1.4901
  175SAPI  H10Y19944   5.810   4.145   7.829  0.8865 -1.4753  1.0857
  175SAPI  C31119945   5.926   4.306   7.922 -0.0412 -0.2945 -0.6816
  175SAPI  H11X19946   5.868   4.385   7.872 -0.8752 -1.2260 -1.1970
  175SAPI  H11Y19947   6.029   4.348   7.923 -0.4873  0.8152 -0.7070
  175SAPI  C31219948   5.885   4.281   8.062  0.1554  0.1404  0.3950
  175SAPI  H12X19949   5.780   4.245   8.066  0.3961 -0.5427  0.6517
  175SAPI  H12Y19950   5.874   4.377   8.116  0.9359 -0.2324  1.2268
  175SAPI  C31319951   5.980   4.181   8.143  0.2350  0.1687  0.8724
  175SAPI  H13X19952   6.003   4.083   8.096 -0.4751  0.0851  0.6821
  175SAPI  H13Y19953   5.924   4.165   8.237 -1.0446  0.0940  0.1255
  175SAPI  C31419954   6.118   4.244   8.188  0.1293 -0.2433  0.3203
  175SAPI  H14X19955   6.182   4.266   8.100 -1.2563  2.0368 -0.1619
  175SAPI  H14Y19956   6.177   4.172   8.249  0.7295  0.6747  0.8493
  175SAPI  C31519957   6.104   4.365   8.279  0.1822 -0.1524  0.1091
  175SAPI  H15X19958   6.071   4.446   8.210 -1.2649 -0.1518  0.7960
  175SAPI  H15Y19959   6.199   4.409   8.317  1.1113 -2.5126  0.5921
  175SAPI  C31619960   6.008   4.352   8.393  0.2034 -0.6906 -0.6288
  175SAPI  H16X19961   6.040   4.259   8.444  1.1890  0.1537  0.3100
  175SAPI  H16Y19962   5.899   4.349   8.376 -0.1222  1.6848  0.8123
  175SAPI  C31719963   6.029   4.480   8.486  0.2729 -0.7054  0.6648
  175SAPI  H17X19964   6.139   4.489   8.494  0.4197  2.0577 -2.7747
  175SAPI  H17Y19965   5.984   4.470   8.587 -0.5350 -1.0983  0.2692
  175SAPI  C31819966   5.969   4.618   8.432  0.2809  0.2811  0.3715
  175SAPI  H18X19967   6.011   4.639   8.332 -0.1221 -0.1608  0.1024
  175SAPI  H18Y19968   5.971   4.702   8.504  1.8234 -0.4161  1.1673
  175SAPI  H18Z19969   5.864   4.595   8.403  1.2814 -1.2686 -2.2110
  176SAPI   C1219970   4.681   2.231   6.516 -0.2162  0.0734  0.9549
  176SAPI    H219971   4.617   2.312   6.558 -1.6045  0.7965 -2.3477
  176SAPI    O219972   4.679   2.129   6.606 -0.4342  0.3287 -0.1179
  176SAPI   HO219973   4.689   2.158   6.697 -0.2337 -1.0654  0.3276
  176SAPI   C1319974   4.617   2.207   6.383 -0.0747 -1.2499 -0.0032
  176SAPI    H319975   4.609   2.303   6.327 -1.8057 -0.8744  0.8369
  176SAPI    O319976   4.475   2.170   6.386 -0.3357 -0.5656 -0.8805
  176SAPI   HO319977   4.418   2.247   6.382  0.1573  0.1756  3.6288
  176SAPI   C1419978   4.698   2.111   6.303 -0.2073 -0.0813  0.4941
  176SAPI    H419979   4.690   2.012   6.352 -1.5352  0.5223  1.5477
  176SAPI    O419980   4.643   2.089   6.173 -0.1018 -1.1426  0.4004
  176SAPI   HO419981   4.579   2.018   6.181 -0.0970 -1.2617 -0.5167
  176SAPI   C1519982   4.845   2.148   6.285  0.3712  0.2040  0.2657
  176SAPI    H519983   4.855   2.244   6.230 -1.1761  1.6413  2.3683
  176SAPI    O519984   4.909   2.036   6.222 -0.3943 -0.1140  0.1954
  176SAPI   HO519985   4.852   1.969   6.183  0.4911 -0.1676 -1.0174
  176SAPI   C1619986   4.910   2.179   6.420  0.2448 -0.0556  0.6672
  176SAPI    H619987   4.916   2.092   6.489  0.7512  1.3133  2.3957
  176SAPI    O619988   5.046   2.218   6.406  0.4333 -0.2468 -0.1244
  176SAPI   HO619989   5.097   2.139   6.388 -3.0233 -1.9381 -3.2159
  176SAPI   C1119990   4.824   2.290   6.484  0.0093  0.0625  0.6663
  176SAPI    H119991   4.811   2.374   6.413 -1.6769  0.2259  1.1462
  176SAPI     P19992   4.872   2.495   6.672 -0.2409  0.2705  0.7437
  176SAPI   O1319993   4.819   2.588   6.572 -0.1356  0.3445  0.0519
  176SAPI   O1419994   5.009   2.516   6.721  0.4386  0.9134 -0.4140
  176SAPI   O1219995   4.882   2.339   6.605 -0.8679  0.0288  0.4169
  176SAPI   O1119996   4.765   2.482   6.791  0.2063  0.1122 -0.2071
  176SAPI    C119997   4.783   2.392   6.900 -0.3415 -0.2178 -0.8052
  176SAPI    HA19998   4.686   2.362   6.946 -0.2172 -0.2029 -0.5349
  176SAPI    HB19999   4.849   2.308   6.870  0.5393 -0.6170  2.0507
  176SAPI    C220000   4.861   2.457   7.012 -0.1722 -0.1419  0.6718
  176SAPI    HS20001   4.921   2.536   6.962 -1.9280 -0.3643 -1.8980
  176SAPI   O2120002   4.945   2.353   7.072  0.0260  0.3395  0.2039
  176SAPI   C2120003   5.068   2.362   7.038  0.0157  0.4807  0.3650
  176SAPI   O2220004   5.120   2.440   6.964  0.0513  0.5971  0.2608
  176SAPI   C2220005   5.135   2.262   7.115 -0.2870  0.1335  0.3078
  176SAPI   H2R20006   5.072   2.181   7.159 -1.4551  0.5241 -0.6238
  176SAPI   H2S20007   5.219   2.227   7.052 -0.7351 -0.5911  0.1060
  176SAPI    C320008   4.767   2.524   7.121  0.0748 -0.2762 -0.0642
  176SAPI    HX20009   4.699   2.440   7.147 -0.9250  0.0648 -1.4842
  176SAPI    HY20010   4.700   2.598   7.073 -0.9789  0.6859  2.8409
  176SAPI   O3120011   4.842   2.570   7.241  0.4408  0.3295  0.1933
  176SAPI   C3120012   4.904   2.687   7.222  0.5836 -0.2098  0.6652
  176SAPI   O3220013   4.926   2.735   7.112 -0.3106 -0.4881 -0.1902
  176SAPI   C3220014   4.947   2.748   7.366 -0.1475 -0.2638 -0.3439
  176SAPI   H2X20015   4.922   2.673   7.444  2.1971 -0.1989  0.4943
  176SAPI   H2Y20016   4.876   2.832   7.381  0.9130  0.9663 -2.0993
  176SAPI   C2320017   5.211   2.335   7.226 -0.4000  0.0159 -0.6521
  176SAPI   H3R20018   5.242   2.441   7.213 -2.9142  1.2631  2.6747
  176SAPI   H3S20019   5.302   2.272   7.226 -0.2063  0.2755  1.2128
  176SAPI   C2420020   5.139   2.323   7.365  0.3560  0.0726  0.1442
  176SAPI   H4R20021   5.094   2.222   7.373 -0.4250  0.3087 -1.2098
  176SAPI   H4S20022   5.061   2.402   7.362  0.9883  0.6807 -0.7465
  176SAPI   C2520023   5.236   2.344   7.478 -0.0607  0.2279 -0.3226
  176SAPI   H5R20024   5.333   2.374   7.436  0.6070 -0.5042  0.6870
  176SAPI   C2620025   5.212   2.364   7.612 -0.3945  0.5102 -0.0192
  176SAPI   H6R20026   5.300   2.389   7.672 -0.9593 -1.6950  1.8205
  176SAPI   C2720027   5.084   2.354   7.692 -0.9801  0.2499 -0.4095
  176SAPI   H7R20028   5.009   2.408   7.630 -2.1238  1.0968  1.6402
  176SAPI   H7S20029   5.100   2.418   7.782  2.2710  0.2331 -0.9076
  176SAPI   C2820030   5.034   2.218   7.720  1.3120  0.5629  0.3266
  176SAPI   H8R20031   5.002   2.167   7.628 -1.0659 -0.0066  1.4376
  176SAPI   C2920032   5.011   2.156   7.839 -0.6832  0.3799 -0.6897
  176SAPI   H9R20033   4.990   2.049   7.832 -0.2549  0.1539  1.1177
  176SAPI  C21020034   5.034   2.205   7.985  0.0573 -0.1200  0.4105
  176SAPI  H10R20035   4.932   2.240   8.012 -0.1673 -0.0213 -0.5371
  176SAPI  H10S20036   5.106   2.288   7.976  0.4789 -0.6167 -0.9634
  176SAPI  C21120037   5.085   2.111   8.081 -0.0282 -0.4068  0.1263
  176SAPI  H11R20038   5.087   2.007   8.044 -4.4272 -0.5234 -0.0607
  176SAPI  C21220039   5.122   2.134   8.209 -0.6998 -0.3729  0.1932
  176SAPI  H12R20040   5.137   2.045   8.271 -3.1657  0.3286  1.9085
  176SAPI  C21320041   5.120   2.264   8.284  0.9928  0.3749  0.0633
  176SAPI  H13R20042   5.039   2.257   8.359  0.0864 -1.2906 -1.0439
  176SAPI  H13S20043   5.097   2.352   8.220 -0.3010  0.8379  1.1445
  176SAPI  C21420044   5.249   2.273   8.353 -0.2050 -0.1184 -0.0383
  176SAPI  H14R20045   5.325   2.342   8.313 -0.4035 -0.3060 -0.7502
  176SAPI  C21520046   5.282   2.223   8.476 -0.2412  0.3746  0.8908
  176SAPI  H15R20047   5.383   2.239   8.516 -1.0702  0.5247  3.0084
  176SAPI  C21620048   5.211   2.129   8.566 -0.3097 -0.3106 -0.1105
  176SAPI  H16R20049   5.274   2.038   8.560 -0.4250 -0.3456 -0.7758
  176SAPI  H16S20050   5.106   2.103   8.538 -0.3152 -0.1311 -0.2566
  176SAPI  C21720051   5.220   2.176   8.714  0.4325 -0.4882 -0.3878
  176SAPI  H17R20052   5.318   2.227   8.730  0.7431 -0.8325 -1.2006
  176SAPI  H17S20053   5.209   2.086   8.778  1.7759 -0.6103 -0.3087
  176SAPI  C21820054   5.106   2.268   8.761 -0.1505 -0.3739  0.4555
  176SAPI  H18R20055   5.007   2.221   8.778 -0.2027 -0.0505  1.0733
  176SAPI  H18S20056   5.090   2.359   8.699 -1.7269 -0.8770  0.1070
  176SAPI  C21920057   5.146   2.305   8.903 -0.4567 -0.3937  0.3477
  176SAPI  H19R20058   5.242   2.360   8.908 -0.9002  0.5024 -0.7950
  176SAPI  H19S20059   5.155   2.205   8.951 -0.7540 -1.2936 -1.4350
  176SAPI  C22020060   5.042   2.395   8.975 -0.0400  0.6038 -0.4754
  176SAPI  H20R20061   5.044   2.499   8.937 -0.3837  0.5672 -0.5958
  176SAPI  H20S20062   5.060   2.409   9.084 -0.9943  2.0313 -0.4802
  176SAPI  H20T20063   4.939   2.359   8.953  0.7613 -1.4106 -1.0410
  176SAPI   C3320064   5.078   2.822   7.375 -0.0619 -0.9866  0.4101
  176SAPI   H3X20065   5.070   2.891   7.461 -2.0918 -0.0532 -0.4912
  176SAPI   H3Y20066   5.109   2.879   7.285 -1.3609 -2.4117 -0.9862
  176SAPI   C3420067   5.196   2.723   7.393  0.3122  0.1346 -0.0260
  176SAPI   H4X20068   5.189   2.639   7.321 -1.5932  0.2469  0.0013
  176SAPI   H4Y20069   5.179   2.670   7.490 -1.1586 -1.9232 -1.3803
  176SAPI   C3520070   5.338   2.781   7.425  0.5246  0.6195  0.0658
  176SAPI   H5X20071   5.331   2.864   7.499 -3.2042  0.8317 -0.4400
  176SAPI   H5Y20072   5.375   2.824   7.330 -0.0887 -0.8073 -0.8346
  176SAPI   C3620073   5.441   2.673   7.453 -0.3997  0.4041 -1.3014
  176SAPI   H6X20074   5.468   2.609   7.366  0.7904  1.9531 -2.0936
  176SAPI   H6Y20075   5.402   2.607   7.533 -0.8223 -0.5624 -2.2818
  176SAPI   C3720076   5.571   2.740   7.514 -0.2466  0.0301  0.4021
  176SAPI   H7X20077   5.532   2.794   7.603  0.9928 -2.0568  2.2574
  176SAPI   H7Y20078   5.610   2.806   7.433 -2.6402 -0.2122 -1.0246
  176SAPI   C3820079   5.687   2.651   7.556 -0.0192 -0.1288 -0.4266
  176SAPI   H8X20080   5.716   2.583   7.473 -0.8485  1.2932 -1.9081
  176SAPI   H8Y20081   5.654   2.581   7.636  2.4956 -0.0546  0.7276
  176SAPI   C3920082   5.820   2.718   7.598  0.5653  0.5775  0.2532
  176SAPI   H9X20083   5.802   2.794   7.677  0.9444  2.6139 -1.5460
  176SAPI   H9Y20084   5.841   2.792   7.517  0.0138  0.0551 -0.3717
  176SAPI  C31020085   5.921   2.610   7.636 -0.5874  0.1415  0.0704
  176SAPI  H10X20086   5.921   2.538   7.551  2.7590 -0.2261  0.3052
  176SAPI  H10Y20087   5.916   2.551   7.731  1.3568 -0.5903 -0.2585
  176SAPI  C31120088   6.056   2.673   7.667 -0.7406 -0.1534  0.2123
  176SAPI  H11X20089   6.091   2.736   7.582  2.1808 -2.1678 -0.1654
  176SAPI  H11Y20090   6.136   2.596   7.665  0.1556  0.7756 -2.0256
  176SAPI  C31220091   6.061   2.743   7.808 -0.2846 -0.1590 -0.4047
  176SAPI  H12X20092   5.969   2.803   7.824  0.5782  0.7923  1.1936
  176SAPI  H12Y20093   6.152   2.807   7.808  0.1839 -0.8074  0.5176
  176SAPI  C31320094   6.078   2.652   7.929 -0.6256  0.2070  0.1362
  176SAPI  H13X20095   6.179   2.613   7.907 -0.8414 -0.1134 -0.2981
  176SAPI  H13Y20096   6.006   2.567   7.919  0.9984 -0.9323 -2.4690
  176SAPI  C31420097   6.076   2.723   8.061  0.0487  0.0162  0.5400
  176SAPI  H14X20098   5.985   2.788   8.060  0.2325  0.2839  0.8407
  176SAPI  H14Y20099   6.161   2.792   8.080 -0.8897  2.4297 -3.3812
  176SAPI  C31520100   6.056   2.623   8.178  0.3790  0.7691  0.1557
  176SAPI  H15X20101   6.141   2.552   8.170  0.3370  0.6513  0.7565
  176SAPI  H15Y20102   5.958   2.578   8.150  0.3393  2.6126 -2.9224
  176SAPI  C31620103   6.051   2.672   8.324  0.3332 -0.2180  0.6042
  176SAPI  H16X20104   6.138   2.733   8.356 -0.2261  1.0880 -0.3378
  176SAPI  H16Y20105   6.055   2.585   8.393 -0.9076 -1.4954 -0.8798
  176SAPI  C31720106   5.923   2.745   8.363  0.1336  0.3662  0.5736
  176SAPI  H17X20107   5.838   2.677   8.343  0.8646 -0.6204  0.8372
  176SAPI  H17Y20108   5.914   2.846   8.317 -1.3412  0.5594  1.2719
  176SAPI  C31820109   5.908   2.768   8.513  0.0561 -0.0509  0.7195
  176SAPI  H18X20110   5.799   2.775   8.536 -0.2660 -2.3555  0.0293
  176SAPI  H18Y20111   5.957   2.859   8.555  0.7351  0.4194 -1.0622
  176SAPI  H18Z20112   5.929   2.673   8.567  0.3799 -1.2304 -1.4467
  177SLPC     N20113   5.848   5.681  11.028 -0.2759  0.2987  0.3352
  177SLPC   C1320114   5.818   5.594  11.143 -0.2314 -0.0251 -0.0339
  177SLPC  H13A20115   5.876   5.628  11.228  1.0197  1.0124 -1.2819
  177SLPC  H13B20116   5.713   5.586  11.166 -0.6081  1.0448 -1.3219
  177SLPC  H13C20117   5.849   5.492  11.128  0.6511  0.3732 -1.0260
  177SLPC   C1420118   5.998   5.689  11.008 -0.0727 -0.1565 -0.5704
  177SLPC  H14A20119   6.044   5.594  10.985  1.4631  0.0022  1.6228
  177SLPC  H14B20120   6.033   5.756  10.932  2.0205  0.2583  0.6888
  177SLPC  H14C20121   6.043   5.723  11.101 -2.0006  0.0811  0.2967
  177SLPC   C1520122   5.794   5.816  11.061  0.3129 -0.1281  0.2431
  177SLPC  H15A20123   5.846   5.868  11.140 -0.1186  1.5314 -0.5273
  177SLPC  H15B20124   5.800   5.876  10.971 -0.7363  1.0173  0.9264
  177SLPC  H15C20125   5.688   5.807  11.081 -0.1768  0.1519 -1.9979
  177SLPC   C1220126   5.784   5.641  10.904 -0.1588  0.6999 -0.5430
  177SLPC  H12A20127   5.798   5.536  10.883 -0.3663  0.6003 -0.1818
  177SLPC  H12B20128   5.819   5.700  10.820 -0.5872 -0.0839 -1.2719
  177SLPC   C1120129   5.627   5.644  10.890  0.0396 -0.8441 -0.2167
  177SLPC  H11A20130   5.594   5.605  10.791  1.1686 -0.4216 -0.7632
  177SLPC  H11B20131   5.581   5.746  10.896 -1.9667 -1.6640 -1.0362
  177SLPC     P20132   5.449   5.620  11.083  0.2165 -0.2686 -0.1335
  177SLPC   O1320133   5.361   5.512  11.134 -0.1513 -0.1386  0.4488
  177SLPC   O1420134   5.512   5.680  11.197  0.3090  0.2197  0.0741
  177SLPC   O1220135   5.558   5.560  10.982 -0.2983 -0.3344  0.2718
  177SLPC   O1120136   5.373   5.726  10.998  0.5946 -0.1092 -0.0367
  177SLPC    C120137   5.256   5.689  10.910  0.0526  0.0794 -0.1370
  177SLPC    HA20138   5.203   5.602  10.954  0.5874  0.6501  1.6922
  177SLPC    HB20139   5.177   5.767  10.903  1.4342  1.5119 -0.2589
  177SLPC    C220140   5.303   5.637  10.770 -0.3739 -0.3954  0.2422
  177SLPC    HS20141   5.381   5.559  10.785  0.3394  0.2494 -0.0769
  177SLPC   O2120142   5.368   5.746  10.706 -0.1747  0.2693 -0.2776
  177SLPC   C2120143   5.427   5.718  10.587  0.4912  0.0295 -0.6480
  177SLPC   O2220144   5.458   5.606  10.553 -0.5828 -0.4419  0.1843
  177SLPC   C2220145   5.443   5.840  10.501 -0.4823  0.4465 -0.5182
  177SLPC   H2R20146   5.492   5.915  10.568  0.4892 -1.1754  0.6257
  177SLPC   H2S20147   5.521   5.824  10.424 -1.0339 -1.1730 -0.7619
  177SLPC    C320148   5.182   5.579  10.679 -0.6627 -0.1869 -0.0996
  177SLPC    HX20149   5.113   5.524  10.746 -0.9851  1.3130  0.8146
  177SLPC    HY20150   5.244   5.503  10.627  2.4410  1.1482  1.5157
  177SLPC   O3120151   5.124   5.665  10.578  0.3303  0.2947 -0.5525
  177SLPC   C3120152   5.008   5.726  10.608 -0.3699 -0.2995 -0.3119
  177SLPC   O3220153   4.951   5.720  10.716 -0.4543  0.4010  0.0470
  177SLPC   C3220154   4.968   5.789  10.480  0.1532  0.3477  0.4953
  177SLPC   H2X20155   5.058   5.815  10.420 -0.0034 -2.6161 -1.1403
  177SLPC   H2Y20156   4.896   5.869  10.503  0.0053  0.8981 -1.7974
  177SLPC   C2320157   5.315   5.886  10.440  0.3385  0.4184  0.1749
  177SLPC   H3R20158   5.239   5.908  10.518  1.2190  0.4549  1.0335
  177SLPC   H3S20159   5.272   5.800  10.383  0.5768  0.1424  0.4136
  177SLPC   C2420160   5.330   5.997  10.333 -0.0438  0.3838  0.2956
  177SLPC   H4R20161   5.360   6.083  10.396 -0.7634  0.8289  0.0398
  177SLPC   H4S20162   5.228   6.033  10.304  1.0751  4.1523  0.7561
  177SLPC   C2520163   5.428   5.970  10.224 -0.3266 -0.2156 -0.7850
  177SLPC   H5R20164   5.527   5.986  10.273 -0.0779 -1.0584 -1.0005
  177SLPC   H5S20165   5.415   6.044  10.141 -0.3859 -0.9904 -1.4764
  177SLPC   C2620166   5.428   5.824  10.160 -0.0615 -0.5900 -1.0537
  177SLPC   H6R20167   5.337   5.799  10.102 -0.9538 -2.7414  1.1866
  177SLPC   H6S20168   5.432   5.750  10.243  0.5402  2.3901  1.6508
  177SLPC   C2720169   5.543   5.793  10.057  0.1579 -0.3116  0.5563
  177SLPC   H7R20170   5.632   5.771  10.120  0.5992  0.0738  0.0735
  177SLPC   H7S20171   5.560   5.877   9.987 -1.4607  1.3944  2.1340
  177SLPC   C2820172   5.504   5.660   9.987  0.4063  0.9053  0.1750
  177SLPC   H8R20173   5.413   5.674   9.925  1.6161  0.0407 -1.8410
  177SLPC   H8S20174   5.475   5.589  10.068  1.7962 -0.7493 -0.7380
  177SLPC   C2920175   5.618   5.611   9.899 -0.1423 -0.1569 -0.8395
  177SLPC   H9R20176   5.692   5.551   9.955 -1.8413 -0.7581  0.8180
  177SLPC  C21020177   5.634   5.628   9.769 -0.0255 -0.5909  0.3041
  177SLPC  H10R20178   5.728   5.591   9.725  0.4987 -0.3297  1.1839
  177SLPC  C21120179   5.530   5.698   9.682 -0.8670  0.4597  0.1353
  177SLPC  H11R20180   5.490   5.628   9.605  3.1902 -0.8367 -0.9289
  177SLPC  H11S20181   5.433   5.725   9.728 -0.7758  0.3443  0.3910
  177SLPC  C21220182   5.591   5.825   9.616 -0.3198 -0.2145  0.2870
  177SLPC  H12R20183   5.600   5.911   9.683 -0.7594 -0.3201  0.4825
  177SLPC  C21320184   5.651   5.834   9.501 -0.1658  0.1235  0.7863
  177SLPC  H13R20185   5.716   5.920   9.479  0.0666 -0.5975 -1.5650
  177SLPC  C21420186   5.669   5.732   9.389 -0.7337 -0.4598 -0.0257
  177SLPC  H14R20187   5.571   5.682   9.375 -0.3610 -0.6258 -2.1922
  177SLPC  H14S20188   5.733   5.649   9.426 -1.7546 -0.7806  1.0592
  177SLPC  C21520189   5.724   5.786   9.256  0.3338  0.7118 -0.5891
  177SLPC  H15R20190   5.804   5.862   9.264  2.3336 -1.4144 -0.0361
  177SLPC  H15S20191   5.638   5.841   9.211 -2.0537 -2.8483 -0.5651
  177SLPC  C21620192   5.783   5.683   9.151 -0.1050 -0.5343 -0.7715
  177SLPC  H16R20193   5.695   5.623   9.120  0.1599 -1.1657 -0.2804
  177SLPC  H16S20194   5.859   5.627   9.209 -0.1253  0.6768  0.4522
  177SLPC  C21720195   5.845   5.760   9.034 -0.4362  0.1675  0.5460
  177SLPC  H17R20196   5.914   5.687   8.986 -0.7288  0.4453 -0.3137
  177SLPC  H17S20197   5.891   5.856   9.064 -1.0764  0.0184  2.0653
  177SLPC  C21820198   5.752   5.807   8.919 -0.0964 -0.5254  0.0938
  177SLPC  H18R20199   5.700   5.733   8.855 -2.5651  0.3059  1.0605
  177SLPC  H18S20200   5.806   5.872   8.847 -1.2288 -1.2175 -1.4095
  177SLPC  H18T20201   5.671   5.865   8.968 -0.9895 -0.3725 -1.5410
  177SLPC   C3320202   4.887   5.685  10.398 -0.4456  0.1791 -0.0832
  177SLPC   H3X20203   4.786   5.679  10.445  0.3230  0.0580  1.5795
  177SLPC   H3Y20204   4.924   5.580  10.389 -0.9130 -0.1832  1.9465
  177SLPC   C3420205   4.867   5.737  10.252 -0.5291  0.4948  0.2349
  177SLPC   H4X20206   4.965   5.772  10.212  0.2395 -1.4256  0.4203
  177SLPC   H4Y20207   4.803   5.828  10.256 -0.6104  0.4630 -0.3097
  177SLPC   C3520208   4.812   5.644  10.142  0.2597  0.2227  0.1257
  177SLPC   H5X20209   4.707   5.616  10.164 -0.0194  1.3512  0.2700
  177SLPC   H5Y20210   4.859   5.545  10.126 -1.7573 -0.5698 -0.9754
  177SLPC   C3620211   4.814   5.715  10.004  0.3557 -0.5359 -0.5827
  177SLPC   H6X20212   4.914   5.747   9.968  0.9333 -2.0072 -0.3077
  177SLPC   H6Y20213   4.764   5.813  10.019 -0.1442 -0.9117  0.2405
  177SLPC   C3720214   4.768   5.622   9.889  0.3162 -0.2903  0.2496
  177SLPC   H7X20215   4.663   5.590   9.911 -0.5521  0.9891 -1.8760
  177SLPC   H7Y20216   4.828   5.530   9.882  1.4003  0.4421 -0.1428
  177SLPC   C3820217   4.785   5.696   9.754 -0.0535  0.0157 -0.4439
  177SLPC   H8X20218   4.890   5.730   9.740  0.0122 -0.7510 -1.9189
  177SLPC   H8Y20219   4.727   5.790   9.768  0.0616  0.0544 -0.2389
  177SLPC   C3920220   4.721   5.619   9.638 -0.1111  0.3112  0.4350
  177SLPC   H9X20221   4.613   5.643   9.636 -0.9288 -2.9111  2.3595
  177SLPC   H9Y20222   4.736   5.509   9.644  2.5050  0.6768  1.3621
  177SLPC  C31020223   4.777   5.666   9.502 -0.2840 -0.1761 -0.3473
  177SLPC  H10X20224   4.885   5.643   9.511  0.6797  4.5446  1.7066
  177SLPC  H10Y20225   4.760   5.776   9.494  1.4143  0.1830  0.6796
  177SLPC  C31120226   4.732   5.587   9.379  0.2343  0.2181 -1.0608
  177SLPC  H11X20227   4.621   5.587   9.368 -0.1082 -0.7755  1.8492
  177SLPC  H11Y20228   4.768   5.483   9.395  1.0378  0.8476  1.4699
  177SLPC  C31220229   4.786   5.620   9.235  0.5280  0.0486  0.1612
  177SLPC  H12X20230   4.800   5.729   9.220  2.0676 -0.1311  0.2342
  177SLPC  H12Y20231   4.716   5.564   9.169  2.9117 -3.1022  0.1825
  177SLPC  C31320232   4.924   5.557   9.205 -0.1654  0.8189  0.0523
  177SLPC  H13X20233   4.918   5.447   9.195  0.8542  0.4879  2.6218
  177SLPC  H13Y20234   4.988   5.574   9.294  2.4646  3.6186 -2.2710
  177SLPC  C31420235   4.990   5.625   9.078  1.0304  1.0226 -0.7643
  177SLPC  H14X20236   4.999   5.726   9.124  0.9996  0.8996 -0.4844
  177SLPC  H14Y20237   4.925   5.622   8.988  1.5471 -1.3228 -1.0734
  177SLPC  C31520238   5.122   5.567   9.037 -0.0593 -0.2349 -0.0792
  177SLPC  H15X20239   5.117   5.481   8.966 -0.1466  0.3334 -0.7652
  177SLPC  H15Y20240   5.156   5.532   9.137 -2.1144 -0.6255  0.5013
  177SLPC  C31620241   5.211   5.677   8.984  0.3283  0.0062 -0.5827
  177SLPC  H16X20242   5.219   5.758   9.059 -0.2455  1.0034 -1.5862
  177SLPC  H16Y20243   5.165   5.718   8.891 -0.8308  1.3321  0.5641
  177SLPC  C31720244   5.348   5.630   8.930  0.9825 -0.9885 -0.8111
  177SLPC  H17X20245   5.397   5.718   8.884  0.1633  0.7494  1.5188
  177SLPC  H17Y20246   5.330   5.549   8.856  1.5947  0.6366 -2.7876
  177SLPC  C31820247   5.449   5.589   9.040  0.4294  0.0760 -0.2216
  177SLPC  H18X20248   5.449   5.657   9.128 -2.7171 -1.8783  1.3952
  177SLPC  H18Y20249   5.549   5.578   8.993  0.4243  1.6290 -0.6277
  177SLPC  H18Z20250   5.415   5.488   9.072  0.9144  0.5395  1.8167
  178SLPC     N20251   0.661   1.272  11.252  0.4330  0.4405 -0.1718
  178SLPC   C1320252   0.734   1.399  11.255  0.4649  0.4661  0.3134
  178SLPC  H13A20253   0.812   1.392  11.329  1.2768  0.2288 -0.5569
  178SLPC  H13B20254   0.778   1.420  11.159 -1.4641  1.9205 -0.2776
  178SLPC  H13C20255   0.662   1.478  11.265  0.9317  0.8072  1.0427
  178SLPC   C1420256   0.611   1.241  11.397  0.0843  0.0562  0.2192
  178SLPC  H14A20257   0.549   1.154  11.400 -1.5911  1.2368  0.5155
  178SLPC  H14B20258   0.698   1.212  11.455  0.3782 -0.3476 -0.4229
  178SLPC  H14C20259   0.568   1.330  11.441  1.8456  2.8861 -3.5239
  178SLPC   C1520260   0.743   1.157  11.204  0.2267  0.0795 -0.3004
  178SLPC  H15A20261   0.684   1.077  11.163 -0.2704  1.7689 -3.0422
  178SLPC  H15B20262   0.814   1.197  11.133 -0.2647  0.9211 -0.3161
  178SLPC  H15C20263   0.796   1.125  11.293  2.8358  0.7861 -1.5498
  178SLPC   C1220264   0.548   1.296  11.157  0.3410 -0.4139  0.2011
  178SLPC  H12A20265   0.581   1.297  11.054 -1.1109 -4.2790 -0.4091
  178SLPC  H12B20266   0.502   1.394  11.164  1.4222  0.4841 -3.8412
  178SLPC   C1120267   0.432   1.192  11.163  0.8917  0.0064  0.8685
  178SLPC  H11A20268   0.369   1.241  11.086  1.5696  1.1191  1.0098
  178SLPC  H11B20269   0.387   1.205  11.264  1.4634 -0.8990  1.2496
  178SLPC     P20270   0.427   0.993  10.990 -0.3303 -0.2268 -0.3691
  178SLPC   O1320271   0.496   0.864  10.966 -0.2496  0.3369 -0.5389
  178SLPC   O1420272   0.281   0.990  10.991  0.3885  0.1367 -0.5500
  178SLPC   O1220273   0.466   1.062  11.128  0.1598  0.0184 -0.1610
  178SLPC   O1120274   0.478   1.101  10.887 -0.3742  0.1358  0.0061
  178SLPC    C120275   0.594   1.083  10.806 -0.2247 -0.3681  0.2603
  178SLPC    HA20276   0.682   1.144  10.837 -0.8921  0.4195  0.6380
  178SLPC    HB20277   0.635   0.980  10.810  0.6978  0.0323  1.1761
  178SLPC    C220278   0.551   1.098  10.654  0.2751  0.5331  0.0458
  178SLPC    HS20279   0.636   1.058  10.596 -0.3431  1.1157 -1.2828
  178SLPC   O2120280   0.530   1.233  10.613 -0.4260  0.0539 -0.0981
  178SLPC   C2120281   0.646   1.303  10.608  0.3231 -0.5907 -0.4283
  178SLPC   O2220282   0.758   1.263  10.633  0.5575  0.6307 -0.3556
  178SLPC   C2220283   0.629   1.451  10.569 -0.1749  0.0484  0.2142
  178SLPC   H2R20284   0.535   1.476  10.622 -0.7399 -1.0122 -0.2628
  178SLPC   H2S20285   0.715   1.509  10.609  0.5423 -2.0080  1.7966
  178SLPC    C320286   0.429   1.012  10.617 -0.6801 -0.2372  0.3358
  178SLPC    HX20287   0.340   1.054  10.668 -1.9072 -0.9088 -1.2397
  178SLPC    HY20288   0.444   0.911  10.662 -2.4205 -0.8248 -0.3884
  178SLPC   O3120289   0.417   1.014  10.475  0.5215  0.3355  0.5731
  178SLPC   C3120290   0.316   1.075  10.423 -0.4506 -0.1459  0.4840
  178SLPC   O3220291   0.217   1.128  10.480  0.4424  0.2156  0.3346
  178SLPC   C3220292   0.345   1.090  10.277  1.0132  0.1825 -0.7229
  178SLPC   H2X20293   0.355   0.982  10.250 -2.6153 -0.9915  2.1530
  178SLPC   H2Y20294   0.437   1.144  10.247  0.9697  1.8030  1.8586
  178SLPC   C2320295   0.605   1.479  10.423 -0.1405  0.2512 -0.9598
  178SLPC   H3R20296   0.601   1.589  10.410 -0.5980  0.3452 -0.0087
  178SLPC   H3S20297   0.499   1.447  10.415 -0.6205  0.2551  3.9710
  178SLPC   C2420298   0.705   1.411  10.329  0.1312  0.1915 -0.2754
  178SLPC   H4R20299   0.673   1.305  10.318  0.1243  0.3497 -1.7637
  178SLPC   H4S20300   0.801   1.407  10.384  0.1118  1.6676 -0.1248
  178SLPC   C2520301   0.713   1.487  10.197 -0.2067  0.5673  0.7447
  178SLPC   H5R20302   0.782   1.429  10.132  0.6145  1.3610  0.8916
  178SLPC   H5S20303   0.746   1.593  10.209 -1.0532  1.0177 -0.7020
  178SLPC   C2620304   0.581   1.500  10.115 -0.2343  0.1247 -0.2982
  178SLPC   H6R20305   0.504   1.531  10.188  1.0287 -0.4490  1.3149
  178SLPC   H6S20306   0.541   1.406  10.072 -0.3385  0.1518 -0.2614
  178SLPC   C2720307   0.601   1.595   9.994 -0.1604 -0.5140 -0.4657
  178SLPC   H7R20308   0.636   1.689  10.042 -5.5519  2.6402 -2.3302
  178SLPC   H7S20309   0.503   1.626   9.952 -0.1500  1.2092  0.7373
  178SLPC   C2820310   0.699   1.552   9.882  0.3526  0.1626 -0.1867
  178SLPC   H8R20311   0.795   1.515   9.925  0.2214  2.1291  1.9439
  178SLPC   H8S20312   0.730   1.637   9.818  1.5161 -0.7895 -0.9010
  178SLPC   C2920313   0.637   1.440   9.799  0.0557 -0.0112 -0.3133
  178SLPC   H9R20314   0.611   1.349   9.855  2.0892 -0.1550  0.4440
  178SLPC  C21020315   0.619   1.439   9.670 -0.5143  0.4354  0.5084
  178SLPC  H10R20316   0.588   1.346   9.619  0.5522  0.9523 -1.1115
  178SLPC  C21120317   0.651   1.554   9.577  0.9426 -0.0756 -0.0895
  178SLPC  H11R20318   0.758   1.584   9.580  0.5801  1.1717  0.7644
  178SLPC  H11S20319   0.599   1.644   9.615 -0.0332 -0.8118  0.3370
  178SLPC  C21220320   0.613   1.536   9.430  0.4453 -0.2285  0.1791
  178SLPC  H12R20321   0.504   1.545   9.422  0.5386 -1.1574 -3.0679
  178SLPC  C21320322   0.677   1.521   9.312  0.5940 -0.0903  0.4130
  178SLPC  H13R20323   0.629   1.489   9.218 -1.1528 -2.8562  2.1753
  178SLPC  C21420324   0.829   1.524   9.306  0.4176  0.3941 -1.1431
  178SLPC  H14R20325   0.877   1.535   9.405 -0.7060 -1.0154 -0.4134
  178SLPC  H14S20326   0.870   1.597   9.233 -0.1817  1.2531 -0.6287
  178SLPC  C21520327   0.881   1.394   9.244 -0.5437  0.6441  1.1026
  178SLPC  H15R20328   0.860   1.312   9.317  0.1831  1.1972  1.9476
  178SLPC  H15S20329   0.991   1.396   9.230 -0.9514  0.8048 -2.4420
  178SLPC  C21620330   0.835   1.360   9.096 -0.3695  0.1799 -0.0365
  178SLPC  H16R20331   0.730   1.324   9.107  0.0704 -0.9759  0.4774
  178SLPC  H16S20332   0.899   1.273   9.068 -1.2514  0.1396 -2.0698
  178SLPC  C21720333   0.864   1.478   9.002  0.1000 -0.2614 -0.0055
  178SLPC  H17R20334   0.968   1.513   9.016  0.0612 -0.5254  1.0445
  178SLPC  H17S20335   0.792   1.562   9.015 -0.6461 -1.0412  1.0156
  178SLPC  C21820336   0.844   1.430   8.863 -0.0790  0.8068  0.3765
  178SLPC  H18R20337   0.738   1.400   8.849 -0.3443  1.3747  1.1190
  178SLPC  H18S20338   0.901   1.336   8.846 -0.5124  0.2396  1.9660
  178SLPC  H18T20339   0.854   1.514   8.791  2.0047 -0.7419 -1.2062
  178SLPC   C3320340   0.217   1.154  10.219 -0.4006 -0.1745  0.0106
  178SLPC   H3X20341   0.205   1.260  10.247 -0.7272  0.1098 -1.1635
  178SLPC   H3Y20342   0.125   1.092  10.229 -0.8617  0.2315 -1.5174
  178SLPC   C3420343   0.233   1.149  10.066 -0.5428 -0.6254  0.4176
  178SLPC   H4X20344   0.341   1.144  10.041 -0.6389 -1.0150  0.0827
  178SLPC   H4Y20345   0.191   1.238  10.014  0.0679 -0.9450 -0.6250
  178SLPC   C3520346   0.188   1.016   9.997  0.0215  0.1860 -0.4132
  178SLPC   H5X20347   0.077   1.014  10.003 -0.2280 -1.0634 -4.1075
  178SLPC   H5Y20348   0.224   0.928  10.054 -0.8411  0.1344  0.0562
  178SLPC   C3620349   0.246   1.010   9.850 -0.6873  0.8498  0.3684
  178SLPC   H6X20350   0.242   0.904   9.817 -1.1134  0.8526  0.4038
  178SLPC   H6Y20351   0.355   1.028   9.850 -0.1708 -1.9682  1.5470
  178SLPC   C3720352   0.162   1.090   9.752  0.1048  0.0775 -0.5439
  178SLPC   H7X20353   0.188   1.198   9.763  0.2208 -0.1633  1.8225
  178SLPC   H7Y20354   0.054   1.088   9.778  0.3077 -0.4761  0.2667
  178SLPC   C3820355   0.186   1.056   9.605  0.1931  0.3807  0.8705
  178SLPC   H8X20356   0.129   1.129   9.544 -1.5205  0.4817  2.5324
  178SLPC   H8Y20357   0.158   0.953   9.574 -1.6835  1.0234  0.3695
  178SLPC   C3920358   0.326   1.086   9.567  0.2643 -0.0387  0.3224
  178SLPC   H9X20359   0.394   1.014   9.617  0.5030 -0.3445 -0.4318
  178SLPC   H9Y20360   0.359   1.185   9.605 -0.5746 -0.0253  1.0156
  178SLPC  C31020361   0.334   1.081   9.416  0.0035 -0.4237 -0.5777
  178SLPC  H10X20362   0.254   1.138   9.365  0.4458 -0.8798 -1.8129
  178SLPC  H10Y20363   0.315   0.977   9.383 -2.4081 -0.4751  0.8450
  178SLPC  C31120364   0.468   1.127   9.352  0.1295  0.1070 -0.3006
  178SLPC  H11X20365   0.556   1.071   9.390  0.8611  1.1444 -0.4299
  178SLPC  H11Y20366   0.485   1.232   9.385  0.2788  0.2975 -0.9793
  178SLPC  C31220367   0.469   1.140   9.192  0.1971  0.8729 -0.3672
  178SLPC  H12X20368   0.561   1.199   9.174 -0.3030  1.4943 -0.9228
  178SLPC  H12Y20369   0.379   1.189   9.149 -1.4145 -0.3041  1.5850
  178SLPC  C31320370   0.483   1.009   9.115  0.2173  0.0194  0.5058
  178SLPC  H13X20371   0.398   0.938   9.132  2.1059 -1.7928  2.7573
  178SLPC  H13Y20372   0.574   0.957   9.152  1.3542  0.6785 -1.3499
  178SLPC  C31420373   0.499   1.026   8.965  0.6083  0.2112  0.2263
  178SLPC  H14X20374   0.591   1.081   8.938  0.1848  2.3309  2.9071
  178SLPC  H14Y20375   0.420   1.092   8.923  0.7763 -0.1322 -0.6413
  178SLPC  C31520376   0.490   0.893   8.885  0.0216  0.8383  1.2550
  178SLPC  H15X20377   0.550   0.812   8.931  0.2861  1.3971  1.8951
  178SLPC  H15Y20378   0.383   0.866   8.898  0.5908 -1.3085  1.6041
  178SLPC  C31620379   0.521   0.909   8.736 -0.1096 -0.2525  0.4076
  178SLPC  H16X20380   0.608   0.976   8.725  1.7746 -2.8324 -1.0626
  178SLPC  H16Y20381   0.436   0.956   8.680 -0.2754  0.6932  1.4408
  178SLPC  C31720382   0.567   0.776   8.669 -0.1788 -0.7302 -0.2030
  178SLPC  H17X20383   0.500   0.690   8.692  0.6051 -1.7449 -1.6498
  178SLPC  H17Y20384   0.666   0.753   8.715 -0.7615  3.9240  3.7884
  178SLPC  C31820385   0.588   0.776   8.514  0.5976 -0.2699  0.1042
  178SLPC  H18X20386   0.498   0.766   8.450 -0.0099  2.8616  0.3632
  178SLPC  H18Y20387   0.659   0.692   8.500  1.7790  0.8941 -1.1481
  178SLPC  H18Z20388   0.633   0.871   8.477 -0.3185  0.5724  1.1330
  179SLPC     N20389   1.832   5.364  10.558 -0.3481 -0.5922  0.7029
  179SLPC   C1320390   1.917   5.473  10.610 -0.2215 -0.2742 -0.0462
  179SLPC  H13A20391   1.877   5.482  10.710  0.0174 -1.7629  0.1982
  179SLPC  H13B20392   2.019   5.438  10.625 -1.5503 -3.8705  1.3146
  179SLPC  H13C20393   1.907   5.563  10.552 -1.7157 -0.1250  0.4108
  179SLPC   C1420394   1.692   5.401  10.563  0.2001 -0.1316  0.2536
  179SLPC  H14A20395   1.637   5.329  10.504  0.7115 -0.3314  0.0145
  179SLPC  H14B20396   1.640   5.393  10.657  0.6477  1.9841  0.7130
  179SLPC  H14C20397   1.675   5.497  10.515  2.7141  1.1071  1.7361
  179SLPC   C1520398   1.863   5.246  10.650  0.1631  0.2252  0.7793
  179SLPC  H15A20399   1.969   5.230  10.642  0.1688 -0.0246  1.3445
  179SLPC  H15B20400   1.830   5.262  10.752  0.6358  1.3758  0.7682
  179SLPC  H15C20401   1.814   5.161  10.604 -1.2288  2.3423 -1.8419
  179SLPC   C1220402   1.873   5.338  10.413 -0.3732  0.0619  0.3413
  179SLPC  H12A20403   1.977   5.311  10.409  0.1910  2.2168  0.1160
  179SLPC  H12B20404   1.868   5.432  10.361  2.0549 -0.3401 -0.6487
  179SLPC   C1120405   1.788   5.229  10.328  0.3086 -0.1089 -0.0668
  179SLPC  H11A20406   1.828   5.215  10.226  1.9644 -2.8412  0.8855
  179SLPC  H11B20407   1.693   5.284  10.313  0.6424  0.8072  1.1013
  179SLPC     P20408   1.638   5.039  10.436  0.2517 -0.3692  0.4647
  179SLPC   O1320409   1.666   4.946  10.546  0.4266 -0.6745  0.1006
  179SLPC   O1420410   1.537   5.137  10.477 -0.0908  0.6292  0.1041
  179SLPC   O1220411   1.780   5.105  10.401 -0.2196  0.5693 -0.1241
  179SLPC   O1120412   1.593   4.963  10.304  0.3809 -0.0676  0.3796
  179SLPC    C120413   1.679   4.931  10.195 -0.9825  0.3289  0.3509
  179SLPC    HA20414   1.630   4.929  10.096 -1.7140  2.0106  0.6612
  179SLPC    HB20415   1.757   5.010  10.189 -1.2012  0.5055 -0.1603
  179SLPC    C220416   1.761   4.807  10.207  0.6801 -0.4596 -0.1078
  179SLPC    HS20417   1.824   4.815  10.298  0.2405 -1.2737  0.2715
  179SLPC   O2120418   1.853   4.794  10.100 -0.7947  0.4176  0.0403
  179SLPC   C2120419   1.954   4.704  10.108 -0.4338 -0.1337 -0.9156
  179SLPC   O2220420   1.982   4.632  10.199 -0.0702 -0.4087  0.2707
  179SLPC   C2220421   2.042   4.732   9.981  0.1889 -0.4864  0.1417
  179SLPC   H2R20422   2.084   4.835   9.988 -1.1725  0.0111  1.2029
  179SLPC   H2S20423   2.120   4.653   9.980  1.4466  0.7359 -1.8442
  179SLPC    C320424   1.683   4.680  10.216 -0.2142 -0.7339  0.4830
  179SLPC    HX20425   1.618   4.667  10.305 -0.5293 -0.0233  0.3570
  179SLPC    HY20426   1.750   4.594  10.236  0.3196 -0.2104  0.9636
  179SLPC   O3120427   1.609   4.649  10.097  0.2913  0.3934  0.2828
  179SLPC   C3120428   1.482   4.674  10.095 -0.0965 -0.1293 -0.1371
  179SLPC   O3220429   1.412   4.726  10.180 -0.6450 -0.2419 -0.7912
  179SLPC   C3220430   1.420   4.655   9.955 -0.0328  0.0681 -0.1978
  179SLPC   H2X20431   1.387   4.550   9.948  0.5619 -0.1192 -0.2422
  179SLPC   H2Y20432   1.494   4.668   9.873 -0.0495 -2.0162 -0.5723
  179SLPC   C2320433   1.955   4.736   9.852 -0.0367  0.0054 -0.4781
  179SLPC   H3R20434   2.021   4.768   9.769 -0.1424 -2.1888 -1.4287
  179SLPC   H3S20435   1.882   4.818   9.873 -0.0561 -0.1880  0.2196
  179SLPC   C2420436   1.894   4.600   9.826  0.0153 -0.6832  0.1705
  179SLPC   H4R20437   1.859   4.559   9.923  1.9065 -0.2516  1.0482
  179SLPC   H4S20438   1.963   4.522   9.789 -0.6550 -0.9437 -0.5466
  179SLPC   C2520439   1.768   4.614   9.743  0.1395  0.3762  0.2436
  179SLPC   H5R20440   1.696   4.689   9.782 -2.2333 -2.2861  1.1264
  179SLPC   H5S20441   1.719   4.515   9.730  0.2424  0.5381 -1.4125
  179SLPC   C2620442   1.804   4.667   9.610 -0.2006 -0.0935 -0.8228
  179SLPC   H6R20443   1.897   4.618   9.574  0.9541  1.3812  0.0803
  179SLPC   H6S20444   1.819   4.776   9.626 -0.0597 -0.4021  1.2586
  179SLPC   C2720445   1.685   4.652   9.514  0.1905  0.3252  0.2495
  179SLPC   H7R20446   1.603   4.684   9.582 -0.7078 -1.1197 -0.1181
  179SLPC   H7S20447   1.671   4.546   9.482 -1.6638  0.8276 -0.6685
  179SLPC   C2820448   1.696   4.745   9.389  0.5743  0.7382 -0.0124
  179SLPC   H8R20449   1.695   4.851   9.421  0.0642  0.5980  0.4320
  179SLPC   H8S20450   1.597   4.737   9.340  0.8766  1.6537 -0.8017
  179SLPC   C2920451   1.803   4.701   9.293 -0.0333  0.0123 -1.0306
  179SLPC   H9R20452   1.901   4.694   9.342  0.5205  1.2048 -1.9592
  179SLPC  C21020453   1.789   4.675   9.164 -0.3635 -0.3815  0.1159
  179SLPC  H10R20454   1.885   4.669   9.110 -0.0302  1.7005  0.4407
  179SLPC  C21120455   1.665   4.677   9.084  0.5212 -0.3481  0.0336
  179SLPC  H11R20456   1.587   4.627   9.145 -0.2950 -0.1988 -0.8758
  179SLPC  H11S20457   1.675   4.606   8.999 -1.9564  0.0499 -0.6271
  179SLPC  C21220458   1.618   4.817   9.037 -0.4733 -0.2752 -0.9836
  179SLPC  H12R20459   1.537   4.867   9.092 -0.5635 -1.5925  0.1155
  179SLPC  C21320460   1.655   4.872   8.919 -0.1986  0.0910  0.0542
  179SLPC  H13R20461   1.627   4.975   8.894  0.4929  0.6317  1.4896
  179SLPC  C21420462   1.762   4.813   8.829  0.3668  0.1309 -1.2211
  179SLPC  H14R20463   1.827   4.729   8.861  3.9259  2.9913 -0.6523
  179SLPC  H14S20464   1.840   4.890   8.812 -0.2665  0.2802 -3.6620
  179SLPC  C21520465   1.710   4.757   8.699 -0.2987 -0.7119  0.3256
  179SLPC  H15R20466   1.637   4.677   8.725  0.5105 -1.7352 -0.4427
  179SLPC  H15S20467   1.792   4.706   8.643 -0.6354 -0.7557 -0.1371
  179SLPC  C21620468   1.625   4.845   8.611 -0.5277 -0.4875  0.2010
  179SLPC  H16R20469   1.678   4.941   8.593  0.5081 -1.6561 -3.3793
  179SLPC  H16S20470   1.537   4.870   8.674 -0.7475  0.4556 -0.4674
  179SLPC  C21720471   1.581   4.787   8.474  0.7433 -0.1682  0.0313
  179SLPC  H17R20472   1.656   4.804   8.394  0.8142 -1.2121 -0.1294
  179SLPC  H17S20473   1.488   4.841   8.446  0.7541  0.7476  1.7218
  179SLPC  C21820474   1.541   4.641   8.480 -0.6542 -0.4996  0.3239
  179SLPC  H18R20475   1.486   4.601   8.391 -0.2155 -4.3664  1.6756
  179SLPC  H18S20476   1.479   4.601   8.563  0.4821 -0.1087  1.3612
  179SLPC  H18T20477   1.639   4.589   8.479 -0.3971 -0.0092  0.3356
  179SLPC   C3320478   1.303   4.760   9.923  0.0896 -0.2128  0.5682
  179SLPC   H3X20479   1.296   4.849   9.989 -0.5831  0.9739 -1.1021
  179SLPC   H3Y20480   1.209   4.706   9.950  0.1192 -0.0985  0.9098
  179SLPC   C3420481   1.300   4.791   9.768  0.1899  0.5953 -0.0026
  179SLPC   H4X20482   1.396   4.826   9.725 -0.6537  2.0095 -0.7874
  179SLPC   H4Y20483   1.228   4.876   9.758  1.3142  1.8160  1.8255
  179SLPC   C3520484   1.284   4.661   9.683  0.0413 -0.6987 -0.0539
  179SLPC   H5X20485   1.188   4.607   9.700 -0.5810  0.7551  1.1554
  179SLPC   H5Y20486   1.365   4.586   9.691 -1.1423 -2.0542 -0.5034
  179SLPC   C3620487   1.275   4.697   9.536  0.1303  0.1347  0.0598
  179SLPC   H6X20488   1.343   4.781   9.513 -0.2108  0.5056  0.4007
  179SLPC   H6Y20489   1.171   4.727   9.509  0.1135  1.2652  1.3540
  179SLPC   C3720490   1.317   4.577   9.451  0.3533 -0.9958 -0.3288
  179SLPC   H7X20491   1.254   4.490   9.478 -0.0247  0.0581  2.2707
  179SLPC   H7Y20492   1.422   4.553   9.477  0.1543 -3.1165 -1.3881
  179SLPC   C3820493   1.287   4.610   9.302  0.2373  0.2597 -0.1123
  179SLPC   H8X20494   1.362   4.683   9.263  1.5773 -1.3178 -0.5027
  179SLPC   H8Y20495   1.188   4.660   9.288  0.6051  0.6472 -1.4063
  179SLPC   C3920496   1.297   4.491   9.201 -0.1422  0.0245 -0.0292
  179SLPC   H9X20497   1.199   4.438   9.200  1.0658 -2.4100 -5.3476
  179SLPC   H9Y20498   1.383   4.423   9.215 -1.7762 -2.0179  0.2417
  179SLPC  C31020499   1.293   4.530   9.050 -0.2033  0.0329 -0.2415
  179SLPC  H10X20500   1.392   4.576   9.026  0.1600 -1.0571 -0.8533
  179SLPC  H10Y20501   1.213   4.600   9.017  0.9706  1.3132 -0.4218
  179SLPC  C31120502   1.276   4.400   8.966 -0.1095  0.0719 -0.0568
  179SLPC  H11X20503   1.171   4.371   8.990 -0.1331  0.9158  0.9085
  179SLPC  H11Y20504   1.339   4.314   8.994 -0.4182 -0.5621 -1.2913
  179SLPC  C31220505   1.295   4.430   8.813 -0.4601  0.1545  0.2681
  179SLPC  H12X20506   1.404   4.444   8.797 -0.2354 -4.1049 -2.6169
  179SLPC  H12Y20507   1.241   4.520   8.778  1.3835  1.7457  1.3949
  179SLPC  C31320508   1.243   4.316   8.731  0.5894  0.0867  0.2572
  179SLPC  H13X20509   1.143   4.286   8.770  0.4498  0.5263  0.2395
  179SLPC  H13Y20510   1.315   4.232   8.746  1.4959  1.1451  2.0194
  179SLPC  C31420511   1.223   4.365   8.590 -0.6763  0.4989 -0.0972
  179SLPC  H14X20512   1.199   4.277   8.525  0.3550 -1.6070  2.3202
  179SLPC  H14Y20513   1.309   4.424   8.552 -2.3572  2.4062 -1.0253
  179SLPC  C31520514   1.098   4.463   8.575 -0.1895 -0.0256 -0.1251
  179SLPC  H15X20515   1.121   4.560   8.625  1.8366 -0.3189 -0.4446
  179SLPC  H15Y20516   1.010   4.433   8.635  0.0384 -1.4984 -0.5116
  179SLPC  C31620517   1.063   4.480   8.425 -0.1374  0.1371  0.3311
  179SLPC  H16X20518   1.050   4.375   8.391  1.2700  0.6927 -2.0614
  179SLPC  H16Y20519   1.141   4.523   8.358 -1.1858  1.3919 -0.0929
  179SLPC  C31720520   0.943   4.560   8.409  0.8847  0.4165  0.3331
  179SLPC  H17X20521   0.951   4.664   8.449 -0.2135  0.2665  0.9478
  179SLPC  H17Y20522   0.868   4.518   8.478  1.5005  2.1486  2.1075
  179SLPC  C31820523   0.897   4.554   8.263  0.1991  0.3084  0.4007
  179SLPC  H18X20524   0.851   4.455   8.242  2.4818 -0.4319 -1.3315
  179SLPC  H18Y20525   0.980   4.580   8.194 -0.7329  1.6031 -0.2551
  179SLPC  H18Z20526   0.832   4.643   8.251 -1.0873 -0.7571 -0.6735
  180SLPC     N20527   3.207   2.396  11.015  0.2192 -0.2565  0.2753
  180SLPC   C1320528   3.235   2.527  11.081 -1.0197  0.2746 -0.0825
  180SLPC  H13A20529   3.340   2.538  11.100 -0.8372  0.1741 -1.0145
  180SLPC  H13B20530   3.214   2.618  11.027  0.5536 -0.1355 -1.3975
  180SLPC  H13C20531   3.179   2.533  11.174 -0.6163 -1.3571  0.2786
  180SLPC   C1420532   3.063   2.410  10.990  0.2662  0.4529  0.0428
  180SLPC  H14A20533   3.039   2.497  10.930 -2.6003 -1.9107 -2.3892
  180SLPC  H14B20534   3.016   2.324  10.946  0.5862  0.4883 -0.3654
  180SLPC  H14C20535   3.006   2.418  11.082  1.1410 -0.5677  0.6903
  180SLPC   C1520536   3.243   2.290  11.111  0.0127 -0.3447 -0.6154
  180SLPC  H15A20537   3.340   2.296  11.158  0.2807  1.2756 -1.3510
  180SLPC  H15B20538   3.174   2.283  11.194 -3.7209 -1.0829 -3.6431
  180SLPC  H15C20539   3.235   2.197  11.056  1.4028 -1.4771  1.0273
  180SLPC   C1220540   3.295   2.396  10.894 -0.1859 -0.6947  0.0297
  180SLPC  H12A20541   3.400   2.398  10.921 -0.4697  1.1665  1.0666
  180SLPC  H12B20542   3.276   2.481  10.830  3.8499 -0.9297 -1.6466
  180SLPC   C1120543   3.294   2.274  10.799  0.2191  0.3484  0.9288
  180SLPC  H11A20544   3.323   2.177  10.846 -0.5975  1.1636  3.1805
  180SLPC  H11B20545   3.381   2.285  10.731 -0.5793  0.7834 -0.0193
  180SLPC     P20546   3.084   2.145  10.723 -0.2766  0.1531 -0.2111
  180SLPC   O1320547   3.108   2.062  10.848  0.3962 -0.2658  0.2116
  180SLPC   O1420548   2.947   2.196  10.702  0.3767  0.2376  0.4097
  180SLPC   O1220549   3.177   2.275  10.721 -0.1794 -0.1486 -0.2851
  180SLPC   O1120550   3.121   2.062  10.594 -0.2800 -0.3263  0.2427
  180SLPC    C120551   3.244   2.093  10.523 -0.3312  0.0054  0.1418
  180SLPC    HA20552   3.335   2.086  10.587  0.3723  0.0227 -0.8508
  180SLPC    HB20553   3.263   2.015  10.447  0.4487 -0.0661  0.3988
  180SLPC    C220554   3.247   2.220  10.436 -0.2705 -0.1848 -0.2725
  180SLPC    HS20555   3.208   2.303  10.500  0.0701  1.1814 -1.8010
  180SLPC   O2120556   3.156   2.205  10.323 -0.1035 -0.3955 -0.1622
  180SLPC   C2120557   3.139   2.316  10.255 -0.2434 -0.8169 -0.0019
  180SLPC   O2220558   3.150   2.432  10.290  0.4148 -0.6428 -0.2337
  180SLPC   C2220559   3.091   2.277  10.115  0.2557  0.2416 -0.0764
  180SLPC   H2R20560   3.165   2.210  10.066 -1.0993 -0.0449 -1.7452
  180SLPC   H2S20561   3.003   2.210  10.114  1.5740 -1.5306 -1.8919
  180SLPC    C320562   3.393   2.254  10.390  0.0456  0.0568 -0.2562
  180SLPC    HX20563   3.452   2.260  10.484  2.3726 -0.0226 -1.6479
  180SLPC    HY20564   3.384   2.357  10.350  0.2697  0.1866  0.0181
  180SLPC   O3120565   3.452   2.163  10.293  0.1034 -0.4752 -0.2323
  180SLPC   C3120566   3.438   2.181  10.166  0.2939  1.2414 -0.4374
  180SLPC   O3220567   3.395   2.279  10.110  0.6041  0.0388 -0.1597
  180SLPC   C3220568   3.471   2.050  10.095  0.0610  0.1944 -0.6388
  180SLPC   H2X20569   3.432   1.971  10.163  3.0452 -0.4031  0.4610
  180SLPC   H2Y20570   3.581   2.035  10.091  0.2668 -1.4813  5.9572
  180SLPC   C2320571   3.086   2.406  10.027  0.1256  0.3220 -0.2210
  180SLPC   H3R20572   3.169   2.476  10.052 -0.7538  1.0777  0.6292
  180SLPC   H3S20573   3.001   2.475  10.047  0.8034  1.3957 -0.9924
  180SLPC   C2420574   3.085   2.378   9.876  0.4499 -0.0551  0.5986
  180SLPC   H4R20575   3.029   2.462   9.830 -1.9378 -1.3950  0.9718
  180SLPC   H4S20576   3.026   2.283   9.874  0.3415  0.0100 -2.3170
  180SLPC   C2520577   3.225   2.366   9.816  0.2141  0.1091 -0.3389
  180SLPC   H5R20578   3.269   2.269   9.847 -1.7963 -1.1528 -1.3012
  180SLPC   H5S20579   3.282   2.450   9.861 -2.5619  0.2622  3.1020
  180SLPC   C2620580   3.237   2.381   9.665 -0.8581  0.1331  0.1461
  180SLPC   H6R20581   3.152   2.323   9.622  0.9289 -2.9703  0.6297
  180SLPC   H6S20582   3.331   2.332   9.632 -0.1629  1.4018  0.2262
  180SLPC   C2720583   3.221   2.522   9.610  0.1852  0.4387 -0.6009
  180SLPC   H7R20584   3.287   2.589   9.670  0.5617 -0.0947 -0.4112
  180SLPC   H7S20585   3.113   2.545   9.614 -0.2227 -1.8247  2.4598
  180SLPC   C2820586   3.275   2.527   9.466  0.3182  0.4650 -0.3805
  180SLPC   H8R20587   3.383   2.501   9.463 -0.2664 -1.9781 -3.5587
  180SLPC   H8S20588   3.276   2.634   9.435 -0.7329  0.3556 -0.8155
  180SLPC   C2920589   3.186   2.442   9.377 -0.0646 -0.7535  0.6069
  180SLPC   H9R20590   3.135   2.362   9.432  0.3658 -0.0875  1.9852
  180SLPC  C21020591   3.145   2.477   9.253  0.6577 -0.3386  0.2248
  180SLPC  H10R20592   3.080   2.409   9.195  1.6660 -0.3452 -0.9185
  180SLPC  C21120593   3.188   2.585   9.161 -0.4343 -0.2695  0.6924
  180SLPC  H11R20594   3.248   2.663   9.212  0.6126 -0.8999  0.4309
  180SLPC  H11S20595   3.094   2.632   9.124  0.3147  0.7322  0.0283
  180SLPC  C21220596   3.275   2.547   9.050  0.0891  0.1509  0.1249
  180SLPC  H12R20597   3.375   2.522   9.089  0.2458  1.8036  0.8354
  180SLPC  C21320598   3.229   2.542   8.920  0.3089  0.0015 -0.0650
  180SLPC  H13R20599   3.297   2.503   8.844 -0.7396  0.3734 -1.2234
  180SLPC  C21420600   3.085   2.564   8.874  0.1269  0.0311 -0.1011
  180SLPC  H14R20601   3.010   2.530   8.949  0.1312 -0.1368 -0.1750
  180SLPC  H14S20602   3.077   2.499   8.784 -2.7557 -0.1316  0.2178
  180SLPC  C21520603   3.082   2.713   8.831  0.5765 -0.1613  0.0747
  180SLPC  H15R20604   3.172   2.740   8.773  0.5972 -2.5733 -1.0672
  180SLPC  H15S20605   3.088   2.786   8.914 -1.8848 -0.4278  0.5309
  180SLPC  C21620606   2.958   2.752   8.750 -1.8636 -0.5744  0.0081
  180SLPC  H16R20607   2.941   2.686   8.662 -1.3831  1.2582 -1.4825
  180SLPC  H16S20608   2.966   2.856   8.711  0.8279 -0.4275  0.8619
  180SLPC  C21720609   2.838   2.744   8.831  0.4975  0.1393 -0.0492
  180SLPC  H17R20610   2.851   2.822   8.909 -3.4257  0.4155  0.4263
  180SLPC  H17S20611   2.832   2.647   8.884 -1.4807  0.2124 -0.1015
  180SLPC  C21820612   2.709   2.799   8.769 -0.1711  0.5876  0.3399
  180SLPC  H18R20613   2.675   2.729   8.690  0.3738  1.1711 -0.4199
  180SLPC  H18S20614   2.738   2.891   8.713  1.1362 -1.4160 -2.3995
  180SLPC  H18T20615   2.627   2.815   8.842 -1.6578 -0.9659 -0.9399
  180SLPC   C3320616   3.410   2.031   9.956 -0.0586  0.5809  0.3878
  180SLPC   H3X20617   3.319   2.093   9.944 -0.6638  0.1319  2.3760
  180SLPC   H3Y20618   3.364   1.931   9.944  2.3833 -0.2409 -2.6248
  180SLPC   C3420619   3.515   2.055   9.854 -0.0522  0.5861  0.1514
  180SLPC   H4X20620   3.601   1.984   9.851 -1.1679 -0.7483 -0.5519
  180SLPC   H4Y20621   3.564   2.154   9.855 -0.5254  0.8228  1.1339
  180SLPC   C3520622   3.444   2.051   9.720 -0.0321  0.3707  1.2861
  180SLPC   H5X20623   3.357   2.120   9.722 -1.0682 -0.7695 -1.3510
  180SLPC   H5Y20624   3.405   1.949   9.697 -0.4606  0.9415 -0.6223
  180SLPC   C3620625   3.538   2.111   9.613  0.0074 -0.2941 -0.1744
  180SLPC   H6X20626   3.622   2.038   9.605  1.3746  0.9316  2.4148
  180SLPC   H6Y20627   3.579   2.211   9.638  1.4287 -0.6434 -1.0558
  180SLPC   C3720628   3.456   2.123   9.484 -0.2683  0.5125 -0.1971
  180SLPC   H7X20629   3.365   2.185   9.497 -0.0427  0.9517 -0.6993
  180SLPC   H7Y20630   3.412   2.022   9.472  2.3241 -0.3008 -3.8563
  180SLPC   C3820631   3.547   2.163   9.368 -0.0507 -0.1548 -0.8992
  180SLPC   H8X20632   3.636   2.098   9.356  1.0016  1.0914  0.0253
  180SLPC   H8Y20633   3.582   2.264   9.398 -1.2473 -0.3199  1.1629
  180SLPC   C3920634   3.468   2.162   9.237  0.2873 -0.1842  0.2052
  180SLPC   H9X20635   3.379   2.227   9.250  0.6120  0.6391 -1.6663
  180SLPC   H9Y20636   3.426   2.059   9.232  0.2258 -0.2551  1.6877
  180SLPC  C31020637   3.555   2.219   9.127 -0.5053  0.2460  0.4525
  180SLPC  H10X20638   3.661   2.186   9.135  0.5434  3.3378  0.4074
  180SLPC  H10Y20639   3.556   2.330   9.141 -2.5773  0.0333  2.6712
  180SLPC  C31120640   3.510   2.198   8.980 -0.3703 -0.0115  1.0237
  180SLPC  H11X20641   3.429   2.270   8.955  1.9122  2.1991 -0.1464
  180SLPC  H11Y20642   3.467   2.100   8.952 -1.7671  0.5747  1.0684
  180SLPC  C31220643   3.620   2.236   8.875 -0.6863  0.2382  0.1843
  180SLPC  H12X20644   3.714   2.186   8.905 -0.9104  1.0813  2.4519
  180SLPC  H12Y20645   3.624   2.347   8.882  2.0575  0.3571 -2.3717
  180SLPC  C31320646   3.583   2.188   8.740 -0.0305 -0.1175 -0.1183
  180SLPC  H13X20647   3.488   2.223   8.693  0.1234  2.1602  1.2185
  180SLPC  H13Y20648   3.584   2.077   8.748  2.6971 -0.2145 -1.2599
  180SLPC  C31420649   3.697   2.223   8.640  0.8616 -0.2084 -0.1517
  180SLPC  H14X20650   3.790   2.174   8.675  2.7363  1.4691 -2.6497
  180SLPC  H14Y20651   3.698   2.334   8.629  1.2860 -0.2640 -0.6740
  180SLPC  C31520652   3.674   2.165   8.495  0.2420 -0.3904  0.4798
  180SLPC  H15X20653   3.670   2.054   8.503 -3.0122 -0.4981 -1.7053
  180SLPC  H15Y20654   3.763   2.181   8.430  0.5784 -0.5969  0.8897
  180SLPC  C31620655   3.551   2.219   8.422  0.7211 -0.2949 -0.8309
  180SLPC  H16X20656   3.563   2.330   8.420 -0.4204 -0.1135  1.0160
  180SLPC  H16Y20657   3.453   2.202   8.470 -0.1684 -0.4005 -2.6478
  180SLPC  C31720658   3.535   2.155   8.281  0.4794 -0.7617  0.8441
  180SLPC  H17X20659   3.501   2.050   8.288 -0.1131 -0.5983  0.5030
  180SLPC  H17Y20660   3.631   2.160   8.225 -1.2191 -0.0880 -2.1034
  180SLPC  C31820661   3.424   2.227   8.200 -0.6857  0.3283  0.0954
  180SLPC  H18X20662   3.330   2.223   8.258 -3.2196 -2.2300 -3.8943
  180SLPC  H18Y20663   3.407   2.173   8.104 -1.3386  1.3156 -0.3488
  180SLPC  H18Z20664   3.463   2.330   8.184 -3.0652  1.1583 -0.6305
  181SLPC     N20665   6.192   6.324  11.384  0.3848 -0.0582  0.5753
  181SLPC   C1320666   6.257   6.188  11.384  0.5820  0.0862 -0.1938
  181SLPC  H13A20667   6.246   6.167  11.489 -0.3918  0.0576 -0.2967
  181SLPC  H13B20668   6.202   6.126  11.315  0.4105  0.3363 -0.2802
  181SLPC  H13C20669   6.360   6.179  11.353  0.1625  1.1843 -2.0050
  181SLPC   C1420670   6.277   6.408  11.468  0.1522  0.8647 -0.1581
  181SLPC  H14A20671   6.283   6.387  11.573  3.0626 -2.5040 -0.9013
  181SLPC  H14B20672   6.382   6.408  11.441  0.1041 -0.7409 -0.3917
  181SLPC  H14C20673   6.232   6.507  11.470 -0.9951  0.3507 -0.1353
  181SLPC   C1520674   6.052   6.313  11.447 -0.1734 -0.3695  1.0748
  181SLPC  H15A20675   5.994   6.254  11.378  0.1395  0.0579  0.4361
  181SLPC  H15B20676   6.044   6.270  11.545 -3.9091  1.8417  1.8400
  181SLPC  H15C20677   6.013   6.412  11.460  0.5988 -0.0659  1.1316
  181SLPC   C1220678   6.189   6.387  11.240  1.3521 -0.2880  0.7495
  181SLPC  H12A20679   6.289   6.408  11.207  1.8049 -1.5369  1.2943
  181SLPC  H12B20680   6.136   6.482  11.239  3.8421  1.1555 -1.9703
  181SLPC   C1120681   6.110   6.323  11.122 -0.3366 -0.0360  0.0634
  181SLPC  H11A20682   6.095   6.388  11.033  1.4935  1.7207  1.0041
  181SLPC  H11B20683   6.004   6.316  11.154 -0.6461 -1.4279 -1.2112
  181SLPC     P20684   6.047   6.080  11.027 -0.2609  0.0893 -0.2050
  181SLPC   O1320685   6.121   5.974  10.950  0.0405  0.5128 -0.3388
  181SLPC   O1420686   5.970   6.035  11.152 -0.1678  1.0972  0.8769
  181SLPC   O1220687   6.150   6.193  11.083  0.2122  0.3239  0.3219
  181SLPC   O1120688   5.953   6.164  10.940 -0.1688 -0.0150 -0.1405
  181SLPC    C120689   5.983   6.178  10.801  0.1970  0.0545 -0.7133
  181SLPC    HA20690   6.087   6.215  10.791 -0.3520  1.3870 -1.6229
  181SLPC    HB20691   5.982   6.079  10.749  2.0147 -0.9907  1.1466
  181SLPC    C220692   5.880   6.278  10.738 -0.2196 -0.0306  0.7488
  181SLPC    HS20693   5.779   6.240  10.767 -1.0874 -0.6133 -2.8033
  181SLPC   O2120694   5.897   6.287  10.593  0.6445 -0.2113 -0.2129
  181SLPC   C2120695   5.777   6.321  10.539 -0.2713 -1.1935 -0.6562
  181SLPC   O2220696   5.671   6.333  10.591  0.2372 -0.2325 -0.8176
  181SLPC   C2220697   5.808   6.351  10.389 -0.1598 -0.2826  0.2175
  181SLPC   H2R20698   5.786   6.457  10.362 -1.1118 -0.7991 -1.1063
  181SLPC   H2S20699   5.916   6.327  10.381  0.0834  1.2198 -1.2128
  181SLPC    C320700   5.899   6.424  10.788 -0.3077 -0.2869 -0.1080
  181SLPC    HX20701   5.916   6.411  10.897 -0.5872 -1.4203 -0.1876
  181SLPC    HY20702   5.816   6.495  10.772 -0.8577 -0.6803  1.0088
  181SLPC   O3120703   6.025   6.467  10.738 -0.3922  0.5859  0.1412
  181SLPC   C3120704   6.030   6.537  10.624 -0.5872  0.2781 -0.9046
  181SLPC   O3220705   5.936   6.582  10.563  0.0008  0.1338  0.1203
  181SLPC   C3220706   6.176   6.550  10.578 -0.7651  0.0575  0.4866
  181SLPC   H2X20707   6.240   6.557  10.668 -1.2758 -1.2289  0.9632
  181SLPC   H2Y20708   6.188   6.642  10.517  0.6077  1.0050  2.1663
  181SLPC   C2320709   5.728   6.263  10.289 -0.3067  0.3336  0.0563
  181SLPC   H3R20710   5.623   6.299  10.289 -0.0193  1.2073 -0.7746
  181SLPC   H3S20711   5.741   6.156  10.314 -2.1172  0.0244 -0.3115
  181SLPC   C2420712   5.781   6.291  10.149  0.2287 -0.5612  0.5617
  181SLPC   H4R20713   5.887   6.262  10.141  0.4048 -0.0521  1.0252
  181SLPC   H4S20714   5.782   6.401  10.133 -0.3219 -0.6066  0.2074
  181SLPC   C2520715   5.715   6.215  10.026 -0.1835  0.0362 -0.8533
  181SLPC   H5R20716   5.611   6.196  10.059  0.2823 -1.8884 -0.4524
  181SLPC   H5S20717   5.774   6.122  10.012 -0.6859 -0.1363 -1.8831
  181SLPC   C2620718   5.717   6.309   9.900 -0.4532 -0.3606 -0.5135
  181SLPC   H6R20719   5.803   6.379   9.904 -1.7701  1.4349 -2.2528
  181SLPC   H6S20720   5.628   6.376   9.904 -0.6879 -0.5980 -1.4685
  181SLPC   C2720721   5.718   6.239   9.765  0.2642  0.0601  0.8636
  181SLPC   H7R20722   5.622   6.183   9.766  0.1663  0.2354  1.2847
  181SLPC   H7S20723   5.804   6.170   9.752  1.0714  1.0050  1.1261
  181SLPC   C2820724   5.728   6.337   9.641  0.8419 -0.1492 -0.0358
  181SLPC   H8R20725   5.732   6.281   9.545  0.1721  2.0794 -1.4223
  181SLPC   H8S20726   5.820   6.400   9.638  0.9996 -0.4172 -1.0224
  181SLPC   C2920727   5.609   6.429   9.640 -0.1649 -0.0088  0.7381
  181SLPC   H9R20728   5.610   6.502   9.723  1.2485  0.6817  0.1300
  181SLPC  C21020729   5.496   6.435   9.559  0.0420  0.5066 -0.0732
  181SLPC  H10R20730   5.414   6.503   9.585 -0.1103 -0.4997  2.1817
  181SLPC  C21120731   5.469   6.349   9.441 -0.0403 -0.1355  0.4347
  181SLPC  H11R20732   5.379   6.383   9.386 -0.5212 -0.3556  1.0762
  181SLPC  H11S20733   5.448   6.252   9.492 -2.1591  0.1034  0.0427
  181SLPC  C21220734   5.583   6.341   9.341  0.0478 -0.0944 -0.1323
  181SLPC  H12R20735   5.681   6.380   9.374 -0.3273 -1.4051  2.6927
  181SLPC  C21320736   5.581   6.280   9.225  0.8242 -1.0307  0.2949
  181SLPC  H13R20737   5.671   6.294   9.164  2.1785  0.4965  2.5964
  181SLPC  C21420738   5.466   6.200   9.176  0.1893  0.0565  0.6043
  181SLPC  H14R20739   5.373   6.229   9.230 -0.4824  1.2992 -1.1774
  181SLPC  H14S20740   5.468   6.095   9.212  0.7299 -0.0525  0.2667
  181SLPC  C21520741   5.445   6.206   9.026  0.2491  0.5525 -0.3030
  181SLPC  H15R20742   5.409   6.307   8.999 -1.0479  0.2006  0.0738
  181SLPC  H15S20743   5.363   6.141   8.989  0.9948 -0.6239  0.0812
  181SLPC  C21620744   5.558   6.179   8.932 -0.2714  0.6712 -0.7370
  181SLPC  H16R20745   5.582   6.071   8.938  0.4665  0.8696  0.0414
  181SLPC  H16S20746   5.654   6.232   8.953  1.6964 -3.4337  1.3103
  181SLPC  C21720747   5.526   6.218   8.785  0.3049 -0.2779  0.3539
  181SLPC  H17R20748   5.615   6.185   8.727 -1.3032 -1.3462 -1.5362
  181SLPC  H17S20749   5.518   6.329   8.776  3.4831 -0.1569 -1.8873
  181SLPC  C21820750   5.395   6.159   8.720  0.4318  0.8998  0.4347
  181SLPC  H18R20751   5.373   6.055   8.751 -0.4433  0.6138 -1.1275
  181SLPC  H18S20752   5.411   6.165   8.610  1.3997  0.0888  0.5301
  181SLPC  H18T20753   5.311   6.229   8.744  1.3213  1.6358  1.4780
  181SLPC   C3320754   6.215   6.432  10.479  0.4912  0.5407  0.2543
  181SLPC   H3X20755   6.163   6.337  10.506  1.6633  0.1763  1.2430
  181SLPC   H3Y20756   6.324   6.421  10.493  0.4015  0.7996  1.1853
  181SLPC   C3420757   6.185   6.453  10.330  0.5671  0.3870 -0.0263
  181SLPC   H4X20758   6.234   6.547  10.297  1.0115  0.5969  1.2138
  181SLPC   H4Y20759   6.076   6.474  10.325  0.9316  2.0615 -1.7183
  181SLPC   C3520760   6.219   6.330  10.247 -0.1564 -0.7092  0.5449
  181SLPC   H5X20761   6.178   6.234  10.285  1.6235 -1.1961  1.2836
  181SLPC   H5Y20762   6.330   6.323  10.249  0.0182  1.5070 -0.3658
  181SLPC   C3620763   6.164   6.352  10.104 -0.5478  0.9153 -0.5326
  181SLPC   H6X20764   6.185   6.458  10.080  0.7015  0.1724 -2.9671
  181SLPC   H6Y20765   6.054   6.341  10.101 -0.4914 -0.6429  1.6551
  181SLPC   C3720766   6.239   6.280   9.993  0.0519 -0.3549  0.0229
  181SLPC   H7X20767   6.213   6.173  10.010 -3.6551  0.7981  2.4018
  181SLPC   H7Y20768   6.349   6.292   9.988 -0.0132  1.2689  2.0090
  181SLPC   C3820769   6.184   6.329   9.855 -0.0561 -0.1248  0.1041
  181SLPC   H8X20770   6.200   6.439   9.843 -1.1490  0.1699  1.2890
  181SLPC   H8Y20771   6.075   6.310   9.844  0.0960 -0.7428 -0.3642
  181SLPC   C3920772   6.260   6.250   9.752  0.0079 -0.5474  0.0254
  181SLPC   H9X20773   6.248   6.145   9.786  0.5443 -0.3977  0.6769
  181SLPC   H9Y20774   6.365   6.284   9.759  0.0853 -0.5573 -1.0153
  181SLPC  C31020775   6.218   6.274   9.608 -0.7134 -0.6092  0.1187
  181SLPC  H10X20776   6.296   6.214   9.557 -0.9711 -0.6355 -0.2479
  181SLPC  H10Y20777   6.241   6.375   9.566 -0.7756 -0.0822  1.3275
  181SLPC  C31120778   6.081   6.219   9.572  0.4069  0.6360 -0.1425
  181SLPC  H11X20779   5.989   6.277   9.594 -0.5619 -0.2883 -1.6618
  181SLPC  H11Y20780   6.073   6.125   9.631 -2.7991  1.6954  1.1799
  181SLPC  C31220781   6.060   6.196   9.419  0.4340  0.7277  0.5076
  181SLPC  H12X20782   6.125   6.110   9.392 -0.3948  0.5068 -0.8562
  181SLPC  H12Y20783   6.089   6.296   9.380 -1.3845  0.6561 -1.0921
  181SLPC  C31320784   5.917   6.161   9.373 -0.0497 -0.7462  0.1269
  181SLPC  H13X20785   5.854   6.252   9.372 -0.2932 -0.9129  0.1187
  181SLPC  H13Y20786   5.866   6.088   9.440 -0.3778  1.0575  1.9029
  181SLPC  C31420787   5.906   6.099   9.236  0.0158  0.5891 -0.8524
  181SLPC  H14X20788   5.799   6.077   9.217 -0.5828  1.4067  1.3683
  181SLPC  H14Y20789   5.966   6.006   9.238  0.8236  1.1116  0.8528
  181SLPC  C31520790   5.952   6.195   9.123  0.4656  0.3038 -0.3071
  181SLPC  H15X20791   6.058   6.227   9.140 -0.2763  3.5500 -1.4370
  181SLPC  H15Y20792   5.897   6.291   9.132 -0.6073 -0.3437  0.0863
  181SLPC  C31620793   5.929   6.137   8.985  0.2596  0.1203  0.2122
  181SLPC  H16X20794   5.826   6.095   8.982  0.0841  0.5078  0.7312
  181SLPC  H16Y20795   5.995   6.051   8.962 -0.1771 -0.4589  1.1085
  181SLPC  C31720796   5.931   6.235   8.865  0.3507 -0.2530 -0.0809
  181SLPC  H17X20797   6.020   6.299   8.881  0.8536 -0.9356 -0.1091
  181SLPC  H17Y20798   5.848   6.307   8.872  0.2573 -0.1204 -2.2255
  181SLPC  C31820799   5.931   6.178   8.727  0.3747 -0.3420 -0.1350
  181SLPC  H18X20800   5.956   6.256   8.652  2.1469  1.3400  2.1194
  181SLPC  H18Y20801   5.838   6.121   8.705  0.7694 -0.5766 -1.1899
  181SLPC  H18Z20802   6.013   6.102   8.726 -0.5700 -1.4142  0.9045
  182SLPC     N20803   4.372   6.801  10.913 -0.2252 -0.1682  0.1500
  182SLPC   C1320804   4.509   6.811  10.968  0.0454 -0.1570 -0.2512
  182SLPC  H13A20805   4.562   6.717  10.970 -1.9608 -1.2939  1.4010
  182SLPC  H13B20806   4.559   6.896  10.924  0.4327  2.3234  4.5229
  182SLPC  H13C20807   4.518   6.847  11.070 -3.2683 -1.2061  0.4888
  182SLPC   C1420808   4.289   6.748  11.027  0.0889  0.0592  0.0826
  182SLPC  H14A20809   4.331   6.658  11.068 -0.4931  0.8452  2.5074
  182SLPC  H14B20810   4.288   6.827  11.101  1.0043  1.9368 -1.8468
  182SLPC  H14C20811   4.189   6.724  10.995 -0.1026  0.0980  0.6457
  182SLPC   C1520812   4.367   6.698  10.801 -1.2548 -0.0470 -0.4482
  182SLPC  H15A20813   4.269   6.681  10.758 -1.3253 -1.3113  0.2144
  182SLPC  H15B20814   4.427   6.743  10.722 -0.5857 -1.4257 -0.7286
  182SLPC  H15C20815   4.407   6.601  10.825 -0.1564  0.2958 -0.8689
  182SLPC   C1220816   4.318   6.928  10.862  0.8365  0.0582 -0.1238
  182SLPC  H12A20817   4.223   6.916  10.814  0.9406  1.3594 -0.6563
  182SLPC  H12B20818   4.377   6.964  10.780 -1.4738 -2.1124 -2.8440
  182SLPC   C1120819   4.310   7.050  10.959 -0.1280 -0.3193  0.3672
  182SLPC  H11A20820   4.276   7.015  11.059 -1.0229 -2.6803 -0.7200
  182SLPC  H11B20821   4.241   7.130  10.923  1.0909  0.6989  0.2288
  182SLPC     P20822   4.511   7.192  10.861  0.4461  0.5256  0.0371
  182SLPC   O1320823   4.459   7.329  10.872 -0.3652  0.2522 -0.0321
  182SLPC   O1420824   4.656   7.182  10.882 -0.1054  0.0865  0.0972
  182SLPC   O1220825   4.436   7.106  10.969  0.4658  0.5308  0.2635
  182SLPC   O1120826   4.484   7.136  10.716 -0.5957  0.9316  0.1287
  182SLPC    C120827   4.350   7.169  10.664 -0.2056  0.1982  0.2011
  182SLPC    HA20828   4.295   7.073  10.650 -0.1158  0.2062 -0.2113
  182SLPC    HB20829   4.290   7.230  10.734  0.8493  1.3631  0.1007
  182SLPC    C220830   4.349   7.239  10.527 -0.2571  0.1084  0.7436
  182SLPC    HS20831   4.243   7.249  10.496 -0.4567 -0.9428  1.0587
  182SLPC   O2120832   4.417   7.148  10.436 -0.2406 -0.3236  0.1235
  182SLPC   C2120833   4.375   7.140  10.309  0.5512  0.3313  0.9877
  182SLPC   O2220834   4.282   7.202  10.265  0.3654 -0.3544 -0.2688
  182SLPC   C2220835   4.469   7.054  10.221 -0.2860  0.1504 -0.0201
  182SLPC   H2R20836   4.547   7.017  10.291 -0.7900 -1.5218 -0.3268
  182SLPC   H2S20837   4.409   6.965  10.194 -1.8674  1.0208  0.5600
  182SLPC    C320838   4.421   7.385  10.526  0.2853 -0.1481 -0.1914
  182SLPC    HX20839   4.530   7.383  10.548  0.8860  1.8919 -2.7589
  182SLPC    HY20840   4.368   7.444  10.603 -0.5350 -2.0205  0.6987
  182SLPC   O3120841   4.390   7.449  10.399  0.5777  0.3939 -0.2288
  182SLPC   C3120842   4.489   7.447  10.308  0.1917 -0.2005 -0.1310
  182SLPC   O3220843   4.591   7.379  10.315  0.6382 -0.3535  0.3464
  182SLPC   C3220844   4.461   7.535  10.187  0.7867  0.0717 -0.3051
  182SLPC   H2X20845   4.516   7.629  10.209 -0.0384  0.6649 -0.7295
  182SLPC   H2Y20846   4.354   7.563  10.192  1.0457  1.0380  0.0251
  182SLPC   C2320847   4.536   7.120  10.097 -0.7454 -0.0786 -0.5019
  182SLPC   H3R20848   4.619   7.188  10.128  3.3849 -4.8422 -0.5201
  182SLPC   H3S20849   4.462   7.181  10.041 -0.8476  1.2763  1.0666
  182SLPC   C2420850   4.602   7.005  10.007 -0.0541  0.0891  0.0925
  182SLPC   H4R20851   4.525   6.937   9.964  0.7332  0.0536 -1.3021
  182SLPC   H4S20852   4.664   6.944  10.076 -1.3981  0.4782  1.6678
  182SLPC   C2520853   4.664   7.081   9.896  0.3487  0.3596  0.7135
  182SLPC   H5R20854   4.711   7.174   9.935 -0.6294  0.7661  0.9284
  182SLPC   H5S20855   4.593   7.114   9.817  2.1882  1.0397 -0.7143
  182SLPC   C2620856   4.771   6.991   9.829  1.2790 -0.3176  0.3287
  182SLPC   H6R20857   4.719   6.896   9.805  2.2388 -0.3814 -1.6173
  182SLPC   H6S20858   4.854   6.963   9.898  0.5625  2.3305  2.3415
  182SLPC   C2720859   4.842   7.046   9.708  0.0308  0.0045  0.0395
  182SLPC   H7R20860   4.777   7.066   9.620 -0.6140  0.8796  0.6963
  182SLPC   H7S20861   4.921   6.974   9.678 -1.4771 -1.6235 -0.1081
  182SLPC   C2820862   4.915   7.175   9.749 -0.7299 -0.2559  0.4512
  182SLPC   H8R20863   4.972   7.146   9.840 -1.5169 -0.5007  0.8681
  182SLPC   H8S20864   4.844   7.255   9.777  0.4006  0.6764  0.6925
  182SLPC   C2920865   5.014   7.224   9.639  0.5095  0.2653 -0.1564
  182SLPC   H9R20866   5.117   7.232   9.678  0.4247  2.7495 -0.3750
  182SLPC  C21020867   4.996   7.238   9.506  0.5227 -0.0176  0.5282
  182SLPC  H10R20868   5.082   7.272   9.447  1.2438 -1.1588  0.9101
  182SLPC  C21120869   4.870   7.225   9.423 -0.2047 -0.2393  0.4172
  182SLPC  H11R20870   4.868   7.309   9.349  2.6828 -2.4942 -2.4141
  182SLPC  H11S20871   4.783   7.239   9.490 -1.4953  1.7468 -1.5896
  182SLPC  C21220872   4.852   7.107   9.331 -0.2413 -0.4612  0.2852
  182SLPC  H12R20873   4.772   7.038   9.362 -1.4930  0.3480 -1.1434
  182SLPC  C21320874   4.921   7.073   9.217 -0.0190  0.5670 -0.2589
  182SLPC  H13R20875   4.889   6.979   9.168 -0.5623 -0.0790  1.2991
  182SLPC  C21420876   5.044   7.142   9.167 -0.1451  0.3794  0.2658
  182SLPC  H14R20877   5.136   7.114   9.222 -1.3756 -0.1293  2.1017
  182SLPC  H14S20878   5.034   7.249   9.196  1.9890 -0.0616  2.7621
  182SLPC  C21520879   5.057   7.130   9.010  0.6261 -0.3803  0.4053
  182SLPC  H15R20880   5.149   7.189   8.990 -0.1591  0.9334  0.5577
  182SLPC  H15S20881   4.970   7.173   8.956 -1.2836 -1.8361  2.2503
  182SLPC  C21620882   5.090   6.988   8.958  0.2014  0.2033  0.0068
  182SLPC  H16R20883   5.023   6.907   8.995  0.6271 -0.7299 -1.2235
  182SLPC  H16S20884   5.179   6.968   9.022 -0.6699 -0.1190  1.1290
  182SLPC  C21720885   5.140   6.996   8.812 -0.6907  0.3465 -0.4636
  182SLPC  H17R20886   5.066   7.057   8.757 -0.2402  0.0069 -1.4680
  182SLPC  H17S20887   5.140   6.894   8.768 -1.4709  0.1307  0.0146
  182SLPC  C21820888   5.279   7.055   8.793 -0.2053 -0.5562  0.1068
  182SLPC  H18R20889   5.283   7.160   8.830 -3.4733 -0.5096  0.4187
  182SLPC  H18S20890   5.296   7.053   8.684 -2.6249  1.3940 -0.3343
  182SLPC  H18T20891   5.353   6.987   8.841  1.8151  0.5769 -1.3017
  182SLPC   C3320892   4.495   7.472  10.054 -0.7495  0.3627  0.0506
  182SLPC   H3X20893   4.429   7.383  10.043 -2.0066  1.4756 -1.7367
  182SLPC   H3Y20894   4.601   7.440  10.044 -1.2056 -1.1202 -0.1344
  182SLPC   C3420895   4.462   7.556   9.929  0.0580 -0.3541 -0.2848
  182SLPC   H4X20896   4.516   7.652   9.945  1.1688 -1.0608  0.2866
  182SLPC   H4Y20897   4.356   7.586   9.914  0.3497  0.2738 -1.1508
  182SLPC   C3520898   4.532   7.498   9.795 -0.3774 -0.7348  0.3397
  182SLPC   H5X20899   4.638   7.472   9.814 -0.3146 -1.6156 -1.1912
  182SLPC   H5Y20900   4.515   7.575   9.717 -1.5329 -0.2088  1.0904
  182SLPC   C3620901   4.469   7.363   9.754 -0.7501 -0.3424 -0.3076
  182SLPC   H6X20902   4.363   7.390   9.733  0.2204  2.2746 -2.0234
  182SLPC   H6Y20903   4.462   7.291   9.838 -0.2373  2.2046  1.9753
  182SLPC   C3720904   4.526   7.306   9.623 -0.2789  0.4452 -0.0933
  182SLPC   H7X20905   4.513   7.198   9.605 -1.9024  0.7911 -1.0656
  182SLPC   H7Y20906   4.635   7.313   9.647 -0.6647  1.5855  1.4275
  182SLPC   C3820907   4.498   7.391   9.497  0.3498 -0.2538  0.6183
  182SLPC   H8X20908   4.554   7.486   9.509  2.0192 -1.0441 -0.8300
  182SLPC   H8Y20909   4.392   7.424   9.503  0.2683 -0.9274  3.7576
  182SLPC   C3920910   4.546   7.334   9.358 -0.2377  0.2196 -0.5188
  182SLPC   H9X20911   4.545   7.224   9.344 -2.7563  0.0559  0.6597
  182SLPC   H9Y20912   4.648   7.378   9.352 -0.6933  1.5574  1.1252
  182SLPC  C31020913   4.476   7.386   9.231  0.2154  0.1569 -0.2409
  182SLPC  H10X20914   4.483   7.497   9.232  0.6438  0.1280 -0.3147
  182SLPC  H10Y20915   4.370   7.370   9.260 -0.0936  0.5426 -1.1423
  182SLPC  C31120916   4.524   7.322   9.102  0.0265  0.0934 -0.2100
  182SLPC  H11X20917   4.627   7.281   9.110  0.8225  2.2229  0.9294
  182SLPC  H11Y20918   4.541   7.402   9.026  1.8782  1.0942  1.2144
  182SLPC  C31220919   4.425   7.229   9.044 -0.3006 -0.5130  0.0752
  182SLPC  H12X20920   4.325   7.274   9.023 -0.0115 -0.5442 -1.4382
  182SLPC  H12Y20921   4.413   7.136   9.104 -0.1713 -0.3925  0.2873
  182SLPC  C31320922   4.472   7.167   8.909 -0.1396 -0.2953  0.1536
  182SLPC  H13X20923   4.504   7.257   8.853  0.5038 -1.0167 -0.6530
  182SLPC  H13Y20924   4.395   7.112   8.851 -1.4222  0.0888  1.4491
  182SLPC  C31420925   4.586   7.065   8.939 -0.2193  0.3352  0.5246
  182SLPC  H14X20926   4.535   6.976   8.982  0.2573  0.7353  1.9583
  182SLPC  H14Y20927   4.664   7.110   9.005  1.7413 -4.4988  1.7046
  182SLPC  C31520928   4.650   7.026   8.801 -0.3632 -0.2130 -0.1601
  182SLPC  H15X20929   4.697   7.117   8.757 -0.9139  0.8088  1.3087
  182SLPC  H15Y20930   4.568   6.999   8.731 -0.7423 -0.1629  0.2620
  182SLPC  C31620931   4.757   6.922   8.811 -0.4697  0.4923 -0.5017
  182SLPC  H16X20932   4.818   6.954   8.899 -3.1680  1.3892  1.1005
  182SLPC  H16Y20933   4.806   6.927   8.712  0.0283 -2.8567 -0.4539
  182SLPC  C31720934   4.703   6.777   8.823 -0.6428 -0.0496  0.0419
  182SLPC  H17X20935   4.618   6.754   8.756 -1.3987 -1.2812  1.3874
  182SLPC  H17Y20936   4.654   6.760   8.921 -0.7118 -1.9551 -0.2921
  182SLPC  C31820937   4.821   6.676   8.805 -0.0730  0.2762 -0.2552
  182SLPC  H18X20938   4.895   6.693   8.886 -0.1179 -0.0712 -0.1415
  182SLPC  H18Y20939   4.862   6.689   8.702 -2.8800 -1.4121 -1.6524
  182SLPC  H18Z20940   4.782   6.573   8.811 -2.9834  1.3869  0.4251
  183SLPC     N20941   6.337   1.351  11.057 -0.2246 -0.0150  0.2366
  183SLPC   C1320942   6.392   1.230  10.985 -0.1818  0.3346 -0.5984
  183SLPC  H13A20943   6.386   1.250  10.879  0.6843 -0.5543 -0.8235
  183SLPC  H13B20944   6.496   1.225  11.012  0.4766  2.9112 -2.5552
  183SLPC  H13C20945   6.344   1.135  11.007  0.4480  0.0288 -0.5469
  183SLPC   C1420946   6.412   1.472  11.000 -0.1586  0.6748  0.4040
  183SLPC  H14A20947   6.391   1.485  10.895 -0.4843 -2.2550  0.0635
  183SLPC  H14B20948   6.376   1.559  11.054 -1.1275  0.8617 -0.5208
  183SLPC  H14C20949   6.518   1.464  11.019 -0.5306 -1.7484  1.7187
  183SLPC   C1520950   6.366   1.332  11.205  0.5765  0.2776 -0.1666
  183SLPC  H15A20951   6.323   1.417  11.255 -2.8456 -1.0217 -0.8201
  183SLPC  H15B20952   6.309   1.249  11.246 -0.6747  0.4747 -1.4903
  183SLPC  H15C20953   6.472   1.323  11.226  0.5423 -1.8911 -0.7738
  183SLPC   C1220954   6.184   1.364  11.031  0.0918 -0.2407  1.1579
  183SLPC  H12A20955   6.141   1.265  11.021  0.1719 -0.0097 -1.9453
  183SLPC  H12B20956   6.164   1.407  10.934 -0.2305 -2.1107  0.3683
  183SLPC   C1120957   6.096   1.444  11.133 -0.2840 -0.0993  0.2467
  183SLPC  H11A20958   6.118   1.409  11.236  0.7871  1.7325  0.6655
  183SLPC  H11B20959   5.991   1.410  11.120  0.0311 -0.7014 -0.8083
  183SLPC     P20960   6.108   1.657  10.984  0.5246 -0.0823  0.1393
  183SLPC   O1320961   6.028   1.777  11.010 -0.4639  0.0365 -0.5443
  183SLPC   O1420962   6.233   1.691  10.921  0.4373 -0.5672 -0.4861
  183SLPC   O1220963   6.118   1.582  11.123 -0.5233 -0.1267 -0.5569
  183SLPC   O1120964   6.030   1.552  10.898  0.2909  0.2555 -0.8250
  183SLPC    C120965   6.005   1.575  10.758  0.1801  0.2264 -0.3770
  183SLPC    HA20966   5.908   1.522  10.741  0.2493 -0.4881  1.3723
  183SLPC    HB20967   5.980   1.680  10.731 -0.0142 -0.2017 -1.8688
  183SLPC    C220968   6.083   1.506  10.642 -0.6608  0.0060  0.4438
  183SLPC    HS20969   6.018   1.489  10.553  2.4570  0.7731 -2.0586
  183SLPC   O2120970   6.131   1.375  10.672  0.3148 -0.8125 -0.0137
  183SLPC   C2120971   6.141   1.288  10.574 -0.1335 -0.3484 -0.1355
  183SLPC   O2220972   6.109   1.305  10.457  0.2997  0.2378 -0.0412
  183SLPC   C2220973   6.246   1.193  10.628  0.4744  0.0354 -0.0916
  183SLPC   H2R20974   6.351   1.230  10.635  0.6759 -0.3500 -0.9312
  183SLPC   H2S20975   6.211   1.157  10.727 -1.3780  2.0274  0.0024
  183SLPC    C320976   6.210   1.595  10.605  0.3508  0.3598 -0.2839
  183SLPC    HX20977   6.282   1.589  10.689  0.2422  0.1767 -0.2036
  183SLPC    HY20978   6.176   1.700  10.590 -0.6441 -0.0021 -0.6291
  183SLPC   O3120979   6.279   1.553  10.486  0.1803  0.1974 -0.2542
  183SLPC   C3120980   6.213   1.584  10.372  0.2792  0.9637 -0.9681
  183SLPC   O3220981   6.105   1.633  10.359 -0.5677  0.2077 -0.1494
  183SLPC   C3220982   6.313   1.546  10.263  0.0939 -0.6779 -0.2097
  183SLPC   H2X20983   6.310   1.435  10.265 -1.7877 -0.6297  0.0078
  183SLPC   H2Y20984   6.403   1.604  10.291  1.6945 -2.9489 -0.5037
  183SLPC   C2320985   6.262   1.070  10.539 -0.2935 -0.6164 -0.3376
  183SLPC   H3R20986   6.163   1.025  10.516  0.2964 -0.9950 -2.2513
  183SLPC   H3S20987   6.306   0.985  10.596  1.5214  1.2118  1.0422
  183SLPC   C2420988   6.332   1.078  10.401  0.1825 -0.6942 -0.5380
  183SLPC   H4R20989   6.270   1.137  10.330  0.6161 -0.3552 -0.6377
  183SLPC   H4S20990   6.344   0.977  10.355  3.1615 -0.8703  0.5574
  183SLPC   C2520991   6.475   1.142  10.402 -0.0586 -0.2353 -0.3976
  183SLPC   H5R20992   6.536   1.088  10.477  0.5712  0.4740 -0.3963
  183SLPC   H5S20993   6.466   1.247  10.436  3.5415 -0.3793  1.2095
  183SLPC   C2620994   6.541   1.144  10.262  0.5187  0.9783 -0.2362
  183SLPC   H6R20995   6.563   1.037  10.243  3.5018  1.2889  1.2020
  183SLPC   H6S20996   6.644   1.185  10.276  1.2433 -0.4876 -1.1866
  183SLPC   C2720997   6.461   1.206  10.153 -0.1093  0.0106  0.2511
  183SLPC   H7R20998   6.458   1.317  10.155 -2.4994 -0.0208  0.9185
  183SLPC   H7S20999   6.360   1.161  10.162  0.0899 -0.8702 -1.6631
  183SLPC   C2821000   6.511   1.185   9.999  0.3782  0.4365  0.2768
  183SLPC   H8R21001   6.538   1.078   9.989  0.7184  0.5435  0.0753
  183SLPC   H8S21002   6.602   1.248   9.991  1.0458 -0.3801  1.2780
  183SLPC   C2921003   6.403   1.215   9.897 -0.3751  0.3776 -0.4023
  183SLPC   H9R21004   6.306   1.250   9.935 -0.0554  1.0079 -0.1708
  183SLPC  C21021005   6.423   1.197   9.767  0.1441  0.0023 -0.5881
  183SLPC  H10R21006   6.343   1.215   9.694 -0.9028 -0.5656  0.3926
  183SLPC  C21121007   6.549   1.142   9.701 -0.2237  0.1547 -0.2662
  183SLPC  H11R21008   6.524   1.042   9.659 -2.2764  0.2659  0.6208
  183SLPC  H11S21009   6.627   1.116   9.776 -0.3222  0.8651  0.0829
  183SLPC  C21221010   6.595   1.235   9.597  0.1383 -0.0531  0.4337
  183SLPC  H12R21011   6.656   1.319   9.633  2.2814  0.2956 -3.6596
  183SLPC  C21321012   6.603   1.225   9.462 -0.0061 -0.0471 -0.7023
  183SLPC  H13R21013   6.646   1.307   9.403  0.5841  0.8581  0.9521
  183SLPC  C21421014   6.554   1.109   9.388  0.1886  0.1148  0.4377
  183SLPC  H14R21015   6.460   1.134   9.335  1.1117  3.8505  0.4123
  183SLPC  H14S21016   6.530   1.020   9.451 -1.8426  1.3777  1.5028
  183SLPC  C21521017   6.644   1.053   9.277 -0.4488  0.8455 -0.1656
  183SLPC  H15R21018   6.679   1.140   9.218 -0.4871  0.0126 -1.4223
  183SLPC  H15S21019   6.579   0.986   9.217  0.5641  0.5807 -0.9904
  183SLPC  C21621020   6.783   0.992   9.310  0.1235 -0.2832 -0.1217
  183SLPC  H16R21021   6.768   0.918   9.392 -1.4378  0.0463 -0.0923
  183SLPC  H16S21022   6.846   1.072   9.353 -1.6457  1.1694 -0.1996
  183SLPC  C21721023   6.846   0.934   9.187  0.4767 -0.0276  0.6932
  183SLPC  H17R21024   6.800   0.833   9.174  1.9647 -0.5725 -0.5573
  183SLPC  H17S21025   6.954   0.915   9.208  0.6409  0.1372  0.0269
  183SLPC  C21821026   6.845   1.012   9.057 -0.1500 -0.0662 -0.0327
  183SLPC  H18R21027   6.750   1.056   9.020  0.5610 -0.4062 -2.3621
  183SLPC  H18S21028   6.876   0.942   8.976 -0.3951 -2.3775  1.7966
  183SLPC  H18T21029   6.917   1.094   9.075  1.8306 -1.5088 -1.1562
  183SLPC   C3321030   6.260   1.599  10.129  0.1936  0.0487 -0.8903
  183SLPC   H3X21031   6.269   1.709  10.116 -1.7537  0.3603  0.1726
  183SLPC   H3Y21032   6.151   1.593  10.107  0.3982 -0.3836 -1.8438
  183SLPC   C3421033   6.330   1.539  10.008  0.1704  0.1368  1.2929
  183SLPC   H4X21034   6.282   1.441   9.989 -2.0065  1.5389 -0.6992
  183SLPC   H4Y21035   6.435   1.518  10.038  0.5816  1.8155  1.0915
  183SLPC   C3521036   6.333   1.634   9.892 -0.0984 -0.3179 -0.4724
  183SLPC   H5X21037   6.391   1.726   9.919 -0.9799  0.2279 -0.4150
  183SLPC   H5Y21038   6.232   1.668   9.861 -1.0145  0.0149  2.7231
  183SLPC   C3621039   6.390   1.570   9.764 -1.1572 -0.1934  0.6746
  183SLPC   H6X21040   6.328   1.485   9.730  0.3437 -0.4666 -1.5125
  183SLPC   H6Y21041   6.492   1.530   9.786 -0.7319 -0.2440 -1.3578
  183SLPC   C3721042   6.398   1.669   9.645  0.5452 -0.1821  0.0165
  183SLPC   H7X21043   6.416   1.775   9.674 -0.9446  0.6950 -2.1063
  183SLPC   H7Y21044   6.290   1.680   9.621  0.2685 -0.6773  1.0088
  183SLPC   C3821045   6.487   1.625   9.535 -1.2920  0.5751 -0.2459
  183SLPC   H8X21046   6.493   1.515   9.549 -1.1423  0.8862  2.4610
  183SLPC   H8Y21047   6.588   1.671   9.538 -0.8864 -0.3145 -0.2003
  183SLPC   C3921048   6.438   1.660   9.395 -0.3315 -0.8155  0.8091
  183SLPC   H9X21049   6.428   1.771   9.395  1.4124 -0.6473  1.2467
  183SLPC   H9Y21050   6.337   1.617   9.378 -0.5936  0.9047 -2.3565
  183SLPC  C31021051   6.526   1.601   9.277 -0.3450  0.0910 -0.5937
  183SLPC  H10X21052   6.535   1.495   9.307  1.1309  0.8503  1.7668
  183SLPC  H10Y21053   6.621   1.658   9.285  1.0172 -2.0572 -1.1599
  183SLPC  C31121054   6.460   1.600   9.133  0.5708 -0.1143 -0.0796
  183SLPC  H11X21055   6.447   1.706   9.102 -1.2418 -0.2710  0.1113
  183SLPC  H11Y21056   6.360   1.553   9.127  1.1427 -1.2784 -0.6650
  183SLPC  C31221057   6.547   1.533   9.031  0.1321  0.2955  1.1011
  183SLPC  H12X21058   6.555   1.424   9.052  1.0263  0.0369 -0.4690
  183SLPC  H12Y21059   6.647   1.582   9.026 -0.2004  1.1789  3.0077
  183SLPC  C31321060   6.505   1.544   8.881  0.4030  0.0405 -0.3753
  183SLPC  H13X21061   6.602   1.522   8.830  0.5379 -0.3987  0.0638
  183SLPC  H13Y21062   6.478   1.650   8.865  2.2831  0.6624  0.4551
  183SLPC  C31421063   6.395   1.453   8.835 -0.1797 -0.0858  0.2840
  183SLPC  H14X21064   6.298   1.480   8.884 -0.6939 -0.2298 -0.6327
  183SLPC  H14Y21065   6.435   1.351   8.857  1.6580 -0.1455 -3.0377
  183SLPC  C31521066   6.363   1.466   8.680  0.4347 -0.5067 -0.6225
  183SLPC  H15X21067   6.384   1.567   8.638  2.3317  0.1187  1.7184
  183SLPC  H15Y21068   6.258   1.438   8.660  0.0426  0.5399 -0.0447
  183SLPC  C31621069   6.440   1.364   8.589  0.4725  0.0337 -0.6547
  183SLPC  H16X21070   6.416   1.261   8.623  1.5706 -0.5727 -1.6958
  183SLPC  H16Y21071   6.549   1.379   8.602 -0.1931  2.0232  3.1077
  183SLPC  C31721072   6.410   1.367   8.441  0.3554 -0.9453  0.2287
  183SLPC  H17X21073   6.456   1.277   8.395  0.6909 -0.2370 -0.8361
  183SLPC  H17Y21074   6.461   1.460   8.410 -0.2147 -0.3897  0.9331
  183SLPC  C31821075   6.262   1.376   8.392 -0.4270  0.0082 -0.3248
  183SLPC  H18X21076   6.209   1.290   8.437  0.7116 -0.2563  0.5318
  183SLPC  H18Y21077   6.247   1.377   8.282  2.5797  1.2569 -0.7792
  183SLPC  H18Z21078   6.208   1.463   8.436  0.0615  0.2924 -0.2761
  184SLPC     N21079   1.134   5.983  10.624  0.6218  0.4382 -0.7007
  184SLPC   C1321080   1.245   6.044  10.683 -0.9934  0.2213  0.1333
  184SLPC  H13A21081   1.313   5.980  10.738 -0.2946  1.5951  0.8673
  184SLPC  H13B21082   1.303   6.089  10.603 -1.5761  0.6424 -0.0562
  184SLPC  H13C21083   1.220   6.122  10.753  0.4796  0.9662 -0.1506
  184SLPC   C1421084   1.035   6.072  10.552 -0.4140 -0.0746  0.0735
  184SLPC  H14A21085   0.939   6.023  10.545 -0.4657  0.2578 -1.7128
  184SLPC  H14B21086   1.021   6.158  10.615 -2.3373 -0.4871  0.2367
  184SLPC  H14C21087   1.071   6.098  10.454 -1.1076  0.7281  0.0294
  184SLPC   C1521088   1.049   5.933  10.740 -0.1578  0.9648  0.1629
  184SLPC  H15A21089   1.094   5.850  10.792 -1.2766 -0.0158 -0.4022
  184SLPC  H15B21090   1.039   6.008  10.817 -0.6259  1.2314 -0.1542
  184SLPC  H15C21091   0.951   5.902  10.706  0.8499 -2.8018  0.4286
  184SLPC   C1221092   1.185   5.863  10.535  0.0372  0.3667 -0.5018
  184SLPC  H12A21093   1.246   5.805  10.603 -2.0161 -0.8527  0.3293
  184SLPC  H12B21094   1.260   5.904  10.469  0.2551 -0.5407 -0.8170
  184SLPC   C1121095   1.086   5.772  10.458 -0.1618 -0.2313 -0.1068
  184SLPC  H11A21096   1.146   5.691  10.411 -0.4512 -0.9628  0.7745
  184SLPC  H11B21097   1.049   5.837  10.375 -0.6755 -1.0713 -0.5348
  184SLPC     P21098   0.828   5.738  10.538  0.0869 -0.2383  0.1871
  184SLPC   O1321099   0.767   5.648  10.642  0.2823  0.1431 -0.3812
  184SLPC   O1421100   0.811   5.882  10.559  0.3902 -0.5144  0.2719
  184SLPC   O1221101   0.978   5.702  10.524 -0.1440 -0.7702 -0.3701
  184SLPC   O1121102   0.781   5.706  10.392 -0.0771  0.8722 -0.3409
  184SLPC    C121103   0.823   5.585  10.326 -0.5925  0.1595 -0.6040
  184SLPC    HA21104   0.930   5.566  10.352 -1.3074  0.3982  2.7421
  184SLPC    HB21105   0.762   5.505  10.373 -2.3752  1.4294 -0.7302
  184SLPC    C221106   0.815   5.583  10.165 -0.0381  1.1291 -0.6584
  184SLPC    HS21107   0.853   5.486  10.126 -0.8416  0.2976  0.5880
  184SLPC   O2121108   0.893   5.697  10.126  0.0227  0.5276 -0.4962
  184SLPC   C2121109   1.023   5.677  10.105 -0.0674 -0.0011 -0.6064
  184SLPC   O2221110   1.077   5.568  10.117  0.3744  0.3793 -0.0834
  184SLPC   C2221111   1.096   5.810  10.079  0.2920  0.3698 -0.7106
  184SLPC   H2R21112   1.051   5.893  10.136  1.8004  1.3713 -0.9564
  184SLPC   H2S21113   1.201   5.803  10.117  0.2180 -1.4699 -0.7790
  184SLPC    C321114   0.663   5.605  10.124 -0.4438  0.1101 -0.0534
  184SLPC    HX21115   0.648   5.715  10.129 -1.6076 -0.0760  1.0046
  184SLPC    HY21116   0.614   5.549  10.207 -1.0208  1.3168  0.4293
  184SLPC   O3121117   0.634   5.534   9.998  0.2966  0.4668 -0.3135
  184SLPC   C3121118   0.665   5.609   9.892 -0.2358  0.1962 -0.6307
  184SLPC   O3221119   0.707   5.725   9.893  0.2659  0.3778  0.1452
  184SLPC   C3221120   0.633   5.533   9.768  0.0682  0.4895 -0.5728
  184SLPC   H2X21121   0.531   5.489   9.776  0.8164 -1.7010 -2.5140
  184SLPC   H2Y21122   0.687   5.436   9.763 -2.5460 -1.0973  0.8189
  184SLPC   C2321123   1.111   5.854   9.933  0.6397  0.0297 -0.7306
  184SLPC   H3R21124   1.139   5.961   9.939  3.4728 -0.8070  2.4929
  184SLPC   H3S21125   1.010   5.861   9.886  0.5806  1.4954 -0.4015
  184SLPC   C2421126   1.216   5.781   9.849  0.7648 -0.3170 -0.7260
  184SLPC   H4R21127   1.201   5.671   9.859  3.5253 -0.6525  0.3222
  184SLPC   H4S21128   1.314   5.818   9.885 -0.6046  0.0767  2.8126
  184SLPC   C2521129   1.199   5.820   9.696 -0.1050 -0.1430  0.3872
  184SLPC   H5R21130   1.234   5.926   9.687 -1.3464  0.3186  0.8575
  184SLPC   H5S21131   1.097   5.804   9.657 -0.5398 -0.6046  1.6930
  184SLPC   C2621132   1.292   5.741   9.601 -0.3949 -0.2435 -0.2643
  184SLPC   H6R21133   1.399   5.733   9.630 -0.4540  1.7186  0.6191
  184SLPC   H6S21134   1.284   5.783   9.498  1.1848  0.3138 -0.1784
  184SLPC   C2721135   1.253   5.593   9.592  0.2827 -0.4094 -0.3440
  184SLPC   H7R21136   1.144   5.589   9.571  0.4873 -0.0440 -1.5061
  184SLPC   H7S21137   1.264   5.552   9.695  0.8109 -1.8146 -0.9419
  184SLPC   C2821138   1.337   5.523   9.481  0.2102 -0.9029 -0.4723
  184SLPC   H8R21139   1.298   5.532   9.377  2.4747  0.1658 -1.2678
  184SLPC   H8S21140   1.305   5.417   9.490  0.2509 -0.7924  1.1272
  184SLPC   C2921141   1.485   5.521   9.493 -0.1474 -0.4349  0.4187
  184SLPC   H9R21142   1.525   5.543   9.593 -2.7850  3.1812  0.7843
  184SLPC  C21021143   1.569   5.528   9.388 -0.4697  0.0695  0.2884
  184SLPC  H10R21144   1.676   5.526   9.413 -1.0933 -0.0783  3.0315
  184SLPC  C21121145   1.536   5.537   9.243  0.0750  0.4435 -0.2479
  184SLPC  H11R21146   1.497   5.639   9.226 -1.2793 -0.4265 -2.5278
  184SLPC  H11S21147   1.445   5.478   9.219  1.8717 -1.5701 -2.4811
  184SLPC  C21221148   1.657   5.495   9.159  0.6067 -0.3547  0.3354
  184SLPC  H12R21149   1.743   5.454   9.215 -0.7770 -2.9037  0.6776
  184SLPC  C21321150   1.654   5.476   9.022 -0.7446  0.5711 -0.1731
  184SLPC  H13R21151   1.752   5.450   8.978 -0.5142 -0.4307  0.9292
  184SLPC  C21421152   1.536   5.492   8.923 -0.4288  0.0393 -0.0039
  184SLPC  H14R21153   1.572   5.558   8.842  0.6796 -1.1744 -0.5168
  184SLPC  H14S21154   1.452   5.541   8.976 -0.4695 -0.3918  0.3354
  184SLPC  C21521155   1.484   5.354   8.878  0.3927 -0.2171 -0.4308
  184SLPC  H15R21156   1.386   5.370   8.828 -1.0225  1.0756  2.5860
  184SLPC  H15S21157   1.455   5.291   8.965  2.0774  0.7824  0.8737
  184SLPC  C21621158   1.586   5.281   8.796 -0.6630 -0.1035 -0.4580
  184SLPC  H16R21159   1.650   5.226   8.869 -1.7230 -0.8088 -0.0529
  184SLPC  H16S21160   1.647   5.342   8.726  1.3264 -0.8569  0.5546
  184SLPC  C21721161   1.520   5.180   8.699  0.3418  0.8491 -0.1518
  184SLPC  H17R21162   1.476   5.095   8.756  0.4451  1.2732  0.5744
  184SLPC  H17S21163   1.593   5.142   8.625 -0.0547 -0.8591  0.3223
  184SLPC  C21821164   1.411   5.236   8.607 -0.6598  0.0068  0.3944
  184SLPC  H18R21165   1.315   5.266   8.655  0.6548  2.0978  1.8291
  184SLPC  H18S21166   1.377   5.172   8.523 -3.5599 -0.5620  1.9269
  184SLPC  H18T21167   1.438   5.332   8.558 -2.4800  0.1691 -0.3277
  184SLPC   C3321168   0.662   5.608   9.634 -0.6424 -0.2332 -0.6199
  184SLPC   H3X21169   0.766   5.644   9.626 -0.8253  0.8755  1.5541
  184SLPC   H3Y21170   0.602   5.702   9.630  0.4036  0.4875  0.3205
  184SLPC   C3421171   0.619   5.531   9.504 -0.1563 -0.1366 -0.4064
  184SLPC   H4X21172   0.638   5.602   9.420 -0.6780  1.2112  0.5877
  184SLPC   H4Y21173   0.510   5.510   9.506  0.1120 -1.4821  1.6619
  184SLPC   C3521174   0.688   5.392   9.480  0.3202 -0.0207 -0.1492
  184SLPC   H5X21175   0.643   5.321   9.407 -1.5959  0.4974  0.4841
  184SLPC   H5Y21176   0.661   5.335   9.572  0.8057  0.2603  0.1666
  184SLPC   C3621177   0.843   5.403   9.453  0.3262  0.4003  0.2718
  184SLPC   H6X21178   0.902   5.457   9.530 -3.9831  2.2161  2.4329
  184SLPC   H6Y21179   0.848   5.472   9.365  1.2623  0.3970  0.3173
  184SLPC   C3721180   0.915   5.273   9.403  0.4417 -0.1404 -0.3808
  184SLPC   H7X21181   1.017   5.305   9.373 -0.6424  4.1525  0.1786
  184SLPC   H7Y21182   0.870   5.236   9.309 -0.1955 -0.2064 -0.0489
  184SLPC   C3821183   0.908   5.150   9.504 -0.6336  0.2132  0.1579
  184SLPC   H8X21184   0.984   5.081   9.462  0.6842  1.7921 -0.1376
  184SLPC   H8Y21185   0.806   5.109   9.493 -0.5317 -0.1239  0.4414
  184SLPC   C3921186   0.945   5.185   9.650  0.1462  0.0378  0.7015
  184SLPC   H9X21187   0.872   5.263   9.681  1.3461  1.7231 -0.6025
  184SLPC   H9Y21188   1.043   5.238   9.653 -0.7707  1.7614  0.6448
  184SLPC  C31021189   0.949   5.061   9.734  0.0383 -0.2871  0.3246
  184SLPC  H10X21190   1.000   5.092   9.828  1.6268 -2.0335  0.0722
  184SLPC  H10Y21191   1.014   4.986   9.685  2.1870  2.0251 -0.4808
  184SLPC  C31121192   0.813   5.001   9.776 -0.3476  0.6674  0.3149
  184SLPC  H11X21193   0.839   4.916   9.842 -0.2250  1.4880  1.3403
  184SLPC  H11Y21194   0.758   4.949   9.695 -0.7917 -1.9256  2.2089
  184SLPC  C31221195   0.713   5.094   9.860  0.3265 -0.6920 -0.6704
  184SLPC  H12X21196   0.669   5.160   9.783  0.1992 -0.2042 -0.1803
  184SLPC  H12Y21197   0.778   5.153   9.928 -1.0659  0.5121 -0.3544
  184SLPC  C31321198   0.603   5.023   9.938  0.1643  0.3405 -0.0880
  184SLPC  H13X21199   0.640   4.981  10.034  2.4597  1.6683 -0.3557
  184SLPC  H13Y21200   0.572   4.938   9.873  0.7707 -1.4255  1.8891
  184SLPC  C31421201   0.475   5.114   9.963 -1.1690 -0.4216 -0.3036
  184SLPC  H14X21202   0.505   5.218   9.989  0.3125 -0.2095 -2.7064
  184SLPC  H14Y21203   0.424   5.074  10.053  0.4245 -0.2023  0.7149
  184SLPC  C31521204   0.383   5.126   9.842 -0.4665 -0.4226  0.0737
  184SLPC  H15X21205   0.355   5.023   9.809  0.9267 -1.3773  1.7952
  184SLPC  H15Y21206   0.443   5.178   9.764 -0.4101 -0.6744 -0.0520
  184SLPC  C31621207   0.250   5.196   9.869  0.0647  0.3393  0.1725
  184SLPC  H16X21208   0.275   5.289   9.924  0.7341  0.7684 -0.8480
  184SLPC  H16Y21209   0.188   5.125   9.927  2.4619 -1.5369  0.4770
  184SLPC  C31721210   0.173   5.228   9.739 -0.5476 -0.2953 -0.3431
  184SLPC  H17X21211   0.071   5.255   9.772  0.0715  0.6375  0.8550
  184SLPC  H17Y21212   0.173   5.132   9.683  0.8118 -0.2188 -0.5017
  184SLPC  C31821213   0.229   5.340   9.649  0.1153 -0.6956  0.5133
  184SLPC  H18X21214   0.159   5.363   9.566  1.6111 -0.5496 -0.7345
  184SLPC  H18Y21215   0.326   5.310   9.605  1.1848 -1.3226  3.1669
  184SLPC  H18Z21216   0.255   5.430   9.708  0.8235 -0.3787 -0.2773
  185SLPC     N21217   5.620   2.265   6.004  0.1591 -0.5119 -0.7049
  185SLPC   C1321218   5.531   2.346   5.921 -0.3499 -0.9616  0.0500
  185SLPC  H13A21219   5.430   2.308   5.923 -1.1694  1.0830 -0.8952
  185SLPC  H13B21220   5.527   2.448   5.958 -1.6072 -0.4401 -1.4509
  185SLPC  H13C21221   5.570   2.364   5.822  2.6201 -1.0667  1.1383
  185SLPC   C1421222   5.758   2.323   6.002 -1.0452  0.8988 -0.0187
  185SLPC  H14A21223   5.803   2.304   5.906  0.3518 -1.4192  1.0509
  185SLPC  H14B21224   5.751   2.428   6.024  1.1589  1.6319 -2.6185
  185SLPC  H14C21225   5.827   2.286   6.076 -0.0459 -1.3984 -2.0165
  185SLPC   C1521226   5.624   2.127   5.944 -0.4452 -0.2905  0.1927
  185SLPC  H15A21227   5.652   2.132   5.840 -0.6119 -1.0624  0.1079
  185SLPC  H15B21228   5.686   2.059   6.001 -1.0778  0.1005  1.3720
  185SLPC  H15C21229   5.525   2.084   5.950  0.0199 -1.4348 -0.1696
  185SLPC   C1221230   5.563   2.260   6.142 -0.1381 -0.8471  0.3735
  185SLPC  H12A21231   5.461   2.225   6.154 -0.0055 -1.4890 -0.3397
  185SLPC  H12B21232   5.560   2.363   6.173  2.5505 -1.0397  1.3794
  185SLPC   C1121233   5.653   2.196   6.250 -0.0493 -1.1056 -0.2330
  185SLPC  H11A21234   5.692   2.101   6.208  1.2409 -2.0472  3.0044
  185SLPC  H11B21235   5.584   2.172   6.334 -3.1047 -3.0308 -3.1552
  185SLPC     P21236   5.894   2.235   6.322 -0.4233 -0.5341  0.3017
  185SLPC   O1321237   5.881   2.098   6.374 -0.0800  0.6604  0.4782
  185SLPC   O1421238   5.970   2.256   6.203  0.3114 -0.4174  0.5377
  185SLPC   O1221239   5.746   2.288   6.294  0.3147  0.8693  0.2498
  185SLPC   O1121240   5.947   2.326   6.436  0.7823  0.3066 -0.4305
  185SLPC    C121241   5.911   2.467   6.457 -0.0050  0.0615 -0.1704
  185SLPC    HA21242   6.006   2.523   6.475  0.1499 -0.7476  1.7290
  185SLPC    HB21243   5.860   2.516   6.372 -0.2690  1.0604  0.5405
  185SLPC    C221244   5.831   2.477   6.595  0.2848  0.3711  0.0165
  185SLPC    HS21245   5.790   2.580   6.598 -0.8832 -0.0676 -0.7622
  185SLPC   O2121246   5.925   2.460   6.709  0.4291  0.0216  0.1105
  185SLPC   C2121247   5.979   2.563   6.757 -0.0792  1.0186  0.1864
  185SLPC   O2221248   5.962   2.675   6.715  0.5676  0.0962 -0.1731
  185SLPC   C2221249   6.083   2.508   6.862 -0.9797 -0.6462 -0.0890
  185SLPC   H2R21250   6.052   2.411   6.906  1.2374 -0.9178  0.9255
  185SLPC   H2S21251   6.179   2.478   6.815 -2.5082 -2.5173 -2.1364
  185SLPC    C321252   5.699   2.384   6.594 -0.1855  0.2726 -0.1394
  185SLPC    HX21253   5.741   2.282   6.580 -0.2420  0.2994 -0.5262
  185SLPC    HY21254   5.635   2.414   6.508 -0.4138  4.7986  1.4453
  185SLPC   O3121255   5.635   2.393   6.724  0.1130 -0.1699  1.0987
  185SLPC   C3121256   5.557   2.498   6.752 -0.4261 -0.0665  0.2903
  185SLPC   O3221257   5.525   2.589   6.672  0.5780  0.2390 -0.5650
  185SLPC   C3221258   5.506   2.491   6.895  0.0480 -0.6322  0.1213
  185SLPC   H2X21259   5.489   2.385   6.923 -0.3752 -0.3354  0.9896
  185SLPC   H2Y21260   5.405   2.535   6.902  0.6606  0.7397  0.4599
  185SLPC   C2321261   6.117   2.604   6.973 -0.3737 -0.1153 -0.3867
  185SLPC   H3R21262   6.031   2.648   7.028 -1.3421  2.0835 -3.5157
  185SLPC   H3S21263   6.187   2.684   6.939  0.0496  0.3461  1.5401
  185SLPC   C2421264   6.200   2.541   7.083 -0.4703  1.0920 -0.4609
  185SLPC   H4R21265   6.263   2.608   7.146 -0.9864  0.5903  0.6021
  185SLPC   H4S21266   6.276   2.475   7.035 -2.6504 -0.1084 -2.3654
  185SLPC   C2521267   6.120   2.467   7.192  0.3184  1.0823 -0.0295
  185SLPC   H5R21268   6.038   2.416   7.138  1.4851  0.6134 -1.4082
  185SLPC   H5S21269   6.082   2.541   7.266  0.1202 -0.4193  1.3967
  185SLPC   C2621270   6.198   2.363   7.272  0.2613  0.7494 -0.1894
  185SLPC   H6R21271   6.291   2.404   7.316  2.2368 -2.5673 -1.1243
  185SLPC   H6S21272   6.210   2.276   7.203 -1.5136 -0.5572  1.0889
  185SLPC   C2721273   6.106   2.309   7.380  0.2190 -0.1719  0.2292
  185SLPC   H7R21274   6.004   2.294   7.339  0.6390  0.7385 -1.2043
  185SLPC   H7S21275   6.097   2.387   7.459  2.7708 -1.0197  1.4046
  185SLPC   C2821276   6.134   2.169   7.433 -0.1519  0.6981  1.0956
  185SLPC   H8R21277   6.125   2.086   7.361 -1.0426  0.7978  1.0907
  185SLPC   H8S21278   6.054   2.149   7.508 -0.9635  2.2848  0.6836
  185SLPC   C2921279   6.279   2.160   7.498  1.2042 -0.0055  0.2014
  185SLPC   H9R21280   6.359   2.161   7.423  0.1138  2.6579 -0.9770
  185SLPC  C21021281   6.311   2.162   7.628 -0.0638 -0.0564  0.4251
  185SLPC  H10R21282   6.416   2.167   7.662 -0.7557  0.8424  2.5466
  185SLPC  C21121283   6.213   2.171   7.743 -0.1758 -0.4921 -0.7078
  185SLPC  H11R21284   6.242   2.089   7.812  0.5632  1.4144  1.3153
  185SLPC  H11S21285   6.114   2.139   7.705 -0.1279 -1.1424 -0.2814
  185SLPC  C21221286   6.209   2.303   7.820 -0.0035 -1.2261  0.5594
  185SLPC  H12R21287   6.154   2.386   7.774  0.7567 -0.7414  0.5247
  185SLPC  C21321288   6.254   2.327   7.941  0.4460  0.2700 -0.1114
  185SLPC  H13R21289   6.238   2.426   7.987  1.5366 -0.0343  0.9663
  185SLPC  C21421290   6.315   2.219   8.029 -0.3366  0.1808 -0.5544
  185SLPC  H14R21291   6.410   2.186   7.981  0.5151 -0.0242  1.2227
  185SLPC  H14S21292   6.257   2.127   8.049  0.2085 -0.0684 -0.0705
  185SLPC  C21521293   6.343   2.278   8.171  0.4401 -0.0978  0.4112
  185SLPC  H15R21294   6.386   2.379   8.164 -0.6839  0.4609  1.3566
  185SLPC  H15S21295   6.413   2.217   8.232  0.6126  1.0537  1.3802
  185SLPC  C21621296   6.204   2.289   8.257 -0.7968 -1.0293  0.3841
  185SLPC  H16R21297   6.124   2.300   8.180 -2.0120 -0.2689  1.7394
  185SLPC  H16S21298   6.217   2.379   8.320 -1.5488 -0.8008  0.2246
  185SLPC  C21721299   6.189   2.173   8.358 -0.1479 -0.4863  0.0226
  185SLPC  H17R21300   6.268   2.178   8.436 -0.5679 -1.8779  0.5713
  185SLPC  H17S21301   6.209   2.079   8.301 -3.2830  0.4151 -2.7068
  185SLPC  C21821302   6.058   2.165   8.429  0.6794 -0.1969  0.2108
  185SLPC  H18R21303   6.054   2.248   8.502  3.9898 -1.1095  1.5207
  185SLPC  H18S21304   6.036   2.074   8.489  1.5434 -1.3459 -1.1843
  185SLPC  H18T21305   5.983   2.179   8.348 -0.2997 -4.6872  0.1973
  185SLPC   C3321306   5.610   2.562   6.979  0.7521 -0.2288 -0.7473
  185SLPC   H3X21307   5.717   2.549   6.950  0.9295 -2.5254  0.8723
  185SLPC   H3Y21308   5.586   2.528   7.082  1.8047  0.0509 -0.3952
  185SLPC   C3421309   5.588   2.717   6.973  0.2995 -0.2469 -0.4130
  185SLPC   H4X21310   5.496   2.737   7.032  0.4862  2.5006 -0.9769
  185SLPC   H4Y21311   5.570   2.747   6.868 -2.2249  1.4122  0.4312
  185SLPC   C3521312   5.711   2.784   7.026 -0.4887 -0.5035 -0.0253
  185SLPC   H5X21313   5.700   2.894   7.020  0.1957 -0.2220  3.1687
  185SLPC   H5Y21314   5.801   2.754   6.968  1.2654  0.7438  2.0241
  185SLPC   C3621315   5.735   2.765   7.176 -0.6617  0.6589  0.5382
  185SLPC   H6X21316   5.793   2.674   7.205 -0.7728 -0.3570 -2.3123
  185SLPC   H6Y21317   5.638   2.759   7.230 -0.4371  0.0863  0.8905
  185SLPC   C3721318   5.810   2.889   7.227 -0.4253 -0.2312 -0.5527
  185SLPC   H7X21319   5.800   2.902   7.337  1.0170 -1.1574 -0.3082
  185SLPC   H7Y21320   5.762   2.978   7.180 -0.8535 -0.1312  0.0591
  185SLPC   C3821321   5.964   2.893   7.208 -0.3331  0.2352  0.4021
  185SLPC   H8X21322   5.979   2.874   7.100 -1.5492 -0.2348  0.2981
  185SLPC   H8Y21323   6.005   2.810   7.271  3.4843  1.3400 -0.5256
  185SLPC   C3921324   6.030   3.025   7.253 -0.3242  0.3444 -0.3523
  185SLPC   H9X21325   6.001   3.114   7.194  0.7602  0.2742 -1.0107
  185SLPC   H9Y21326   6.137   3.004   7.231 -0.2889 -0.6649  0.6781
  185SLPC  C31021327   6.021   3.050   7.401 -0.3468 -0.8747  0.8415
  185SLPC  H10X21328   6.032   2.951   7.450 -1.0213 -1.4508 -0.1456
  185SLPC  H10Y21329   5.921   3.088   7.432 -0.9352 -0.2491 -1.6403
  185SLPC  C31121330   6.123   3.148   7.464  0.3706  0.4223  0.7368
  185SLPC  H11X21331   6.133   3.234   7.394  0.6305  0.5177  0.8907
  185SLPC  H11Y21332   6.222   3.100   7.456  1.3775  2.4616  0.6876
  185SLPC  C31221333   6.097   3.205   7.601  0.1699  0.4675  0.0280
  185SLPC  H12X21334   6.008   3.271   7.608 -0.6552 -0.2312 -3.3046
  185SLPC  H12Y21335   6.184   3.272   7.619  0.9559 -0.5184 -0.0715
  185SLPC  C31321336   6.095   3.099   7.717 -0.3826 -0.0579  0.7864
  185SLPC  H13X21337   6.182   3.033   7.702  1.0945  2.1312 -0.5089
  185SLPC  H13Y21338   5.997   3.047   7.714 -1.5943  2.1641  0.7740
  185SLPC  C31421339   6.117   3.164   7.852  0.5604 -0.3630  0.1573
  185SLPC  H14X21340   6.042   3.245   7.860  1.2125  0.0798  2.1632
  185SLPC  H14Y21341   6.223   3.198   7.850  1.2574 -2.5034 -0.7673
  185SLPC  C31521342   6.083   3.074   7.979 -0.2197 -0.5373  0.5530
  185SLPC  H15X21343   6.171   3.007   7.991  0.8429  1.0767  2.0236
  185SLPC  H15Y21344   5.999   3.003   7.961  1.8868 -2.4768 -2.0386
  185SLPC  C31621345   6.067   3.167   8.100  0.3322  0.4384 -0.5973
  185SLPC  H16X21346   5.976   3.227   8.079 -0.4873 -0.9699 -1.1402
  185SLPC  H16Y21347   6.156   3.234   8.111  2.2565 -2.3407  1.7914
  185SLPC  C31721348   6.054   3.093   8.234  0.1891 -0.3777 -0.3744
  185SLPC  H17X21349   6.075   2.984   8.224 -0.6728 -0.5151 -0.7031
  185SLPC  H17Y21350   5.947   3.105   8.259 -0.6399  0.1121 -3.8558
  185SLPC  C31821351   6.155   3.125   8.349 -0.2586  0.7925 -0.1481
  185SLPC  H18X21352   6.252   3.076   8.325 -0.9265 -0.6822  0.1270
  185SLPC  H18Y21353   6.121   3.086   8.447 -5.6671  1.3509 -1.6322
  185SLPC  H18Z21354   6.167   3.235   8.364 -0.3388  0.7085  0.5120
  186SLPC     N21355   6.734   5.062   6.038 -0.5369  0.2570  0.1048
  186SLPC   C1321356   6.615   5.058   6.117 -0.5530 -0.8247  0.7153
  186SLPC  H13A21357   6.531   5.101   6.064  1.0219 -1.0935 -2.1205
  186SLPC  H13B21358   6.594   4.958   6.152 -0.3615 -1.0389  0.2286
  186SLPC  H13C21359   6.625   5.120   6.204 -0.2635 -0.5443  0.4836
  186SLPC   C1421360   6.725   4.962   5.928 -0.5216  0.3185 -0.1120
  186SLPC  H14A21361   6.638   4.974   5.865 -0.0939 -1.0069 -0.9700
  186SLPC  H14B21362   6.812   4.966   5.865 -1.0466  1.0074 -0.8042
  186SLPC  H14C21363   6.709   4.865   5.972 -1.6376  1.0625  1.1713
  186SLPC   C1521364   6.846   5.035   6.129 -0.4292 -0.7525 -0.3547
  186SLPC  H15A21365   6.849   4.931   6.160  2.1365 -0.2347  1.3017
  186SLPC  H15B21366   6.940   5.060   6.081 -0.2712  1.2324  0.9441
  186SLPC  H15C21367   6.839   5.095   6.218 -2.6385 -0.4375 -0.7229
  186SLPC   C1221368   6.751   5.204   5.979  0.2270  0.6466  0.9785
  186SLPC  H12A21369   6.668   5.206   5.911  2.3870  0.3422 -1.7405
  186SLPC  H12B21370   6.842   5.200   5.922 -0.3028 -1.0803  0.2203
  186SLPC   C1121371   6.758   5.332   6.068  0.7283 -0.2186  0.2338
  186SLPC  H11A21372   6.683   5.311   6.147  1.7664  0.4692  1.4035
  186SLPC  H11B21373   6.727   5.427   6.019  0.4339 -0.2321  0.3922
  186SLPC     P21374   6.941   5.457   6.214 -0.2009 -0.0330 -0.1137
  186SLPC   O1321375   7.051   5.405   6.301  0.2285 -0.2156  0.4723
  186SLPC   O1421376   6.976   5.575   6.128 -0.3012  0.3354 -0.2669
  186SLPC   O1221377   6.886   5.339   6.126  0.2820 -0.2281  0.2951
  186SLPC   O1121378   6.822   5.510   6.304  0.0102 -0.0347  0.6337
  186SLPC    C121379   6.740   5.429   6.386 -0.4978 -0.2353  0.1374
  186SLPC    HA21380   6.634   5.436   6.355 -0.7289  0.8353  1.1427
  186SLPC    HB21381   6.776   5.324   6.394  1.8218  0.4986 -0.2947
  186SLPC    C221382   6.755   5.470   6.533 -0.4257  0.7256 -0.7562
  186SLPC    HS21383   6.762   5.580   6.517 -0.7494  0.5901 -1.8146
  186SLPC   O2121384   6.880   5.406   6.587  0.3570 -0.5005 -0.1936
  186SLPC   C2121385   6.968   5.495   6.630 -0.2950 -0.2650  0.4404
  186SLPC   O2221386   6.967   5.616   6.611 -0.0780 -0.1652 -0.1327
  186SLPC   C2221387   7.081   5.426   6.711  0.6173  0.1394  0.5377
  186SLPC   H2R21388   7.160   5.498   6.741  2.7282 -0.9179 -2.2782
  186SLPC   H2S21389   7.040   5.399   6.811 -1.4923  2.0776  0.2227
  186SLPC    C321390   6.642   5.432   6.635 -0.2209 -0.0263  0.2139
  186SLPC    HX21391   6.603   5.334   6.601  1.4155  0.5282 -3.5376
  186SLPC    HY21392   6.555   5.502   6.631  0.6286  0.9639 -1.5504
  186SLPC   O3121393   6.702   5.443   6.768  0.3837 -0.0239 -0.2561
  186SLPC   C3121394   6.699   5.332   6.841  0.6099  0.2634 -0.0490
  186SLPC   O3221395   6.654   5.228   6.811  0.7134 -0.4927  0.0250
  186SLPC   C3221396   6.765   5.358   6.969  1.2113  0.4321 -0.3243
  186SLPC   H2X21397   6.684   5.364   7.045 -1.3986 -1.4854 -2.8458
  186SLPC   H2Y21398   6.815   5.456   6.958 -1.0601  1.9835  2.4916
  186SLPC   C2321399   7.130   5.308   6.634 -0.4807 -0.1598  0.1785
  186SLPC   H3R21400   7.159   5.338   6.530 -1.2226 -2.1013 -0.6108
  186SLPC   H3S21401   7.057   5.225   6.628  0.7204 -1.2878  0.9662
  186SLPC   C2421402   7.263   5.246   6.690 -0.2159 -0.9331 -0.0341
  186SLPC   H4R21403   7.318   5.339   6.715 -0.4195 -0.6205 -0.7438
  186SLPC   H4S21404   7.311   5.183   6.612  0.1662 -0.0878 -0.4817
  186SLPC   C2521405   7.227   5.158   6.807  0.4723 -0.4555  0.3956
  186SLPC   H5R21406   7.138   5.101   6.773 -2.0275  3.4824 -0.0017
  186SLPC   H5S21407   7.184   5.214   6.893 -1.1020 -0.1840 -0.5454
  186SLPC   C2621408   7.337   5.065   6.844  0.0467  0.1726 -0.2381
  186SLPC   H6R21409   7.426   5.119   6.882  0.3069 -1.0131  0.8523
  186SLPC   H6S21410   7.373   5.004   6.758 -2.5620 -1.2668 -0.3880
  186SLPC   C2721411   7.280   4.969   6.951 -0.2338 -0.1060 -0.4426
  186SLPC   H7R21412   7.371   4.908   6.970 -0.1764 -0.3804 -1.6092
  186SLPC   H7S21413   7.207   4.897   6.910 -0.7444  0.2839 -0.2233
  186SLPC   C2821414   7.230   5.027   7.082 -0.2832  0.1886 -0.7307
  186SLPC   H8R21415   7.178   4.953   7.145 -1.3146  0.6254 -1.0633
  186SLPC   H8S21416   7.145   5.097   7.071 -0.3846  0.0673 -0.7176
  186SLPC   C2921417   7.327   5.108   7.163 -0.2280 -0.6162 -0.1933
  186SLPC   H9R21418   7.388   5.177   7.102 -0.5867 -1.4427 -1.4964
  186SLPC  C21021419   7.353   5.099   7.297  0.4429  0.2563 -0.2849
  186SLPC  H10R21420   7.426   5.166   7.346 -0.3962  1.9151 -1.2684
  186SLPC  C21121421   7.291   5.009   7.405 -0.8651 -0.3977  0.2668
  186SLPC  H11R21422   7.381   4.972   7.459 -0.9116 -1.4581 -0.3921
  186SLPC  H11S21423   7.245   4.920   7.357 -0.2489  0.6948 -2.4204
  186SLPC  C21221424   7.188   5.069   7.491 -0.1192 -0.5014  0.7535
  186SLPC  H12R21425   7.090   5.093   7.448  0.1765  0.1029  0.4056
  186SLPC  C21321426   7.205   5.109   7.622  0.0646 -0.1403 -0.3368
  186SLPC  H13R21427   7.114   5.143   7.676  0.0331 -1.7640  0.6587
  186SLPC  C21421428   7.327   5.098   7.713 -0.2942  0.3399 -0.4454
  186SLPC  H14R21429   7.395   5.022   7.669  1.7949  1.7846  0.1850
  186SLPC  H14S21430   7.287   5.058   7.808 -1.0234 -2.3468 -1.8453
  186SLPC  C21521431   7.399   5.229   7.738  0.3037  0.1010  0.1455
  186SLPC  H15R21432   7.326   5.311   7.750 -1.8860 -1.1307 -3.7986
  186SLPC  H15S21433   7.464   5.259   7.653 -1.1028  1.1518 -0.5789
  186SLPC  C21621434   7.486   5.226   7.867  0.5673  0.0169 -0.4800
  186SLPC  H16R21435   7.549   5.134   7.863  0.6823 -0.1086  2.6794
  186SLPC  H16S21436   7.427   5.211   7.960 -0.8919  0.4802 -1.3165
  186SLPC  C21721437   7.576   5.353   7.895  0.0156  0.0515 -0.5326
  186SLPC  H17R21438   7.619   5.337   7.996 -2.2231  1.9039  0.7716
  186SLPC  H17S21439   7.519   5.448   7.903 -0.2827 -0.0452 -1.4280
  186SLPC  C21821440   7.688   5.389   7.793 -0.2683  0.0054 -0.2311
  186SLPC  H18R21441   7.759   5.303   7.790 -0.1152  0.1309 -0.2314
  186SLPC  H18S21442   7.747   5.479   7.820 -1.8442  0.4650  1.8824
  186SLPC  H18T21443   7.651   5.407   7.690  1.3455  0.1389 -0.7967
  186SLPC   C3321444   6.885   5.255   7.005  0.7774 -0.7645 -0.5288
  186SLPC   H3X21445   6.969   5.293   7.068  1.2512 -3.5402  0.6096
  186SLPC   H3Y21446   6.947   5.243   6.914  1.6836  1.4090 -0.2288
  186SLPC   C3421447   6.846   5.110   7.053  0.2804 -0.4242 -1.1762
  186SLPC   H4X21448   6.913   5.031   7.013  0.2627  0.0499 -2.1414
  186SLPC   H4Y21449   6.749   5.084   7.004  1.2785 -1.4224 -2.6602
  186SLPC   C3521450   6.844   5.081   7.204 -0.2729 -0.4302 -0.2556
  186SLPC   H5X21451   6.950   5.081   7.238  0.5327 -0.3634 -2.7024
  186SLPC   H5Y21452   6.808   4.981   7.235 -0.8517  0.1002  0.8292
  186SLPC   C3621453   6.771   5.200   7.277 -0.1760  0.9908 -0.4465
  186SLPC   H6X21454   6.661   5.194   7.265 -0.1903  1.0913 -0.3669
  186SLPC   H6Y21455   6.808   5.296   7.237  0.5193 -0.1078 -2.5212
  186SLPC   C3721456   6.814   5.202   7.430 -0.5535  0.1104 -0.4289
  186SLPC   H7X21457   6.769   5.294   7.473  0.3935  1.0750 -1.4755
  186SLPC   H7Y21458   6.925   5.208   7.437 -0.3928 -0.7934 -1.9783
  186SLPC   C3821459   6.761   5.078   7.509 -0.2658 -0.2718 -0.2704
  186SLPC   H8X21460   6.813   4.985   7.478  1.3395  1.4312 -2.9296
  186SLPC   H8Y21461   6.655   5.063   7.481  0.0608 -0.9409 -1.2062
  186SLPC   C3921462   6.782   5.098   7.662  0.2565 -0.3500 -0.5313
  186SLPC   H9X21463   6.892   5.102   7.677  0.0104  3.0799  0.7839
  186SLPC   H9Y21464   6.738   5.011   7.716  0.7295  0.0017  0.4259
  186SLPC  C31021465   6.721   5.224   7.721 -0.3482 -0.1695  0.5010
  186SLPC  H10X21466   6.611   5.237   7.711 -0.3698 -0.7950 -0.1094
  186SLPC  H10Y21467   6.773   5.311   7.677  2.5256 -1.4278  1.3052
  186SLPC  C31121468   6.745   5.230   7.876 -0.5690 -0.0104 -0.1460
  186SLPC  H11X21469   6.851   5.254   7.899 -0.8236  3.2395 -2.0360
  186SLPC  H11Y21470   6.728   5.125   7.907 -2.7143  0.0985 -0.8492
  186SLPC  C31221471   6.638   5.321   7.941 -0.4148 -0.5471  0.0237
  186SLPC  H12X21472   6.546   5.260   7.938  0.3558 -1.8234  1.8570
  186SLPC  H12Y21473   6.626   5.418   7.887  0.2356  0.6462  1.9597
  186SLPC  C31321474   6.669   5.356   8.093  0.1509 -0.1104  0.8185
  186SLPC  H13X21475   6.755   5.422   8.114 -0.6596  0.9537  0.8142
  186SLPC  H13Y21476   6.698   5.263   8.147  0.8991  0.3839  1.2700
  186SLPC  C31421477   6.545   5.410   8.164  0.1088 -0.3803  0.1699
  186SLPC  H14X21478   6.460   5.342   8.142 -0.4436 -0.3639  2.1567
  186SLPC  H14Y21479   6.512   5.509   8.126  3.2548  0.6358 -0.0257
  186SLPC  C31521480   6.559   5.409   8.313 -0.7711  0.5020 -0.0074
  186SLPC  H15X21481   6.480   5.474   8.355 -0.0607  0.0442  2.1202
  186SLPC  H15Y21482   6.662   5.434   8.348 -0.3733 -0.0995 -0.7215
  186SLPC  C31621483   6.531   5.268   8.361 -0.3602 -0.4352 -0.0825
  186SLPC  H16X21484   6.598   5.195   8.310 -2.8931 -1.0929 -2.5560
  186SLPC  H16Y21485   6.423   5.247   8.352 -0.3622 -1.0833  1.3593
  186SLPC  C31721486   6.569   5.247   8.510  0.3089 -0.1857  0.1804
  186SLPC  H17X21487   6.636   5.317   8.565 -0.1392  0.8389 -0.5616
  186SLPC  H17Y21488   6.613   5.147   8.525 -3.0690 -1.7025  0.5132
  186SLPC  C31821489   6.445   5.258   8.604  0.4108  0.0070 -0.1542
  186SLPC  H18X21490   6.481   5.236   8.707  1.7413  1.1928 -0.3567
  186SLPC  H18Y21491   6.361   5.191   8.576  1.5810 -1.1530 -0.8957
  186SLPC  H18Z21492   6.411   5.364   8.603 -1.9930 -0.7419 -0.4537
  187SLPC     N21493   0.221   2.092   6.216 -0.1480  0.7305 -0.0070
  187SLPC   C1321494   0.083   2.039   6.230 -0.3533 -0.2490 -0.1511
  187SLPC  H13A21495   0.088   1.988   6.325  1.2756 -1.1043 -0.6643
  187SLPC  H13B21496   0.007   2.115   6.238  0.3268  0.3525  0.7061
  187SLPC  H13C21497   0.064   1.969   6.150  1.4610 -1.0169  0.0575
  187SLPC   C1421498   0.233   2.160   6.080 -0.2489  0.1618 -0.4388
  187SLPC  H14A21499   0.182   2.254   6.094 -2.1531 -0.8418 -0.5054
  187SLPC  H14B21500   0.338   2.181   6.061  0.3655 -1.8685  0.5276
  187SLPC  H14C21501   0.181   2.110   6.001  0.9137  0.8059 -1.6336
  187SLPC   C1521502   0.311   1.973   6.217  0.0444  0.2928 -0.0517
  187SLPC  H15A21503   0.411   2.003   6.191  0.8682 -0.5853  2.0082
  187SLPC  H15B21504   0.327   1.931   6.316  0.1307 -2.3974 -1.1807
  187SLPC  H15C21505   0.288   1.894   6.148 -0.2728  0.1215  0.2459
  187SLPC   C1221506   0.253   2.188   6.331 -0.8091 -1.4876 -0.4192
  187SLPC  H12A21507   0.238   2.139   6.426 -0.6772  0.8466  0.8232
  187SLPC  H12B21508   0.189   2.275   6.333  1.2529  0.0566 -0.0337
  187SLPC   C1121509   0.401   2.241   6.340 -0.0980  0.6072  0.5314
  187SLPC  H11A21510   0.395   2.331   6.405 -1.8139 -1.2448  3.0133
  187SLPC  H11B21511   0.432   2.260   6.235 -1.2222 -1.0836 -0.1224
  187SLPC     P21512   0.558   2.147   6.530 -0.0957  0.2687  0.1340
  187SLPC   O1321513   0.652   2.031   6.526 -0.0534 -0.2350 -0.2026
  187SLPC   O1421514   0.626   2.278   6.536  0.1316 -0.9708 -0.2793
  187SLPC   O1221515   0.469   2.135   6.397  0.2166  0.3385 -0.3678
  187SLPC   O1121516   0.456   2.140   6.650  0.1238  0.5389  1.0048
  187SLPC    C121517   0.356   2.034   6.651  0.2467  0.2456 -0.0080
  187SLPC    HA21518   0.256   2.081   6.666  1.2342  1.8887  1.6376
  187SLPC    HB21519   0.334   1.989   6.552  2.8733 -0.6013 -0.2429
  187SLPC    C221520   0.384   1.924   6.758 -0.1643  0.2947  0.4992
  187SLPC    HS21521   0.282   1.892   6.790 -0.6675  2.9807  1.7155
  187SLPC   O2121522   0.460   1.983   6.862  0.0479  0.0732 -0.4608
  187SLPC   C2121523   0.385   2.062   6.944  0.2509  0.1826 -0.3080
  187SLPC   O2221524   0.272   2.100   6.923 -0.0441 -0.2116 -0.5665
  187SLPC   C2221525   0.462   2.083   7.075 -0.0533 -0.1658 -0.1542
  187SLPC   H2R21526   0.530   1.998   7.096 -1.2378 -1.2675 -0.6818
  187SLPC   H2S21527   0.521   2.174   7.051  0.5904 -0.3620  0.6834
  187SLPC    C321528   0.453   1.795   6.695  0.2079 -0.4710 -0.5377
  187SLPC    HX21529   0.553   1.827   6.659  1.0135 -0.6294  1.5185
  187SLPC    HY21530   0.385   1.763   6.613 -1.1263  0.6207  0.1303
  187SLPC   O3121531   0.469   1.694   6.797  0.1338  0.3140  0.0673
  187SLPC   C3121532   0.395   1.590   6.774  0.1436  0.5308 -0.4599
  187SLPC   O3221533   0.290   1.575   6.711  1.0774  0.3655  0.4914
  187SLPC   C3221534   0.449   1.476   6.866  0.0828 -0.7675  0.5058
  187SLPC   H2X21535   0.555   1.455   6.842 -0.1944 -0.2609 -1.2526
  187SLPC   H2Y21536   0.393   1.386   6.833  0.3797 -0.0384 -2.1328
  187SLPC   C2321537   0.384   2.124   7.205  0.3018 -0.8870 -0.5435
  187SLPC   H3R21538   0.320   2.039   7.237  0.0013 -0.5269 -0.1858
  187SLPC   H3S21539   0.313   2.206   7.185 -0.1708 -1.4159 -1.0347
  187SLPC   C2421540   0.484   2.176   7.306 -0.8704 -0.6350  0.2231
  187SLPC   H4R21541   0.524   2.271   7.266  0.6909 -0.2142  2.6701
  187SLPC   H4S21542   0.559   2.097   7.329 -0.3387  0.6145  2.9631
  187SLPC   C2521543   0.399   2.190   7.432 -0.0546  0.0745  0.1190
  187SLPC   H5R21544   0.372   2.087   7.463  0.9910 -0.3341 -0.3071
  187SLPC   H5S21545   0.306   2.245   7.406 -0.8445 -0.7083  1.2527
  187SLPC   C2621546   0.471   2.267   7.541  0.8832 -0.0526 -0.5128
  187SLPC   H6R21547   0.500   2.372   7.517  0.5768  0.0523 -0.4137
  187SLPC   H6S21548   0.565   2.216   7.572  0.8051  0.5929  0.8081
  187SLPC   C2721549   0.377   2.287   7.668  0.5111 -0.5659 -0.0398
  187SLPC   H7R21550   0.336   2.186   7.691  1.9479 -0.9858  0.7480
  187SLPC   H7S21551   0.298   2.353   7.627  0.6382 -0.4218 -0.0525
  187SLPC   C2821552   0.436   2.353   7.799 -0.2301 -0.2284 -0.0126
  187SLPC   H8R21553   0.478   2.452   7.772  0.6906 -0.5898  0.0788
  187SLPC   H8S21554   0.522   2.291   7.830  0.3706 -0.3014 -1.7806
  187SLPC   C2921555   0.327   2.364   7.908 -0.3380  0.0483  0.0756
  187SLPC   H9R21556   0.227   2.337   7.872 -1.1891 -0.8470  3.0356
  187SLPC  C21021557   0.337   2.388   8.037  0.0708  1.0310 -0.2558
  187SLPC  H10R21558   0.247   2.391   8.101 -0.3364 -3.4845 -0.4225
  187SLPC  C21121559   0.472   2.403   8.102 -0.0363  0.1393  1.4884
  187SLPC  H11R21560   0.504   2.510   8.105 -0.4535  0.2729  1.2338
  187SLPC  H11S21561   0.546   2.356   8.034 -1.8360 -0.9967  0.2884
  187SLPC  C21221562   0.474   2.363   8.247 -0.6713 -0.7013  0.1478
  187SLPC  H12R21563   0.507   2.260   8.268  2.8403  0.3693  0.1688
  187SLPC  C21321564   0.441   2.426   8.360  0.5322  0.0824 -0.1567
  187SLPC  H13R21565   0.443   2.369   8.455 -0.8002 -2.0038 -1.3231
  187SLPC  C21421566   0.391   2.567   8.375  0.0616  0.1484  0.0883
  187SLPC  H14R21567   0.356   2.603   8.276  1.8158 -0.7885 -0.8986
  187SLPC  H14S21568   0.468   2.644   8.399  0.0715 -0.1789  1.1153
  187SLPC  C21521569   0.264   2.586   8.468 -0.2156  0.2308  0.8623
  187SLPC  H15R21570   0.302   2.543   8.563 -0.4109 -0.8905  0.4422
  187SLPC  H15S21571   0.177   2.528   8.431  2.0980 -2.2236 -0.8942
  187SLPC  C21621572   0.217   2.731   8.488 -0.0659  0.5779 -0.0704
  187SLPC  H16R21573   0.157   2.751   8.397  0.0932 -2.0029 -0.7822
  187SLPC  H16S21574   0.312   2.788   8.487 -0.1938  0.7852 -0.8763
  187SLPC  C21721575   0.136   2.750   8.616  0.6028 -0.6225 -0.3708
  187SLPC  H17R21576   0.203   2.717   8.698  0.0975  0.8117  0.6264
  187SLPC  H17S21577   0.041   2.694   8.607  1.7448 -2.2910 -2.6729
  187SLPC  C21821578   0.084   2.891   8.630 -0.6024  0.2785 -0.1338
  187SLPC  H18R21579   0.050   2.894   8.736  0.1888 -2.9979  0.2701
  187SLPC  H18S21580   0.002   2.917   8.560 -0.3907  0.3213 -0.3666
  187SLPC  H18T21581   0.167   2.965   8.621  1.4375 -1.6727  1.6995
  187SLPC   C3321582   0.422   1.494   7.024  0.5945 -1.0416 -1.0761
  187SLPC   H3X21583   0.342   1.570   7.037  0.9455 -1.1474  2.1439
  187SLPC   H3Y21584   0.501   1.553   7.074  1.0137 -1.7794 -0.8634
  187SLPC   C3421585   0.368   1.369   7.100 -0.0574  0.3676 -0.2163
  187SLPC   H4X21586   0.447   1.292   7.093  1.3464  1.8275 -0.7422
  187SLPC   H4Y21587   0.282   1.324   7.046 -0.3440 -1.0610  1.4111
  187SLPC   C3521588   0.325   1.404   7.244 -0.8881 -0.3007 -0.0756
  187SLPC   H5X21589   0.247   1.335   7.281 -0.1257 -1.5059 -0.6910
  187SLPC   H5Y21590   0.274   1.503   7.240 -1.3689 -0.4362  1.8461
  187SLPC   C3621591   0.447   1.417   7.340  0.1811  0.4712 -0.6585
  187SLPC   H6X21592   0.510   1.484   7.277 -0.0903  1.2791 -0.0824
  187SLPC   H6Y21593   0.498   1.319   7.347 -1.0185 -0.1695 -0.7997
  187SLPC   C3721594   0.415   1.484   7.477  0.1205  0.4169 -1.2440
  187SLPC   H7X21595   0.405   1.594   7.466 -1.4704  0.5507  1.0148
  187SLPC   H7Y21596   0.323   1.442   7.525  2.4247 -1.4912  1.6879
  187SLPC   C3821597   0.530   1.453   7.566 -0.9303 -0.5956 -0.1681
  187SLPC   H8X21598   0.627   1.491   7.529 -0.5834 -0.3612  0.9700
  187SLPC   H8Y21599   0.528   1.343   7.583 -0.2667 -0.9838 -2.4090
  187SLPC   C3921600   0.510   1.515   7.699 -0.1727  0.4459  0.4574
  187SLPC   H9X21601   0.425   1.472   7.757 -1.0524  1.9397  0.3114
  187SLPC   H9Y21602   0.484   1.623   7.684 -0.6812  0.1927 -0.5303
  187SLPC  C31021603   0.633   1.509   7.790 -0.4907  0.0614  0.8593
  187SLPC  H10X21604   0.720   1.552   7.736 -1.2885  0.4248 -0.1469
  187SLPC  H10Y21605   0.664   1.402   7.796  2.9566  1.0235  1.1986
  187SLPC  C31121606   0.634   1.571   7.926 -0.3451  0.7841 -0.1745
  187SLPC  H11X21607   0.560   1.520   7.991  0.4307 -0.3376 -0.1366
  187SLPC  H11Y21608   0.598   1.674   7.909 -0.2010  0.9468  0.5269
  187SLPC  C31221609   0.769   1.597   7.994 -0.4523  0.3326  0.4274
  187SLPC  H12X21610   0.738   1.673   8.069 -0.1877  1.1496 -0.2784
  187SLPC  H12Y21611   0.836   1.655   7.928  0.3292 -0.6868  0.3124
  187SLPC  C31321612   0.831   1.469   8.053 -0.0078  0.3476 -0.0180
  187SLPC  H13X21613   0.933   1.496   8.087  0.2516 -2.1098  1.2285
  187SLPC  H13Y21614   0.830   1.381   7.986  1.3672 -0.1614  0.6210
  187SLPC  C31421615   0.750   1.430   8.181  0.3914  1.0203  0.2290
  187SLPC  H14X21616   0.648   1.399   8.149  0.2278  2.7555 -1.0423
  187SLPC  H14Y21617   0.731   1.524   8.237 -2.4062  0.8014 -0.2940
  187SLPC  C31521618   0.837   1.334   8.264 -0.1748  0.5737  0.3827
  187SLPC  H15X21619   0.929   1.392   8.288  0.4450 -0.2673  0.0560
  187SLPC  H15Y21620   0.872   1.243   8.210 -0.9830  0.5243 -0.0599
  187SLPC  C31621621   0.770   1.292   8.390  0.0420 -0.5670 -0.3019
  187SLPC  H16X21622   0.683   1.226   8.373 -1.2924  1.4470 -1.4962
  187SLPC  H16Y21623   0.738   1.386   8.439 -0.2711 -0.3258 -0.9559
  187SLPC  C31721624   0.870   1.229   8.490  0.0435 -0.2002 -0.1771
  187SLPC  H17X21625   0.900   1.127   8.456  0.1976  0.3359 -1.6590
  187SLPC  H17Y21626   0.812   1.216   8.584 -0.4189 -1.2277 -0.5964
  187SLPC  C31821627   0.997   1.304   8.519 -0.6087  0.0184 -0.8088
  187SLPC  H18X21628   1.060   1.307   8.427  0.4073  1.0815 -0.0951
  187SLPC  H18Y21629   1.064   1.252   8.591  0.0032  2.6358  0.5777
  187SLPC  H18Z21630   0.984   1.407   8.557  0.0917 -0.4267  0.6583
  188SLPC     N21631   1.300   3.318   5.970 -0.3033 -0.4826  0.1105
  188SLPC   C1321632   1.347   3.461   5.952 -0.0099 -0.2764 -0.2069
  188SLPC  H13A21633   1.302   3.511   5.868  2.6764  0.5665 -1.2006
  188SLPC  H13B21634   1.325   3.524   6.037 -0.0387 -1.7189  0.8841
  188SLPC  H13C21635   1.454   3.463   5.933 -0.1975  2.4769 -1.1222
  188SLPC   C1421636   1.299   3.251   5.830 -0.1260 -0.1763  0.0652
  188SLPC  H14A21637   1.212   3.295   5.784 -1.7596 -1.9525  1.3341
  188SLPC  H14B21638   1.385   3.263   5.767 -2.0284  0.5308 -2.4979
  188SLPC  H14C21639   1.279   3.146   5.845  1.8104 -0.9768 -2.6032
  188SLPC   C1521640   1.162   3.323   6.019  0.3202 -0.7995 -0.2288
  188SLPC  H15A21641   1.101   3.405   5.985 -2.7711 -2.6859  0.5393
  188SLPC  H15B21642   1.111   3.228   6.013 -0.2712 -0.4387 -0.9713
  188SLPC  H15C21643   1.162   3.349   6.124 -1.9506  2.4311 -0.9488
  188SLPC   C1221644   1.398   3.249   6.060  0.0733 -1.2549  0.2412
  188SLPC  H12A21645   1.490   3.252   6.004  0.8659  0.9844  1.6165
  188SLPC  H12B21646   1.379   3.142   6.066  2.8779 -1.6744  2.8351
  188SLPC   C1121647   1.413   3.301   6.209 -0.1708  0.1814  0.1819
  188SLPC  H11A21648   1.441   3.408   6.201 -3.5586  0.9761 -1.8800
  188SLPC  H11B21649   1.506   3.263   6.257  1.5767  2.0171 -1.6861
  188SLPC     P21650   1.259   3.146   6.348 -0.4733  0.1218 -0.0518
  188SLPC   O1321651   1.128   3.167   6.420  0.1711  0.1250  0.6148
  188SLPC   O1421652   1.256   3.052   6.236  0.5460  0.5360  0.5498
  188SLPC   O1221653   1.298   3.283   6.285  0.1456  0.2015  0.2815
  188SLPC   O1121654   1.369   3.108   6.453  0.2902  0.2519  0.1624
  188SLPC    C121655   1.443   3.196   6.535 -0.2899 -0.6129 -0.0713
  188SLPC    HA21656   1.549   3.191   6.501  0.1093 -0.1692  1.0926
  188SLPC    HB21657   1.424   3.303   6.510 -0.2489 -0.2236  1.5336
  188SLPC    C221658   1.435   3.170   6.685 -0.3408  0.3030 -0.4758
  188SLPC    HS21659   1.444   3.268   6.736  1.7421  0.4796 -1.1300
  188SLPC   O2121660   1.527   3.065   6.729  0.5066 -0.0908 -0.2365
  188SLPC   C2121661   1.648   3.118   6.760 -0.1866 -0.3259  0.5545
  188SLPC   O2221662   1.679   3.235   6.741  0.0954  0.1062 -0.1162
  188SLPC   C2221663   1.747   3.009   6.800  0.3913  0.5084 -0.3828
  188SLPC   H2R21664   1.748   2.938   6.715  0.9303  0.4125 -0.3006
  188SLPC   H2S21665   1.846   3.054   6.825  1.1357 -2.1639  1.6725
  188SLPC    C321666   1.289   3.134   6.736  0.4270  0.4571 -0.6828
  188SLPC    HX21667   1.246   3.056   6.670  1.5693 -1.6258  0.9787
  188SLPC    HY21668   1.223   3.223   6.727 -1.5858 -0.9878 -0.2846
  188SLPC   O3121669   1.289   3.078   6.869 -0.3476 -0.0015  0.2344
  188SLPC   C3121670   1.287   3.163   6.969 -0.0781  0.8032  0.4176
  188SLPC   O3221671   1.272   3.284   6.959 -0.1849 -0.6301 -0.2852
  188SLPC   C3221672   1.308   3.088   7.099 -0.7846  0.2616  0.0206
  188SLPC   H2X21673   1.418   3.085   7.118 -0.7803 -1.7646 -0.1949
  188SLPC   H2Y21674   1.261   2.989   7.082  1.0040 -0.7685  0.8621
  188SLPC   C2321675   1.701   2.939   6.938  0.4367  0.5481 -0.0163
  188SLPC   H3R21676   1.759   2.843   6.939 -0.1179  0.2247  1.6686
  188SLPC   H3S21677   1.591   2.923   6.939  0.4584  0.2327 -1.3867
  188SLPC   C2421678   1.750   3.016   7.062 -0.3738 -0.1438  0.6045
  188SLPC   H4R21679   1.695   3.111   7.047 -0.0505 -0.1000 -0.3379
  188SLPC   H4S21680   1.860   3.033   7.069 -0.0244 -2.0357 -0.0064
  188SLPC   C2521681   1.695   2.958   7.197 -0.6880  0.4192 -0.4519
  188SLPC   H5R21682   1.733   2.853   7.204 -2.5836 -0.0802  3.5935
  188SLPC   H5S21683   1.588   2.937   7.175 -0.5566 -2.3835  1.4210
  188SLPC   C2621684   1.726   3.034   7.323 -0.3269  0.1174  0.1419
  188SLPC   H6R21685   1.710   2.958   7.402 -1.0812 -0.3768 -0.4761
  188SLPC   H6S21686   1.656   3.119   7.338 -0.4092  0.4235 -1.8134
  188SLPC   C2721687   1.876   3.067   7.322 -0.1731  0.4206  0.2422
  188SLPC   H7R21688   1.868   3.150   7.249 -0.8971  2.3722  2.4604
  188SLPC   H7S21689   1.936   2.983   7.282 -0.6159  1.1934 -2.1528
  188SLPC   C2821690   1.931   3.113   7.456  0.3678  0.1044  0.2975
  188SLPC   H8R21691   2.042   3.112   7.450  0.3135  2.8637 -2.5883
  188SLPC   H8S21692   1.896   3.041   7.533 -2.1310 -0.0491 -0.9248
  188SLPC   C2921693   1.905   3.254   7.502  0.2504  0.1550 -0.2429
  188SLPC   H9R21694   1.936   3.327   7.426 -0.3991  2.0185  1.2481
  188SLPC  C21021695   1.864   3.291   7.626  0.6631 -0.6812 -0.3763
  188SLPC  H10R21696   1.837   3.398   7.638  0.4605 -0.8359  0.6223
  188SLPC  C21121697   1.817   3.200   7.742  0.0961  1.0769  0.3031
  188SLPC  H11R21698   1.893   3.219   7.821  1.4638 -1.9792 -0.2308
  188SLPC  H11S21699   1.826   3.092   7.720 -1.4844  1.1809 -0.9790
  188SLPC  C21221700   1.669   3.221   7.769  0.1646  0.1252 -0.3140
  188SLPC  H12R21701   1.618   3.296   7.706  1.2944 -1.7407 -3.5699
  188SLPC  C21321702   1.600   3.158   7.870 -0.2761  0.1458 -0.1662
  188SLPC  H13R21703   1.493   3.176   7.888  0.3201  1.5594  2.1500
  188SLPC  C21421704   1.655   3.052   7.965 -0.0634 -0.2436 -0.6156
  188SLPC  H14R21705   1.731   2.993   7.911 -0.4093 -0.1602 -1.1972
  188SLPC  H14S21706   1.580   2.976   7.994  0.2052 -0.6240 -0.9099
  188SLPC  C21521707   1.716   3.116   8.090  0.0958  0.3024  0.5806
  188SLPC  H15R21708   1.811   3.167   8.060  0.2396 -0.5708 -0.4931
  188SLPC  H15S21709   1.762   3.034   8.149  0.8594  1.6955  1.9763
  188SLPC  C21621710   1.610   3.199   8.158  0.6234 -0.2906 -1.3323
  188SLPC  H16R21711   1.520   3.134   8.164 -1.2066  2.3505  0.8716
  188SLPC  H16S21712   1.575   3.284   8.097 -2.0855 -2.4386 -2.9207
  188SLPC  C21721713   1.649   3.260   8.300 -0.4671  0.2046 -0.0190
  188SLPC  H17R21714   1.734   3.332   8.292 -1.3004  1.0849 -1.0525
  188SLPC  H17S21715   1.678   3.171   8.360 -2.9230 -0.2489  0.5314
  188SLPC  C21821716   1.525   3.323   8.366 -0.2722  0.4889 -0.0028
  188SLPC  H18R21717   1.535   3.328   8.476  0.3274 -0.3846 -0.0131
  188SLPC  H18S21718   1.439   3.253   8.363  1.4540 -1.6791 -0.0974
  188SLPC  H18T21719   1.483   3.418   8.328 -3.5073  0.4710  3.2715
  188SLPC   C3321720   1.255   3.152   7.226  0.0313 -0.2324 -0.4647
  188SLPC   H3X21721   1.145   3.138   7.230 -0.3859  2.7134 -0.5090
  188SLPC   H3Y21722   1.280   3.260   7.230 -3.4740  0.6882 -1.2726
  188SLPC   C3421723   1.320   3.098   7.353 -0.3662 -0.1210 -0.1872
  188SLPC   H4X21724   1.424   3.134   7.339 -1.6006  2.7096 -2.8501
  188SLPC   H4Y21725   1.305   2.988   7.353 -1.6437  0.0294  2.0020
  188SLPC   C3521726   1.260   3.163   7.474 -0.0787 -0.2790  0.5356
  188SLPC   H5X21727   1.150   3.150   7.481 -0.3702  0.9615 -1.5389
  188SLPC   H5Y21728   1.285   3.272   7.473 -1.6077  0.1077 -2.7857
  188SLPC   C3621729   1.334   3.101   7.596 -0.3205 -0.0058  0.3319
  188SLPC   H6X21730   1.444   3.095   7.584 -0.0897  1.7429  1.3999
  188SLPC   H6Y21731   1.301   2.996   7.590 -1.1993  0.1318  2.3183
  188SLPC   C3721732   1.275   3.151   7.730 -0.1040 -0.0700 -1.2437
  188SLPC   H7X21733   1.310   3.086   7.813 -0.1532  1.2002 -0.2177
  188SLPC   H7Y21734   1.165   3.139   7.727 -0.4667  2.7412  0.0849
  188SLPC   C3821735   1.304   3.303   7.749 -0.2019  0.2485  0.0722
  188SLPC   H8X21736   1.245   3.364   7.678 -0.8195 -0.2626  0.1380
  188SLPC   H8Y21737   1.411   3.318   7.722 -0.0600  1.8265  1.4777
  188SLPC   C3921738   1.266   3.341   7.888 -0.0018 -0.1821 -0.2271
  188SLPC   H9X21739   1.335   3.295   7.962  2.2739  1.3441 -1.3282
  188SLPC   H9Y21740   1.163   3.306   7.912  0.6409 -1.3681  0.8465
  188SLPC  C31021741   1.268   3.493   7.917  0.1068  0.3777  0.9071
  188SLPC  H10X21742   1.210   3.547   7.839  0.8786  2.5847  1.8079
  188SLPC  H10Y21743   1.376   3.518   7.919 -0.5297  3.2383  1.5471
  188SLPC  C31121744   1.226   3.532   8.054 -0.1562 -0.0022 -0.2815
  188SLPC  H11X21745   1.268   3.462   8.130 -1.4435 -0.7878 -0.2691
  188SLPC  H11Y21746   1.115   3.524   8.061 -0.3918  2.3009 -1.1917
  188SLPC  C31221747   1.268   3.677   8.101 -0.1995 -0.7423 -0.5769
  188SLPC  H12X21748   1.241   3.750   8.021  1.5603 -0.9247 -1.3496
  188SLPC  H12Y21749   1.378   3.681   8.116 -0.3777  0.1249  0.6016
  188SLPC  C31321750   1.184   3.709   8.225  0.0177  1.0536  0.7180
  188SLPC  H13X21751   1.085   3.659   8.220  2.3527 -3.7305 -1.1947
  188SLPC  H13Y21752   1.183   3.819   8.239  0.7040  1.0627  0.7357
  188SLPC  C31421753   1.247   3.639   8.354 -0.3135 -0.6613 -0.0205
  188SLPC  H14X21754   1.269   3.533   8.333 -0.2883 -0.8112  0.7448
  188SLPC  H14Y21755   1.159   3.640   8.422 -1.5826  1.8175 -1.5959
  188SLPC  C31521756   1.369   3.708   8.417  0.5047  0.1578 -0.2172
  188SLPC  H15X21757   1.349   3.816   8.433  0.2074  0.2103 -0.9506
  188SLPC  H15Y21758   1.453   3.698   8.345  0.6115 -0.7740  0.0263
  188SLPC  C31621759   1.411   3.651   8.552 -0.2718 -0.1587 -0.4610
  188SLPC  H16X21760   1.451   3.548   8.537 -0.4082 -0.7070  2.4737
  188SLPC  H16Y21761   1.328   3.632   8.624  0.1654 -1.2401 -0.2300
  188SLPC  C31721762   1.522   3.739   8.625  0.0546  0.0496  0.6102
  188SLPC  H17X21763   1.537   3.702   8.728 -0.5790  0.3764  0.8237
  188SLPC  H17Y21764   1.480   3.841   8.629 -3.6298 -1.1731 -2.6909
  188SLPC  C31821765   1.654   3.747   8.548  0.6211 -0.3159 -0.1433
  188SLPC  H18X21766   1.701   3.839   8.587  0.0177  0.1444 -0.4907
  188SLPC  H18Y21767   1.627   3.748   8.440 -0.8791  1.1037  0.2252
  188SLPC  H18Z21768   1.720   3.660   8.566  0.2925 -0.7969 -1.1704
  189SLPC     N21769   3.972   4.855   6.437  0.1282  0.1725 -0.0214
  189SLPC   C1321770   4.112   4.816   6.399 -0.3046 -0.0344  0.4138
  189SLPC  H13A21771   4.165   4.908   6.377 -3.3848  1.4918 -0.9534
  189SLPC  H13B21772   4.165   4.759   6.474  0.2017  1.0221  0.8739
  189SLPC  H13C21773   4.116   4.751   6.313  1.8386  0.9354 -0.2489
  189SLPC   C1421774   3.898   4.730   6.485  0.5172  0.1154 -0.5275
  189SLPC  H14A21775   3.792   4.722   6.466  0.6584  1.2512 -1.8718
  189SLPC  H14B21776   3.948   4.648   6.436  1.3366 -0.3709  1.0913
  189SLPC  H14C21777   3.907   4.718   6.592 -3.7382 -2.7946 -0.3522
  189SLPC   C1521778   3.904   4.891   6.309 -0.0060 -0.6314  0.6099
  189SLPC  H15A21779   3.919   4.807   6.243  0.9447 -0.8466  1.1009
  189SLPC  H15B21780   3.802   4.921   6.329 -0.0888 -1.4989  1.5661
  189SLPC  H15C21781   3.949   4.978   6.264 -0.5284 -1.4976 -1.7090
  189SLPC   C1221782   3.966   4.966   6.537  0.6340 -0.3527 -0.3503
  189SLPC  H12A21783   4.004   5.058   6.496  0.5897  0.5282  1.5365
  189SLPC  H12B21784   4.019   4.932   6.625  0.9916 -0.7602 -0.7170
  189SLPC   C1121785   3.819   5.003   6.575 -0.1717 -0.0187  0.8652
  189SLPC  H11A21786   3.822   5.076   6.659  0.7422  0.8133  0.1149
  189SLPC  H11B21787   3.768   4.908   6.600 -1.3226  0.5781  0.8180
  189SLPC     P21788   3.598   5.076   6.464 -0.1868  0.5227 -0.2271
  189SLPC   O1321789   3.553   5.184   6.367  0.4543  0.0845  0.4481
  189SLPC   O1421790   3.544   4.937   6.459  0.1007 -0.2349 -0.6561
  189SLPC   O1221791   3.752   5.066   6.472  0.4470 -0.1992  0.4930
  189SLPC   O1121792   3.570   5.135   6.608 -0.4049  0.3050 -0.1877
  189SLPC    C121793   3.430   5.145   6.650  0.3922 -0.0915 -0.3932
  189SLPC    HA21794   3.382   5.235   6.607  0.7692  0.1146 -0.3876
  189SLPC    HB21795   3.381   5.053   6.611  2.1034 -1.8396  1.4532
  189SLPC    C221796   3.419   5.141   6.805  0.6545 -0.6794  0.0441
  189SLPC    HS21797   3.312   5.130   6.831  0.2690 -1.4912 -1.8104
  189SLPC   O2121798   3.482   5.262   6.857 -1.2689  0.3100 -0.5548
  189SLPC   C2121799   3.416   5.372   6.845  0.1482 -1.5030  1.4446
  189SLPC   O2221800   3.300   5.392   6.806 -0.4021 -0.4103 -0.1997
  189SLPC   C2221801   3.503   5.487   6.903  0.0480 -0.6053  0.0049
  189SLPC   H2R21802   3.607   5.455   6.929  0.2203  0.5367  0.7438
  189SLPC   H2S21803   3.514   5.561   6.821 -3.6417 -0.6183 -0.5902
  189SLPC    C321804   3.492   5.012   6.854 -0.4054  0.3353  0.1218
  189SLPC    HX21805   3.580   4.987   6.792 -0.2571 -1.1461  0.9019
  189SLPC    HY21806   3.422   4.933   6.821  0.6873 -0.0487 -1.3173
  189SLPC   O3121807   3.524   5.006   6.998 -0.2331  0.1308 -0.2053
  189SLPC   C3121808   3.411   4.968   7.068 -0.1382 -0.1839 -0.1289
  189SLPC   O3221809   3.300   4.941   7.019 -0.3567  0.0551  0.0201
  189SLPC   C3221810   3.434   4.956   7.217  0.9036 -0.1699  0.1276
  189SLPC   H2X21811   3.494   5.039   7.260 -1.3282  0.8649  1.3444
  189SLPC   H2Y21812   3.489   4.865   7.247 -0.0950 -0.5385  0.8455
  189SLPC   C2321813   3.431   5.549   7.024  0.6657  0.1649 -1.0345
  189SLPC   H3R21814   3.322   5.559   7.009  0.5566  2.5153  0.9142
  189SLPC   H3S21815   3.477   5.650   7.037 -0.3522  0.9759 -3.3533
  189SLPC   C2421816   3.450   5.475   7.153  0.3304 -0.0519  0.1163
  189SLPC   H4R21817   3.557   5.460   7.180  0.8721 -0.6253 -2.2455
  189SLPC   H4S21818   3.409   5.374   7.131 -0.6382  0.6990 -1.6111
  189SLPC   C2521819   3.384   5.538   7.274  0.2760  0.1936 -1.0060
  189SLPC   H5R21820   3.290   5.595   7.262  0.8257  0.9469 -1.7607
  189SLPC   H5S21821   3.459   5.603   7.324 -0.5669  0.5654 -0.2152
  189SLPC   C2621822   3.354   5.416   7.369  0.6551  0.5325 -0.6118
  189SLPC   H6R21823   3.439   5.345   7.367  0.3062  0.1125 -0.8136
  189SLPC   H6S21824   3.267   5.362   7.325 -1.0620  0.7770  2.3543
  189SLPC   C2721825   3.321   5.453   7.519 -0.3800  0.6689  0.1291
  189SLPC   H7R21826   3.237   5.525   7.512 -1.9773 -1.1382  0.4195
  189SLPC   H7S21827   3.414   5.494   7.564  1.0864 -1.3122 -1.0231
  189SLPC   C2821828   3.266   5.330   7.602 -0.0532 -0.2796 -0.1759
  189SLPC   H8R21829   3.341   5.253   7.630  1.0816  0.6587 -0.6078
  189SLPC   H8S21830   3.200   5.279   7.528 -0.4520  0.3501 -0.2601
  189SLPC   C2921831   3.177   5.371   7.717 -0.4101 -0.7520  0.4203
  189SLPC   H9R21832   3.070   5.385   7.695  0.0133  1.6121 -0.3050
  189SLPC  C21021833   3.225   5.390   7.840 -0.0584  0.3175  0.0704
  189SLPC  H10R21834   3.155   5.399   7.924  0.8469  0.6925  0.7965
  189SLPC  C21121835   3.370   5.385   7.900 -0.3452 -0.3111 -0.7836
  189SLPC  H11R21836   3.450   5.389   7.823  1.7150 -0.7474  1.2659
  189SLPC  H11S21837   3.391   5.291   7.955 -0.8756 -1.2691 -2.1821
  189SLPC  C21221838   3.389   5.506   7.991  0.6422  0.0207 -0.2341
  189SLPC  H12R21839   3.400   5.603   7.940  1.4307  1.1070  1.9421
  189SLPC  C21321840   3.373   5.517   8.121 -0.2419 -0.2860 -0.2840
  189SLPC  H13R21841   3.383   5.618   8.164 -0.0313  0.4401 -2.0062
  189SLPC  C21421842   3.346   5.406   8.220 -0.2475  0.3649  0.0315
  189SLPC  H14R21843   3.415   5.422   8.306  0.0282  0.2008 -0.1588
  189SLPC  H14S21844   3.374   5.307   8.177 -0.0201 -0.2615  1.5829
  189SLPC  C21521845   3.205   5.386   8.267 -0.0810  0.6616 -0.0710
  189SLPC  H15R21846   3.125   5.384   8.190 -0.6393  1.0252  0.4928
  189SLPC  H15S21847   3.185   5.469   8.338  1.0340  1.3422 -0.5491
  189SLPC  C21621848   3.191   5.256   8.352  0.4006  0.1058  0.7297
  189SLPC  H16R21849   3.270   5.266   8.430 -0.3853  2.4368  1.2719
  189SLPC  H16S21850   3.210   5.174   8.279 -0.0300  1.4782 -0.9784
  189SLPC  C21721851   3.054   5.246   8.407 -0.0386 -0.8168  0.3270
  189SLPC  H17R21852   2.981   5.246   8.323 -0.1002 -1.9714  0.3619
  189SLPC  H17S21853   3.035   5.334   8.472  0.9666  1.6657 -2.6229
  189SLPC  C21821854   3.032   5.121   8.486 -0.1011 -0.3763 -0.1867
  189SLPC  H18R21855   3.064   5.142   8.590  0.6517  0.3618 -0.5556
  189SLPC  H18S21856   3.087   5.031   8.452 -0.1034 -0.0997 -0.9287
  189SLPC  H18T21857   2.922   5.105   8.491  0.0837 -1.8669 -0.6649
  189SLPC   C3321858   3.298   4.944   7.299 -0.2033 -1.0116  0.0048
  189SLPC   H3X21859   3.244   4.852   7.267 -0.3362 -0.5563 -1.0997
  189SLPC   H3Y21860   3.238   5.030   7.261 -1.2897 -1.8003 -0.1068
  189SLPC   C3421861   3.305   4.960   7.452  0.5856 -0.1939  1.1465
  189SLPC   H4X21862   3.359   5.055   7.474  0.2947  0.0546  0.8071
  189SLPC   H4Y21863   3.357   4.879   7.506 -0.9143 -0.6280  1.9577
  189SLPC   C3521864   3.167   4.974   7.517  0.4833  0.7979  0.5314
  189SLPC   H5X21865   3.121   4.876   7.490 -0.2662  0.7992  1.8240
  189SLPC   H5Y21866   3.103   5.052   7.471 -1.7579 -1.0871  0.3534
  189SLPC   C3621867   3.203   4.979   7.665 -0.0268  0.1585  0.5013
  189SLPC   H6X21868   3.254   5.076   7.680  1.1171 -0.4209  0.4477
  189SLPC   H6Y21869   3.266   4.899   7.711  1.4634  0.7269 -0.5089
  189SLPC   C3721870   3.075   4.975   7.755  0.0206 -0.0330  0.1967
  189SLPC   H7X21871   3.007   4.890   7.734  2.2635 -1.5831 -0.9462
  189SLPC   H7Y21872   3.018   5.064   7.721 -2.3450 -1.6057 -0.0730
  189SLPC   C3821873   3.106   4.985   7.899  0.2204  0.6528  0.0922
  189SLPC   H8X21874   3.186   5.060   7.916 -1.1209  1.4927  2.9631
  189SLPC   H8Y21875   3.166   4.894   7.921  0.4171  1.0033  1.0021
  189SLPC   C3921876   3.004   5.027   8.004  0.5331 -0.1492 -0.4389
  189SLPC   H9X21877   3.059   5.072   8.089 -0.4277 -2.9138  1.7275
  189SLPC   H9Y21878   2.962   4.932   8.045  1.3648  0.0705  0.9246
  189SLPC  C31021879   2.878   5.118   7.968  0.1618 -0.7304  0.4781
  189SLPC  H10X21880   2.818   5.061   7.894  0.6000 -1.8191  0.9518
  189SLPC  H10Y21881   2.908   5.213   7.919  0.1962 -0.9108  0.1440
  189SLPC  C31121882   2.791   5.158   8.089  0.5644  0.0628 -0.4323
  189SLPC  H11X21883   2.733   5.249   8.060  3.0918  2.1300  0.8492
  189SLPC  H11Y21884   2.862   5.188   8.169 -1.2676 -2.2706  2.1618
  189SLPC  C31221885   2.695   5.047   8.144 -0.2235 -0.0834 -0.4942
  189SLPC  H12X21886   2.766   4.963   8.155 -0.6862 -0.7147 -2.1283
  189SLPC  H12Y21887   2.624   5.026   8.060  0.1342 -0.4985 -0.6947
  189SLPC  C31321888   2.641   5.086   8.276 -0.2180  0.4379 -0.5031
  189SLPC  H13X21889   2.550   5.147   8.258 -1.2592 -1.7218 -2.7949
  189SLPC  H13Y21890   2.698   5.154   8.343 -1.2861  1.0141 -0.1630
  189SLPC  C31421891   2.590   4.963   8.364 -0.3251  1.1019  0.4056
  189SLPC  H14X21892   2.679   4.909   8.404  0.2237  1.4599 -0.3240
  189SLPC  H14Y21893   2.544   4.883   8.302  0.4578 -0.4838  1.8217
  189SLPC  C31521894   2.501   5.010   8.485 -0.0649 -0.1271 -0.7858
  189SLPC  H15X21895   2.429   5.090   8.459 -2.4180 -2.4481 -1.5788
  189SLPC  H15Y21896   2.575   5.065   8.548  0.7349 -1.0244 -0.9332
  189SLPC  C31621897   2.425   4.904   8.572 -0.8258 -0.3550 -0.2982
  189SLPC  H16X21898   2.352   4.834   8.525  0.9587 -3.2518  1.0855
  189SLPC  H16Y21899   2.374   4.959   8.654 -1.3574  1.1685 -1.6233
  189SLPC  C31721900   2.530   4.806   8.637  0.0790  0.6752 -0.1287
  189SLPC  H17X21901   2.586   4.760   8.553  1.9006  2.1639  0.2163
  189SLPC  H17Y21902   2.461   4.743   8.697  1.8211 -1.3470 -0.1772
  189SLPC  C31821903   2.634   4.860   8.741  0.0739  0.0485 -0.2340
  189SLPC  H18X21904   2.586   4.901   8.832 -0.2029 -2.4941  0.8211
  189SLPC  H18Y21905   2.698   4.936   8.692  1.0184 -0.1604  0.6423
  189SLPC  H18Z21906   2.699   4.782   8.787 -1.0789 -1.3233 -0.8620
  190SLPC     N21907   3.612   4.054   6.147 -1.1563 -0.0204  0.1354
  190SLPC   C1321908   3.659   3.913   6.096  0.2467 -0.8119 -0.3788
  190SLPC  H13A21909   3.664   3.912   5.988 -0.6943  0.8252 -0.4497
  190SLPC  H13B21910   3.761   3.903   6.129 -0.2034 -0.2165  1.2471
  190SLPC  H13C21911   3.612   3.839   6.160  0.1470  0.6166  1.2196
  190SLPC   C1421912   3.467   4.062   6.123 -0.1043  0.4992 -0.3178
  190SLPC  H14A21913   3.416   3.979   6.170 -1.4867  1.2061 -0.5404
  190SLPC  H14B21914   3.423   4.159   6.145 -0.5160  0.0734  0.7714
  190SLPC  H14C21915   3.442   4.045   6.020  0.8285  0.1814 -0.4929
  190SLPC   C1521916   3.684   4.157   6.071 -0.3965  0.2833  0.7099
  190SLPC  H15A21917   3.789   4.169   6.093 -0.7303 -0.3121  2.6909
  190SLPC  H15B21918   3.682   4.120   5.969  0.5504  0.5822  0.5778
  190SLPC  H15C21919   3.629   4.249   6.058  0.5238  1.3820  4.1888
  190SLPC   C1221920   3.636   4.080   6.294  0.2677 -0.2760  0.4771
  190SLPC  H12A21921   3.738   4.067   6.327  0.2826  1.1267  1.0173
  190SLPC  H12B21922   3.589   3.999   6.347  0.6349  0.1914  1.5257
  190SLPC   C1121923   3.599   4.226   6.348  0.0017  0.5016 -0.1362
  190SLPC  H11A21924   3.592   4.225   6.459  0.1055 -0.5569 -0.1355
  190SLPC  H11B21925   3.495   4.243   6.313  1.0853  1.7332 -2.8716
  190SLPC     P21926   3.831   4.325   6.356 -0.0679  0.3744  0.1150
  190SLPC   O1321927   3.904   4.207   6.301 -0.1685  0.2534  0.3212
  190SLPC   O1421928   3.884   4.456   6.335 -0.0492 -0.0375 -0.7052
  190SLPC   O1221929   3.687   4.321   6.295  0.4293 -0.1486 -0.2851
  190SLPC   O1121930   3.817   4.299   6.509  0.1763  0.2375 -0.1600
  190SLPC    C121931   3.746   4.379   6.612 -0.6301 -0.5649  0.3663
  190SLPC    HA21932   3.756   4.487   6.588 -0.8445 -0.3378  1.2894
  190SLPC    HB21933   3.636   4.368   6.606 -0.9904  2.8389 -0.0595
  190SLPC    C221934   3.804   4.355   6.753  0.5774  0.0628  0.8675
  190SLPC    HS21935   3.766   4.440   6.814 -1.7828 -0.4876  0.2233
  190SLPC   O2121936   3.946   4.353   6.760  0.3586 -0.0609 -0.2701
  190SLPC   C2121937   3.991   4.480   6.731  0.2585 -1.0004  0.3821
  190SLPC   O2221938   3.919   4.577   6.739  0.5105  0.1962  0.4674
  190SLPC   C2221939   4.144   4.475   6.691 -0.0650 -0.0553 -0.4788
  190SLPC   H2R21940   4.187   4.377   6.718 -0.5154  0.7345  3.4049
  190SLPC   H2S21941   4.139   4.503   6.583 -1.6165 -0.1693 -0.4542
  190SLPC    C321942   3.755   4.230   6.820 -0.0087  0.3367  0.1052
  190SLPC    HX21943   3.813   4.224   6.914  1.3655 -1.2352 -0.8036
  190SLPC    HY21944   3.777   4.139   6.760  2.0263  0.2641  0.9291
  190SLPC   O3121945   3.609   4.239   6.830  0.1195  0.5179  0.0547
  190SLPC   C3121946   3.545   4.143   6.901  0.6484  0.1811  0.5709
  190SLPC   O3221947   3.605   4.050   6.952 -0.1757 -0.5327 -0.3421
  190SLPC   C3221948   3.390   4.162   6.903 -0.0011  0.2326  0.5574
  190SLPC   H2X21949   3.339   4.073   6.860  1.9295 -0.4992 -0.2491
  190SLPC   H2Y21950   3.355   4.227   6.820  0.1555  0.0066  0.3137
  190SLPC   C2321951   4.215   4.593   6.752 -0.3402 -0.4411  0.6729
  190SLPC   H3R21952   4.155   4.687   6.753  1.1520  0.5893 -1.3746
  190SLPC   H3S21953   4.304   4.612   6.688 -0.0052 -1.4332  0.8360
  190SLPC   C2421954   4.256   4.571   6.897 -0.0220  1.0554  1.9131
  190SLPC   H4R21955   4.336   4.637   6.936  2.9098  0.4374 -2.7177
  190SLPC   H4S21956   4.302   4.470   6.888  0.6598  1.5394 -0.2293
  190SLPC   C2521957   4.141   4.580   6.998  0.6403 -0.3324 -0.3295
  190SLPC   H5R21958   4.085   4.486   6.978  1.3362 -1.2098  1.7053
  190SLPC   H5S21959   4.068   4.663   6.982  3.1967  2.0044 -0.3133
  190SLPC   C2621960   4.181   4.582   7.144  0.6561  0.4357 -0.2313
  190SLPC   H6R21961   4.220   4.682   7.172  2.5856 -0.5412  0.7033
  190SLPC   H6S21962   4.265   4.511   7.162 -0.0609  0.0072  1.6314
  190SLPC   C2721963   4.057   4.543   7.232  0.1788 -0.0853 -0.2173
  190SLPC   H7R21964   4.024   4.439   7.212  0.9705 -0.2056 -0.9464
  190SLPC   H7S21965   3.965   4.594   7.197 -0.5414 -0.6656  0.8107
  190SLPC   C2821966   4.074   4.595   7.379 -0.2625  0.3768  0.1172
  190SLPC   H8R21967   3.981   4.562   7.430  0.4674 -1.9059  0.0338
  190SLPC   H8S21968   4.078   4.706   7.371  3.3779  0.3688  0.9340
  190SLPC   C2921969   4.203   4.556   7.451  0.0571 -0.3966  0.7063
  190SLPC   H9R21970   4.258   4.472   7.406 -0.4700 -1.2604  1.6581
  190SLPC  C21021971   4.247   4.621   7.564 -0.5496 -0.0842  0.5903
  190SLPC  H10R21972   4.337   4.591   7.619  0.1373  0.2194 -0.3695
  190SLPC  C21121973   4.163   4.727   7.633  0.0550  0.6722  1.1903
  190SLPC  H11R21974   4.134   4.809   7.564  0.5952 -0.2850 -0.2013
  190SLPC  H11S21975   4.230   4.782   7.704  1.2310 -0.6397  1.1041
  190SLPC  C21221976   4.034   4.681   7.700 -0.3490  0.1681  0.3488
  190SLPC  H12R21977   3.944   4.659   7.642  0.7926 -4.5415  0.1628
  190SLPC  C21321978   4.012   4.666   7.831 -0.1331 -0.2113 -0.1918
  190SLPC  H13R21979   3.910   4.640   7.865 -0.7996  1.7597 -0.6116
  190SLPC  C21421980   4.107   4.685   7.946 -0.6187 -0.2861 -0.2217
  190SLPC  H14R21981   4.212   4.673   7.912 -0.6329 -2.6161  0.4353
  190SLPC  H14S21982   4.090   4.611   8.027  0.4650 -0.7279 -0.3896
  190SLPC  C21521983   4.080   4.813   8.022 -0.0359  0.1534  0.0579
  190SLPC  H15R21984   3.972   4.821   8.048 -0.5506 -0.2623 -1.8912
  190SLPC  H15S21985   4.106   4.897   7.954 -1.5067  1.0248  0.5485
  190SLPC  C21621986   4.155   4.818   8.152 -0.1258 -0.3497  0.1153
  190SLPC  H16R21987   4.263   4.827   8.130  0.2014  0.9626  2.0606
  190SLPC  H16S21988   4.134   4.727   8.212  1.3087 -1.9112 -1.7110
  190SLPC  C21721989   4.103   4.941   8.240 -0.2930  0.6345  0.3519
  190SLPC  H17R21990   3.994   4.931   8.259 -0.1283  2.8577  2.8909
  190SLPC  H17S21991   4.115   5.035   8.181  0.5079  0.0871 -0.3561
  190SLPC  C21821992   4.160   4.940   8.377 -0.8251  0.0803  0.0884
  190SLPC  H18R21993   4.133   4.844   8.426  2.3893 -1.1311 -0.4006
  190SLPC  H18S21994   4.122   5.026   8.436 -0.4601  0.4687 -0.2329
  190SLPC  H18T21995   4.271   4.947   8.374 -0.7914 -1.1168 -1.9929
  190SLPC   C3321996   3.334   4.208   7.035  0.6609  0.2722 -0.0523
  190SLPC   H3X21997   3.225   4.224   7.017  0.2367 -1.0133  1.3068
  190SLPC   H3Y21998   3.386   4.303   7.060  2.6120 -0.9954  0.8574
  190SLPC   C3421999   3.354   4.111   7.148 -0.2682  0.0304  0.2188
  190SLPC   H4X22000   3.463   4.095   7.158 -0.3876 -0.9795 -0.0038
  190SLPC   H4Y22001   3.306   4.012   7.134 -3.7687  1.6225  0.4096
  190SLPC   C3522002   3.325   4.163   7.286 -0.3225  0.2873 -0.7087
  190SLPC   H5X22003   3.215   4.177   7.277 -0.1849  1.1147 -1.2168
  190SLPC   H5Y22004   3.369   4.262   7.314 -0.9175 -0.0736  1.5948
  190SLPC   C3622005   3.361   4.072   7.403 -0.0337 -0.4503  0.4200
  190SLPC   H6X22006   3.472   4.076   7.400 -0.1021  1.5132 -0.6792
  190SLPC   H6Y22007   3.328   3.966   7.398 -0.2812 -0.2656 -3.4772
  190SLPC   C3722008   3.311   4.118   7.534  0.2436 -0.0263 -0.0961
  190SLPC   H7X22009   3.201   4.134   7.533  0.3781  0.8917 -0.9381
  190SLPC   H7Y22010   3.382   4.197   7.568  1.7369 -1.4728  0.2384
  190SLPC   C3822011   3.322   4.009   7.641 -0.4338 -0.5610  1.0048
  190SLPC   H8X22012   3.424   3.967   7.629  0.4372  1.8523 -0.3097
  190SLPC   H8Y22013   3.248   3.929   7.619  1.3540 -1.2150 -3.0389
  190SLPC   C3922014   3.332   4.051   7.785  0.1875  0.1780  0.2946
  190SLPC   H9X22015   3.229   4.053   7.829 -0.2025 -2.0541 -0.4627
  190SLPC   H9Y22016   3.377   4.153   7.784  0.9658 -0.1402 -3.4535
  190SLPC  C31022017   3.400   3.962   7.890 -0.1228 -0.7459 -0.0429
  190SLPC  H10X22018   3.507   3.990   7.886 -0.7129  1.9283  1.3023
  190SLPC  H10Y22019   3.387   3.854   7.867 -0.4622 -0.3668 -1.7390
  190SLPC  C31122020   3.358   3.988   8.027 -0.1811  0.0447 -0.2310
  190SLPC  H11X22021   3.251   3.962   8.044 -0.3903  2.2223  2.1416
  190SLPC  H11Y22022   3.361   4.098   8.044 -0.8560  0.0545 -0.1878
  190SLPC  C31222023   3.436   3.910   8.139 -0.8847  0.0849  0.3830
  190SLPC  H12X22024   3.405   3.804   8.128 -3.2097  0.7889 -0.0542
  190SLPC  H12Y22025   3.388   3.936   8.236 -0.1446  2.8407  0.0289
  190SLPC  C31322026   3.585   3.934   8.151  0.1222  0.2960 -0.1517
  190SLPC  H13X22027   3.591   4.041   8.179 -0.9191  0.4332 -0.4225
  190SLPC  H13Y22028   3.635   3.915   8.054 -0.6026  0.2048 -0.5131
  190SLPC  C31422029   3.653   3.838   8.255 -0.0347 -0.3111 -0.7568
  190SLPC  H14X22030   3.585   3.826   8.343 -0.0685  2.1216 -0.4171
  190SLPC  H14Y22031   3.737   3.900   8.293 -0.7030  0.9968 -1.3852
  190SLPC  C31522032   3.699   3.697   8.212 -0.0823  1.0414  0.0768
  190SLPC  H15X22033   3.733   3.653   8.309  1.1837  0.4751 -0.6140
  190SLPC  H15Y22034   3.790   3.720   8.154  1.6039  0.1205  2.2583
  190SLPC  C31622035   3.593   3.598   8.155 -0.5719  0.5790 -0.4858
  190SLPC  H16X22036   3.570   3.662   8.067  1.3025  0.4260 -1.1122
  190SLPC  H16Y22037   3.501   3.593   8.218  0.3524 -1.1504  0.7562
  190SLPC  C31722038   3.625   3.447   8.126  0.1235  0.3187 -0.1662
  190SLPC  H17X22039   3.699   3.427   8.046 -1.5176 -0.4588 -1.5024
  190SLPC  H17Y22040   3.531   3.399   8.091 -1.4222  2.0266  1.5055
  190SLPC  C31822041   3.664   3.360   8.246  0.4964  0.5749 -0.7733
  190SLPC  H18X22042   3.699   3.256   8.229  0.8246  0.2739  1.5764
  190SLPC  H18Y22043   3.583   3.364   8.322  1.3780 -0.2775  0.2159
  190SLPC  H18Z22044   3.750   3.414   8.290  0.6411  0.8923 -1.4357
  191SLPC     N22045   3.187   0.575   5.895 -0.1763 -0.0786  0.4185
  191SLPC   C1322046   3.247   0.432   5.873  0.1148  0.6586 -0.1526
  191SLPC  H13A22047   3.240   0.400   5.770  0.8569 -0.7070  0.2176
  191SLPC  H13B22048   3.345   0.417   5.914  0.4741  2.5258 -0.2694
  191SLPC  H13C22049   3.185   0.372   5.938  0.7360  0.0239 -0.1428
  191SLPC   C1422050   3.182   0.612   6.042  0.2655  0.4006 -0.7611
  191SLPC  H14A22051   3.133   0.707   6.058 -0.9599 -0.6810  2.2351
  191SLPC  H14B22052   3.134   0.538   6.105  0.2475  2.3517  1.5812
  191SLPC  H14C22053   3.280   0.636   6.080 -0.1408  1.1306 -0.1616
  191SLPC   C1522054   3.047   0.607   5.843 -0.5805  1.1566  0.1967
  191SLPC  H15A22055   2.983   0.522   5.856  2.2363 -0.9417  0.9405
  191SLPC  H15B22056   2.991   0.685   5.892 -0.3431 -0.4620  3.1399
  191SLPC  H15C22057   3.050   0.620   5.735 -0.0688  0.6737  0.1473
  191SLPC   C1222058   3.281   0.669   5.822 -0.5875  0.4056  0.0516
  191SLPC  H12A22059   3.253   0.771   5.847 -3.1031 -0.3690  0.5300
  191SLPC  H12B22060   3.270   0.654   5.716  1.3857  0.9481 -0.2604
  191SLPC   C1122061   3.431   0.667   5.845  0.4551 -0.4960 -0.6966
  191SLPC  H11A22062   3.478   0.725   5.763 -0.1037 -0.8941 -1.2973
  191SLPC  H11B22063   3.471   0.564   5.834 -0.0662 -0.8164  0.3479
  191SLPC     P22064   3.574   0.658   6.067  0.0923 -0.1593 -0.1871
  191SLPC   O1322065   3.706   0.711   6.019 -0.2612 -0.1708  0.1867
  191SLPC   O1422066   3.540   0.677   6.209  0.2373 -0.1386 -0.4372
  191SLPC   O1222067   3.461   0.708   5.978  0.1905 -0.7188 -1.1474
  191SLPC   O1122068   3.580   0.506   6.041 -0.6121  0.0472  1.1671
  191SLPC    C122069   3.648   0.412   6.124  0.4935  0.0710  0.0119
  191SLPC    HA22070   3.692   0.329   6.066 -0.1289 -0.3865  0.1822
  191SLPC    HB22071   3.729   0.459   6.184 -0.9790  0.9203  1.3926
  191SLPC    C222072   3.555   0.335   6.229 -0.2093 -0.0572 -0.3936
  191SLPC    HS22073   3.468   0.287   6.180 -0.7573 -1.8292  2.2070
  191SLPC   O2122074   3.516   0.423   6.334  0.0620  0.4571 -0.7256
  191SLPC   C2122075   3.389   0.436   6.364 -0.4489  0.7628  0.5787
  191SLPC   O2222076   3.298   0.362   6.334 -0.1654  0.4978 -0.0436
  191SLPC   C2222077   3.372   0.560   6.465 -0.7782 -0.0417 -0.2374
  191SLPC   H2R22078   3.470   0.605   6.492  0.1183 -1.7926 -0.5321
  191SLPC   H2S22079   3.306   0.638   6.421  0.0097  3.1032  3.8245
  191SLPC    C322080   3.642   0.218   6.293 -0.1949  0.3264 -0.5320
  191SLPC    HX22081   3.745   0.256   6.309  0.7934 -2.4317 -0.0553
  191SLPC    HY22082   3.660   0.137   6.219  0.1255 -1.3452  1.3276
  191SLPC   O3122083   3.587   0.172   6.424  0.3674  0.1427 -0.0702
  191SLPC   C3122084   3.491   0.090   6.410  0.4666  1.2441  0.2901
  191SLPC   O3222085   3.443   0.045   6.309  0.1686 -0.1338  0.2279
  191SLPC   C3222086   3.477   0.033   6.550 -0.1509  0.2719 -0.0588
  191SLPC   H2X22087   3.496   0.112   6.626 -0.7912 -1.5411  2.0542
  191SLPC   H2Y22088   3.553  -0.047   6.563 -0.7956 -0.0913  1.7363
  191SLPC   C2322089   3.299   0.510   6.587  0.7539  0.1548  0.2889
  191SLPC   H3R22090   3.213   0.447   6.557  0.3758  0.9445 -0.2841
  191SLPC   H3S22091   3.255   0.599   6.638 -0.7612 -1.0717  1.1662
  191SLPC   C2422092   3.389   0.424   6.681  0.6832 -0.1399 -0.0014
  191SLPC   H4R22093   3.459   0.495   6.730 -1.0107  0.7928  1.0944
  191SLPC   H4S22094   3.457   0.351   6.632  1.2057  0.1043  0.3531
  191SLPC   C2522095   3.303   0.353   6.792 -0.1014 -0.0273 -0.8749
  191SLPC   H5R22096   3.239   0.275   6.745  0.0991 -1.4127  1.1363
  191SLPC   H5S22097   3.231   0.425   6.837 -0.8172 -3.2173  3.3467
  191SLPC   C2622098   3.386   0.305   6.908  0.5648 -0.0716  0.0529
  191SLPC   H6R22099   3.433   0.387   6.968 -2.1537 -0.4121  2.8047
  191SLPC   H6S22100   3.465   0.238   6.869 -0.3569 -0.4542 -1.1576
  191SLPC   C2722101   3.311   0.216   7.004 -0.2116 -0.2176  0.2944
  191SLPC   H7R22102   3.277   0.129   6.943  1.4136  0.4426 -1.6152
  191SLPC   H7S22103   3.218   0.261   7.045  0.8057  0.7240  1.6284
  191SLPC   C2822104   3.401   0.173   7.122  0.4057  0.7498  0.4478
  191SLPC   H8R22105   3.503   0.155   7.082  0.7645  2.0259  0.7714
  191SLPC   H8S22106   3.364   0.078   7.166 -0.0453  0.3297 -0.8055
  191SLPC   C2922107   3.419   0.279   7.224 -0.2333  0.1487  0.1806
  191SLPC   H9R22108   3.432   0.378   7.179  0.1424  0.2506  0.5071
  191SLPC  C21022109   3.442   0.264   7.357  0.0059  0.5147 -0.3826
  191SLPC  H10R22110   3.456   0.352   7.422  0.7311 -0.5784  0.9769
  191SLPC  C21122111   3.452   0.138   7.438  1.0372  0.0172 -0.0123
  191SLPC  H11R22112   3.557   0.122   7.470  0.9904 -1.3004 -0.5173
  191SLPC  H11S22113   3.447   0.049   7.373  0.3050  0.3051 -0.3495
  191SLPC  C21222114   3.349   0.104   7.544  0.0877 -1.1203  0.0524
  191SLPC  H12R22115   3.248   0.090   7.503  0.0641  0.2751 -0.4045
  191SLPC  C21322116   3.366   0.103   7.680 -0.0832 -0.0720  0.1292
  191SLPC  H13R22117   3.274   0.087   7.737  0.7828 -2.5394  0.9202
  191SLPC  C21422118   3.498   0.124   7.758  0.1980 -0.3358 -0.8151
  191SLPC  H14R22119   3.583   0.135   7.688 -0.2009  2.3313 -0.9480
  191SLPC  H14S22120   3.513   0.046   7.836 -0.3672 -1.1229 -1.4752
  191SLPC  C21522121   3.476   0.267   7.827  0.6821 -0.2810  0.5987
  191SLPC  H15R22122   3.437   0.337   7.751 -2.6702 -2.5291  0.1692
  191SLPC  H15S22123   3.577   0.308   7.848  0.0689  0.6622  1.7735
  191SLPC  C21622124   3.380   0.269   7.949  0.6637  1.0264 -0.6648
  191SLPC  H16R22125   3.276   0.242   7.922  0.4689  0.6595  0.4525
  191SLPC  H16S22126   3.368   0.373   7.985  0.1241  0.7560 -0.0720
  191SLPC  C21722127   3.435   0.182   8.066 -0.6122  0.2552  0.2937
  191SLPC  H17R22128   3.423   0.074   8.045 -0.4449  0.1078  0.9475
  191SLPC  H17S22129   3.376   0.193   8.159  0.3706  0.6725  0.8783
  191SLPC  C21822130   3.582   0.201   8.096 -0.7327 -0.0076  0.5078
  191SLPC  H18R22131   3.614   0.306   8.109  0.9397 -0.4182 -0.2249
  191SLPC  H18S22132   3.640   0.173   8.005 -1.9975  1.6098 -0.8321
  191SLPC  H18T22133   3.612   0.137   8.182 -1.7705 -1.0054  0.1508
  191SLPC   C3322134   3.345  -0.031   6.588  0.7121 -0.1714 -0.2436
  191SLPC   H3X22135   3.328  -0.111   6.513 -0.2514  1.5419 -1.8949
  191SLPC   H3Y22136   3.259   0.036   6.566 -0.9715 -2.6583 -1.3786
  191SLPC   C3422137   3.317  -0.088   6.723 -0.4399  0.2054 -0.2469
  191SLPC   H4X22138   3.221  -0.143   6.716 -1.6729  1.9897  1.6108
  191SLPC   H4Y22139   3.304  -0.005   6.796  0.3701  1.9709 -2.0486
  191SLPC   C3522140   3.427  -0.185   6.779 -0.4305  0.7766  0.2317
  191SLPC   H5X22141   3.511  -0.119   6.811  0.4106  0.1057 -0.5787
  191SLPC   H5Y22142   3.444  -0.255   6.695 -1.9761 -0.4410  0.9126
  191SLPC   C3622143   3.376  -0.276   6.894  0.1890 -0.4507 -0.4886
  191SLPC   H6X22144   3.436  -0.369   6.901 -1.4804 -1.5468 -0.5219
  191SLPC   H6Y22145   3.278  -0.313   6.859 -0.8799  1.2667  0.6114
  191SLPC   C3722146   3.358  -0.202   7.036 -0.3013  1.0318 -0.6641
  191SLPC   H7X22147   3.271  -0.133   7.039 -0.3362  0.9646  0.1859
  191SLPC   H7Y22148   3.448  -0.139   7.052 -1.5860  2.6737  0.2750
  191SLPC   C3822149   3.348  -0.304   7.151  0.0028  0.0614 -0.1445
  191SLPC   H8X22150   3.450  -0.348   7.147  0.0974  0.2827 -0.1157
  191SLPC   H8Y22151   3.276  -0.382   7.117 -1.6702  0.8779  1.4060
  191SLPC   C3922152   3.307  -0.247   7.285 -0.1158  0.8504  0.3733
  191SLPC   H9X22153   3.200  -0.219   7.275  0.1739  1.5440 -0.9054
  191SLPC   H9Y22154   3.366  -0.153   7.294  0.1280  0.9436 -1.9177
  191SLPC  C31022155   3.317  -0.340   7.406 -0.0832 -0.0135  0.2911
  191SLPC  H10X22156   3.410  -0.400   7.401  2.2176  3.3751  0.9452
  191SLPC  H10Y22157   3.230  -0.410   7.409  0.2035 -0.3705  0.3464
  191SLPC  C31122158   3.323  -0.256   7.536 -0.1014 -0.5732 -0.1849
  191SLPC  H11X22159   3.230  -0.194   7.530  0.5839  0.3297 -1.5214
  191SLPC  H11Y22160   3.418  -0.201   7.549 -0.2701 -0.2760 -0.1951
  191SLPC  C31222161   3.307  -0.344   7.655  0.0412  0.7007 -0.1973
  191SLPC  H12X22162   3.382  -0.423   7.635 -0.6835  1.0880 -5.1435
  191SLPC  H12Y22163   3.208  -0.394   7.657  0.1805  0.4407  0.5732
  191SLPC  C31322164   3.327  -0.261   7.786 -0.8199 -0.7537  0.1095
  191SLPC  H13X22165   3.254  -0.177   7.793  0.0671  0.0149  0.1851
  191SLPC  H13Y22166   3.428  -0.217   7.797 -0.8652 -0.9398  1.3507
  191SLPC  C31422167   3.297  -0.342   7.910  0.2453 -0.2900 -0.5366
  191SLPC  H14X22168   3.363  -0.431   7.918  3.1756  1.8942  0.5052
  191SLPC  H14Y22169   3.194  -0.383   7.900  0.3399 -0.5958 -0.2565
  191SLPC  C31522170   3.294  -0.268   8.043  0.7361 -0.3024 -0.1729
  191SLPC  H15X22171   3.217  -0.189   8.031  1.1045  0.2656  1.1490
  191SLPC  H15Y22172   3.389  -0.216   8.063 -0.8127  2.5912 -0.1233
  191SLPC  C31622173   3.245  -0.356   8.159  0.0463 -0.9303 -0.3944
  191SLPC  H16X22174   3.150  -0.411   8.143 -1.2921  0.6639  1.6638
  191SLPC  H16Y22175   3.213  -0.288   8.242 -0.7358 -1.6417 -0.1029
  191SLPC  C31722176   3.360  -0.440   8.218  0.2867 -0.4725 -0.5673
  191SLPC  H17X22177   3.452  -0.378   8.220  0.5819 -0.9246  1.3800
  191SLPC  H17Y22178   3.391  -0.513   8.141  1.5334 -1.3832  0.7733
  191SLPC  C31822179   3.326  -0.508   8.355  1.0282  0.2355 -0.0934
  191SLPC  H18X22180   3.225  -0.553   8.360  1.6807 -1.5845 -2.3955
  191SLPC  H18Y22181   3.342  -0.437   8.439 -0.8392  2.9259 -1.9457
  191SLPC  H18Z22182   3.394  -0.593   8.378 -2.2451 -2.8214 -1.1665
  192SLPC     N22183   4.249   0.918   6.272  0.5977  0.4392  0.4734
  192SLPC   C1322184   4.391   0.945   6.333 -0.6171 -1.1316  0.2668
  192SLPC  H13A22185   4.460   0.979   6.258 -0.0243  0.0826  1.3567
  192SLPC  H13B22186   4.383   1.009   6.420 -0.0265 -0.4426 -0.1822
  192SLPC  H13C22187   4.429   0.851   6.370 -1.2149 -0.9081  1.4770
  192SLPC   C1422188   4.272   0.835   6.148  0.0098 -0.2466  0.5209
  192SLPC  H14A22189   4.351   0.885   6.093  1.0400 -0.9181  1.3648
  192SLPC  H14B22190   4.314   0.741   6.178  1.7538  0.2939 -0.1440
  192SLPC  H14C22191   4.186   0.827   6.083 -0.2119  1.5821  0.5370
  192SLPC   C1522192   4.196   1.052   6.220  0.2462 -0.1481 -0.0828
  192SLPC  H15A22193   4.206   1.129   6.295 -2.9168  1.4335 -1.2193
  192SLPC  H15B22194   4.258   1.065   6.133  0.1662  1.2422  0.0542
  192SLPC  H15C22195   4.091   1.056   6.195 -0.3638 -2.5412  1.9557
  192SLPC   C1222196   4.156   0.848   6.362 -0.5227 -0.3073 -0.2195
  192SLPC  H12A22197   4.175   0.742   6.353 -0.0675 -0.1236 -1.5160
  192SLPC  H12B22198   4.056   0.856   6.322 -0.0317  0.8077 -1.2505
  192SLPC   C1122199   4.146   0.885   6.516  0.1845  0.3319  0.6415
  192SLPC  H11A22200   4.240   0.853   6.567 -0.3995  0.0557  1.5692
  192SLPC  H11B22201   4.067   0.826   6.567 -0.1656 -0.2517 -0.5735
  192SLPC     P22202   3.977   1.074   6.507  0.2830 -0.1989 -0.3075
  192SLPC   O1322203   3.973   1.216   6.537  0.0837 -0.4827 -0.9573
  192SLPC   O1422204   3.917   1.036   6.380  0.1654 -0.4191 -0.4432
  192SLPC   O1222205   4.130   1.028   6.520 -1.0421 -0.1763  0.0734
  192SLPC   O1122206   3.907   0.999   6.630  0.6675  0.2872 -0.4202
  192SLPC    C122207   3.921   1.049   6.762 -0.7349  0.1320  0.1486
  192SLPC    HA22208   4.020   1.095   6.783 -0.2505 -0.0308 -1.6580
  192SLPC    HB22209   3.843   1.127   6.773 -0.1212  0.7057  0.4424
  192SLPC    C222210   3.898   0.950   6.869  0.0468  0.4435 -0.1324
  192SLPC    HS22211   3.976   0.872   6.857 -0.2757 -0.0599  0.9774
  192SLPC   O2122212   3.762   0.901   6.853 -0.3537  0.3363  0.4304
  192SLPC   C2122213   3.730   0.784   6.899  0.2456 -0.2491 -0.1589
  192SLPC   O2222214   3.816   0.702   6.935 -0.1895  0.0928 -0.1695
  192SLPC   C2222215   3.580   0.759   6.905  0.6975 -0.8468 -0.4163
  192SLPC   H2R22216   3.531   0.846   6.955 -1.0656 -3.4537  2.5673
  192SLPC   H2S22217   3.538   0.738   6.805  3.9918  1.5591 -2.4335
  192SLPC    C322218   3.902   1.007   7.023 -1.3861 -0.1226  0.1563
  192SLPC    HX22219   3.818   1.080   7.026  1.1054  2.9340 -1.1354
  192SLPC    HY22220   3.991   1.070   7.040 -1.2400 -0.0612 -0.7764
  192SLPC   O3122221   3.882   0.910   7.127 -0.6205  0.6224 -0.0429
  192SLPC   C3122222   3.998   0.851   7.156 -0.3210  0.7148  0.7340
  192SLPC   O3222223   4.107   0.878   7.114 -0.4024  0.1108 -0.4113
  192SLPC   C3222224   3.967   0.728   7.244 -0.0729 -0.5993  0.4683
  192SLPC   H2X22225   3.958   0.649   7.166 -0.8716 -1.3607  1.3327
  192SLPC   H2Y22226   3.869   0.732   7.296 -1.3101 -1.2860 -1.7377
  192SLPC   C2322227   3.547   0.639   6.995 -0.9420 -0.1038 -0.1627
  192SLPC   H3R22228   3.615   0.552   6.985 -0.3553  0.3391 -0.0500
  192SLPC   H3S22229   3.443   0.604   6.978 -0.3454 -1.3442 -1.3208
  192SLPC   C2422230   3.569   0.671   7.152  0.0535 -0.6213  0.0243
  192SLPC   H4R22231   3.666   0.723   7.158 -0.1613 -0.2498  0.2812
  192SLPC   H4S22232   3.578   0.577   7.212 -0.4236 -0.1526  0.8369
  192SLPC   C2522233   3.466   0.763   7.214 -0.3218 -0.0019  0.1500
  192SLPC   H5R22234   3.371   0.755   7.157 -0.4030  2.9037 -0.1666
  192SLPC   H5S22235   3.490   0.870   7.203  1.1090 -0.3492 -0.1598
  192SLPC   C2622236   3.435   0.725   7.354 -0.3333  0.2739 -0.3532
  192SLPC   H6R22237   3.434   0.615   7.364  0.1918  0.2182 -0.8662
  192SLPC   H6S22238   3.335   0.758   7.392 -2.3349 -3.1572 -2.3879
  192SLPC   C2722239   3.559   0.763   7.440 -0.1017 -0.3898  0.6797
  192SLPC   H7R22240   3.559   0.874   7.440 -1.0690 -0.3760  2.2460
  192SLPC   H7S22241   3.653   0.734   7.389  0.4938 -0.7625  1.9605
  192SLPC   C2822242   3.556   0.723   7.579  1.1581 -0.0846 -0.1486
  192SLPC   H8R22243   3.649   0.756   7.629  1.0128  1.3307 -0.7894
  192SLPC   H8S22244   3.569   0.612   7.576 -0.8779 -0.3800  0.7077
  192SLPC   C2922245   3.437   0.774   7.660 -0.1133 -0.4049  0.3183
  192SLPC   H9R22246   3.382   0.855   7.611 -0.8570  0.5295  2.6329
  192SLPC  C21022247   3.378   0.723   7.769 -0.1629  1.1998  0.0581
  192SLPC  H10R22248   3.284   0.766   7.807 -0.9678 -1.6050  1.3672
  192SLPC  C21122249   3.434   0.609   7.856 -0.3461  1.0019 -0.1483
  192SLPC  H11R22250   3.526   0.567   7.809 -2.4784 -0.4993 -3.1253
  192SLPC  H11S22251   3.355   0.531   7.861  0.5320  0.1486  0.5537
  192SLPC  C21222252   3.448   0.669   7.986  0.0372 -0.1079 -0.8676
  192SLPC  H12R22253   3.552   0.697   8.009 -0.0202 -2.1136  2.2669
  192SLPC  C21322254   3.351   0.699   8.079 -0.6091 -0.1419 -0.2005
  192SLPC  H13R22255   3.400   0.728   8.173  1.6734  1.9338 -1.9698
  192SLPC  C21422256   3.203   0.684   8.091 -0.0686  0.4516  0.0840
  192SLPC  H14R22257   3.156   0.647   7.998  1.9195 -0.8929 -0.4307
  192SLPC  H14S22258   3.145   0.778   8.101  1.6502  1.4964  0.5353
  192SLPC  C21522259   3.157   0.601   8.209  0.3635 -0.2553  0.1865
  192SLPC  H15R22260   3.046   0.603   8.207  0.2744 -2.8197  0.6924
  192SLPC  H15S22261   3.196   0.648   8.301 -0.5475 -3.0043  2.0241
  192SLPC  C21622262   3.198   0.453   8.203  0.2419  0.1550  0.6726
  192SLPC  H16R22263   3.304   0.437   8.234  0.1169 -0.8745  0.5691
  192SLPC  H16S22264   3.191   0.417   8.098  0.8251  1.6053  0.1196
  192SLPC  C21722265   3.105   0.358   8.287  0.3921 -0.4722  0.0727
  192SLPC  H17R22266   3.099   0.405   8.387 -0.5422 -0.0736 -0.1631
  192SLPC  H17S22267   3.009   0.362   8.230  1.4300 -0.6596 -1.7157
  192SLPC  C21822268   3.140   0.211   8.300  0.0045  0.2745 -0.2223
  192SLPC  H18R22269   3.150   0.190   8.191 -0.8780 -0.7220 -0.1103
  192SLPC  H18S22270   3.060   0.143   8.336 -0.6898  2.8093  3.2743
  192SLPC  H18T22271   3.238   0.195   8.350 -0.9068  1.0365  1.8754
  192SLPC   C3322272   4.090   0.689   7.330  0.0658  0.1248  0.1438
  192SLPC   H3X22273   4.182   0.681   7.268  0.6561  1.6255  0.8066
  192SLPC   H3Y22274   4.080   0.584   7.368  1.0027  0.3452  1.0210
  192SLPC   C3422275   4.116   0.803   7.439 -0.4854  0.3001 -0.0424
  192SLPC   H4X22276   4.102   0.904   7.396  0.1521  0.6324  0.5208
  192SLPC   H4Y22277   4.221   0.793   7.473 -1.1456 -0.1337  1.8965
  192SLPC   C3522278   4.029   0.788   7.562  1.0775 -0.7719 -0.1302
  192SLPC   H5X22279   4.011   0.684   7.597 -1.0938  0.1304  1.5349
  192SLPC   H5Y22280   3.928   0.831   7.548  0.2674 -2.7364 -0.3380
  192SLPC   C3622281   4.100   0.860   7.680 -0.3230  0.0425 -0.0155
  192SLPC   H6X22282   4.131   0.961   7.644  1.0257  0.3329  1.8576
  192SLPC   H6Y22283   4.191   0.803   7.709  1.3088  1.1859 -2.6611
  192SLPC   C3722284   4.007   0.856   7.796  0.6027  0.6343 -0.2373
  192SLPC   H7X22285   3.990   0.752   7.833  3.9835  0.5314  1.1898
  192SLPC   H7Y22286   3.901   0.884   7.776 -0.4540 -1.5582  1.9550
  192SLPC   C3822287   4.068   0.938   7.913 -0.1175  0.7327  0.5196
  192SLPC   H8X22288   4.050   1.042   7.879  1.4374  1.3007  1.3528
  192SLPC   H8Y22289   4.173   0.913   7.941 -0.6112  0.4082  2.1000
  192SLPC   C3922290   3.983   0.920   8.042  0.3441 -1.2302  0.3404
  192SLPC   H9X22291   3.988   0.818   8.084 -2.8518 -1.5196  0.1733
  192SLPC   H9Y22292   3.875   0.938   8.021  0.8758  1.7122 -0.0707
  192SLPC  C31022293   4.037   1.026   8.143  0.8198  0.3164  0.3456
  192SLPC  H10X22294   4.030   1.123   8.089 -2.6493  1.4908  2.7463
  192SLPC  H10Y22295   4.144   1.002   8.156  0.4424 -0.4846  2.0479
  192SLPC  C31122296   3.977   1.028   8.283 -0.2942  0.2427 -0.6287
  192SLPC  H11X22297   3.976   0.922   8.316 -3.1717  0.0116 -1.2669
  192SLPC  H11Y22298   3.868   1.050   8.274  0.0485  1.9651 -0.6949
  192SLPC  C31222299   4.047   1.121   8.389  0.3918  0.3071  0.5551
  192SLPC  H12X22300   4.156   1.111   8.374  0.4944  1.5450  0.4360
  192SLPC  H12Y22301   4.012   1.091   8.490 -0.3054  2.1325  0.8848
  192SLPC  C31322302   4.018   1.276   8.376  0.2503  0.1880 -0.8491
  192SLPC  H13X22303   3.909   1.295   8.385  0.2543 -0.7510  1.4603
  192SLPC  H13Y22304   4.040   1.315   8.274 -0.0637 -0.1383 -1.0459
  192SLPC  C31422305   4.095   1.351   8.485  0.1747  0.5312 -0.0845
  192SLPC  H14X22306   4.065   1.458   8.482 -2.2784 -0.0566  1.8670
  192SLPC  H14Y22307   4.204   1.333   8.477 -0.1279 -2.9076  2.4935
  192SLPC  C31522308   4.062   1.309   8.631 -0.9312  0.2946 -0.2668
  192SLPC  H15X22309   4.138   1.358   8.696 -0.3324 -0.3047 -0.5104
  192SLPC  H15Y22310   4.069   1.200   8.650 -1.3838  0.4467  0.8108
  192SLPC  C31622311   3.913   1.343   8.676 -0.3225 -0.7197  0.2902
  192SLPC  H16X22312   3.897   1.310   8.781  1.1112  1.4352  1.2112
  192SLPC  H16Y22313   3.850   1.280   8.610  0.6437 -0.5934 -0.7714
  192SLPC  C31722314   3.874   1.499   8.671 -0.5538  0.2753  1.1278
  192SLPC  H17X22315   3.864   1.530   8.565 -0.4403 -0.2023  0.9776
  192SLPC  H17Y22316   3.959   1.553   8.718 -0.3258 -0.1172  1.1683
  192SLPC  C31822317   3.746   1.534   8.743  0.2029 -0.1180 -0.0370
  192SLPC  H18X22318   3.765   1.526   8.852 -1.7708  0.6374  0.3927
  192SLPC  H18Y22319   3.667   1.456   8.730 -0.2482 -0.2670  3.2016
  192SLPC  H18Z22320   3.711   1.638   8.723 -2.2982 -1.0995 -1.0735
  193SOD    SOD22321   1.087   0.393   4.112 -0.0865 -0.3103 -0.5099
  194SOD    SOD22322   3.275   3.084  16.300 -0.6244  0.0649  0.0244
  195SOD    SOD22323   3.364   4.606  13.185  0.0929  0.6057 -0.1429
  196SOD    SOD22324   2.864   3.390   5.703  0.2613 -0.2217  0.4419
  197SOD    SOD22325   2.714   0.123   5.865  0.1454  0.6036 -0.1500
  198SOD    SOD22326   2.601   5.311   5.036 -0.5867  0.5771  0.3006
  199SOD    SOD22327   6.320   0.457   5.665  0.1033 -0.4165  0.2236
  200SOD    SOD22328   5.654   4.870  13.631 -0.5553 -0.1923 -0.2748
  201SOD    SOD22329   3.580   3.291   5.428 -0.3794  0.3711 -0.2191
  202SOD    SOD22330   3.327   1.843  16.223  0.2275 -0.3297 -0.2155
  203SOD    SOD22331   3.855   2.522   0.843 -0.2423  0.3718 -0.3891
  204SOD    SOD22332   4.716   1.336  17.046 -0.2824  0.2199  0.8132
  205SOD    SOD22333   0.255   3.096   6.153 -0.0176 -0.2838  0.5613
  206SOD    SOD22334   3.632   1.253  15.399 -0.4295  0.3923  0.5074
  207SOD    SOD22335   6.544   6.214  14.382 -0.1838  0.2856 -0.3116
  208SOD    SOD22336   1.486   4.937  17.042  0.0013 -0.2690 -0.0418
  209SOD    SOD22337   6.229   3.576   1.777 -0.3064  0.3170  0.1586
  210SOD    SOD22338   2.540   1.784   2.167 -0.1127  0.2391  0.4166
  211SOD    SOD22339   3.467   1.007  14.313 -0.2272  1.0561  0.8397
  212SOD    SOD22340   2.402   2.153  11.275 -0.5919 -0.8388  0.2636
  213SOD    SOD22341   6.602   4.757  10.688 -0.2327  0.0514 -0.2012
  214SOD    SOD22342   3.590   1.690   0.045  0.1116  0.1867  0.3018
  215SOD    SOD22343   6.539   4.554   5.112 -0.1270  0.7566 -0.3555
  216SOD    SOD22344   5.130   5.538  14.982  0.2156  0.3994 -0.1800
  217SOD    SOD22345   1.955   0.238   5.600  0.5868  0.0423  0.2242
  218SOD    SOD22346   5.635   5.252   1.765 -0.2556  0.4317 -0.3543
  219SOD    SOD22347   6.714   4.291   5.296 -0.1962 -0.1492  0.4870
  220SOD    SOD22348   1.982   5.898  12.828  0.1867 -0.1153 -0.1923
  221SOD    SOD22349   4.388   2.145  17.266 -0.1445  0.0637 -0.1925
  222SOD    SOD22350   1.467   4.118  12.136 -0.3160  0.1282  0.0946
  223SOD    SOD22351   3.473   5.272   4.147  0.0657  0.7174 -0.1512
  224SOD    SOD22352   4.460   1.788   1.037  0.1254  0.1160 -0.2123
  225SOD    SOD22353   4.905   4.676  13.575 -0.1983 -0.6516  0.0894
  226SOD    SOD22354   0.486   4.609   0.278 -0.2293 -0.2672  0.7731
  227SOD    SOD22355   6.376   3.413  10.728 -0.1146 -0.2694 -0.0046
  228SOD    SOD22356   0.847   6.068  13.611  0.3555  0.1164 -0.3628
  229SOD    SOD22357   0.069   5.593   1.589  0.1059  0.1896  0.1931
  230SOD    SOD22358   2.710   2.602   4.216 -0.0665 -0.2342  0.2992
  231SOD    SOD22359   4.470   0.473   6.014 -0.4085 -0.1780 -0.2224
  232SOD    SOD22360   3.589   5.897  16.538 -0.0051  0.3446 -0.3906
  233SOD    SOD22361   5.129   2.369   6.565  0.0025 -0.2365 -0.5443
  234SOD    SOD22362   4.146   0.873   3.166  0.0331  0.3509  0.1311
  235SOD    SOD22363   0.417   4.369  11.324 -0.0497 -0.5326 -0.1977
  236SOD    SOD22364   4.337   4.736   3.728 -0.3600 -0.2098 -0.0193
  237SOD    SOD22365   2.579   5.265  11.012 -0.0134 -0.0319  0.3360
  238SOD    SOD22366   6.763   3.304  12.554  0.4515 -0.1593  0.5197
  239SOD    SOD22367   3.015   1.675  10.594  0.2357 -0.2983  0.1272
  240SOD    SOD22368   4.262   0.270   1.010 -0.5235  0.4937 -0.1995
  241SOD    SOD22369   2.862   6.582   2.146  0.4283  0.4810 -0.2184
  242SOD    SOD22370   3.615   1.143  12.912  0.2840 -0.0953 -0.0262
  243SOD    SOD22371   5.768   6.051   1.987  0.6418 -0.0669 -0.3429
  244SOD    SOD22372   1.821   0.964  10.827  0.0896 -0.5320 -0.3430
  245SOD    SOD22373   0.225   4.778   1.974 -0.2824  0.6119 -0.2956
  246SOD    SOD22374   4.133   5.640   0.889  0.0598 -0.1741  0.1423
  247SOD    SOD22375   1.269   6.542   3.556  0.6155 -0.0691  0.6760
  248SOD    SOD22376   1.012   3.762  10.808 -0.0882 -0.6038  0.1873
  249SOD    SOD22377   3.838   3.708   3.262 -0.4540 -0.5672  0.0634
  250SOD    SOD22378   6.099   3.551   3.657 -0.3151  0.2774 -0.4203
  251SOD    SOD22379   2.019   4.844  10.708  0.1769 -0.0487 -0.2581
  252SOD    SOD22380   4.884   5.050  16.401  0.3014 -0.3293 -0.1068
  253SOD    SOD22381   6.193   2.607   0.901  0.1868 -0.1845 -0.1875
  254SOD    SOD22382   0.832   4.682   6.379  0.7083  0.3195 -0.6048
  255SOD    SOD22383   5.078   5.198  10.835 -0.0338  0.3317 -0.2908
  256SOD    SOD22384   0.417   0.267  11.904 -0.4229  0.0866 -0.1635
  257SOD    SOD22385   2.482   4.318   5.386 -0.0676  0.2760  0.0169
  258SOD    SOD22386   1.667   0.268   0.452  0.5201  0.0591 -0.0598
  259SOD    SOD22387   1.788   2.657  12.729  0.1013 -0.5270  0.0830
  260SOD    SOD22388   3.733   1.711  13.103  0.0688  0.2933  0.2242
  261SOD    SOD22389   5.119   3.746   5.772  0.7431 -0.1432  0.2542
  262SOD    SOD22390   3.111   1.989  14.327  0.0145 -0.1809  0.2928
  263SOD    SOD22391   0.097   1.257  14.353  0.8504  0.3807 -0.2624
  264SOD    SOD22392   0.524   0.404   3.736  0.1266 -0.1714  0.1171
  265SOD    SOD22393   4.151   3.219   1.542  0.0398 -0.1417 -0.0596
  266CLA    CLA22394   4.527   3.157  15.227 -0.2327 -0.0115  0.4102
  267CLA    CLA22395   6.436   6.075  12.547 -0.1135 -0.2051  0.1730
  268CLA    CLA22396   5.317   5.199   0.263  0.1151  0.0779  0.1053
  269CLA    CLA22397   1.449   3.061  16.123 -0.2654 -0.3416 -0.0231
  270CLA    CLA22398   0.907   1.171  14.059  0.3142 -0.2321  0.4315
  271CLA    CLA22399   2.961   4.130   5.416  0.4604  0.2015 -0.3954
  272CLA    CLA22400   3.882   4.207   4.886 -0.1269  0.1363 -0.1412
  273CLA    CLA22401   6.415   5.209  16.667  0.0553  0.0648  0.2538
  274CLA    CLA22402   3.334   2.579   0.444  0.0271 -0.0275  0.0026
  275CLA    CLA22403   3.631   4.248  15.407 -0.2052  0.2353 -0.0847
  276CLA    CLA22404   0.398   0.948   4.997  0.0016  0.0762  0.2340
  277CLA    CLA22405   6.461   1.749   2.400 -0.1076 -0.3552 -0.1937
  278CLA    CLA22406   4.892   1.648   1.320 -0.0112  0.0691 -0.0797
  279CLA    CLA22407   6.167   0.743  13.372 -0.0410  0.0129 -0.0807
  280CLA    CLA22408   2.416   4.989  15.318 -0.0644  0.1655  0.1520
  281CLA    CLA22409   3.460   6.535  13.648  0.1467  0.3844  0.4392
  282CLA    CLA22410   4.191   5.459  11.643 -0.1293  0.1872  0.0969
  283CLA    CLA22411   0.756   3.428   0.896  0.0453 -0.1809 -0.2702
  284CLA    CLA22412   1.981   2.340  16.133 -0.0596 -0.3511  0.3966
  285CLA    CLA22413   0.861   4.905  13.456 -0.2051  0.1089  0.0135
  286CLA    CLA22414   2.538   1.724  15.401  0.1014 -0.5875  0.0882
  287CLA    CLA22415   6.433   5.835   1.604  0.1127  0.0872  0.0490
  288CLA    CLA22416   3.868   3.187   0.988  0.0801 -0.1734  0.0756
  289CLA    CLA22417   3.099   6.641   4.481 -0.0886 -0.4656 -0.2863
  290CLA    CLA22418   3.326   2.245  15.666  0.1304  0.4079  0.0420
  291CLA    CLA22419   3.738   6.036  17.271 -0.0921 -0.0033  0.2202
  292CLA    CLA22420   3.064   0.603   1.902  0.0253 -0.0611  0.1737
  293CLA    CLA22421   2.389   5.655   2.599  0.3369 -0.0775  0.2037
  294CLA    CLA22422   5.507   4.456   4.368  0.2099  0.1586  0.0606
  295CLA    CLA22423   3.811   4.456   4.393  0.1740 -0.0263 -0.1063
  296CLA    CLA22424   4.213   1.109  12.603  0.3951 -0.1024  0.3281
  297CLA    CLA22425   1.796   3.077   5.759  0.0314 -0.1905  0.1099
  298CLA    CLA22426   0.087   1.550   3.168  0.1979  0.1445 -0.1545
  299CLA    CLA22427   4.408   2.040  13.592 -0.0567 -0.1038  0.3722
  300CLA    CLA22428   5.077   2.645  15.190  0.0394  0.3756  0.0441
  301CLA    CLA22429   0.649   0.069   4.489 -0.0142  0.1874 -0.1572
  302CLA    CLA22430   5.940   4.780  12.429  0.1785 -0.1306 -0.0412
  303CLA    CLA22431   1.212   3.804   5.182  0.5981  0.1025  0.3138
  304CLA    CLA22432   5.821   6.627  14.108 -0.0851 -0.1149  0.1966
  305CLA    CLA22433   4.573   4.294  15.964  0.1122  0.0002  0.2735
  306CLA    CLA22434   2.744   1.496  11.573 -0.3700  0.3960 -0.2736
  307CLA    CLA22435   6.460   2.107   5.022  0.0135  0.1446  0.1361
  308CLA    CLA22436   5.075   6.279  16.008  0.4228 -0.3149  0.0315
  309CLA    CLA22437   0.402   5.843  16.073  0.0111  0.1233  0.0201
  310CLA    CLA22438   4.552   2.922   1.261 -0.6527 -0.2548 -0.4938
  311CLA    CLA22439   0.249   3.937   0.771 -0.0501 -0.2826  0.0598
  312CLA    CLA22440   2.621   1.818   3.459 -0.5233 -0.3818  0.0500
  313CLA    CLA22441   4.250   3.635   1.826  0.1200  0.3938  0.2103
  314CLA    CLA22442   3.951   3.108   3.616 -0.1460  0.4662  0.2258
  315CLA    CLA22443   2.078   3.172  13.539 -0.1231  0.1762 -0.1928
  316CLA    CLA22444   1.668   5.772   3.060  0.3274 -0.4776 -0.2843
  317CLA    CLA22445   2.327   4.246   3.008 -0.2150 -0.2954  0.3367
  318CLA    CLA22446   5.848   5.330   3.233  0.1204 -0.1381  0.1420
  319TIP3   OH222447   0.157   5.757  10.986  0.2037 -0.1104 -0.0419
  319TIP3    H122448   0.247   5.776  10.958 -0.2040  1.2271 -0.4882
  319TIP3    H222449   0.129   5.685  10.931  0.4035  0.6196 -1.1184
  320TIP3   OH222450   2.682   2.941  14.339 -0.0750 -0.2381  0.1292
  320TIP3    H122451   2.716   2.987  14.416 -0.9907 -0.7697  0.8704
  320TIP3    H222452   2.747   2.873  14.320  0.7354  0.6591 -0.2934
  321TIP3   OH222453   6.341   4.552   0.344  0.1436  0.1192  0.3233
  321TIP3    H122454   6.247   4.547   0.361  0.1740  1.7666  1.0686
  321TIP3    H222455   6.348   4.578   0.252 -0.1261 -0.6317  0.0925
  322TIP3   OH222456   5.458   6.235  12.047  0.4592 -0.0180  0.4211
  322TIP3    H122457   5.532   6.174  12.042  0.4748 -0.1168  1.7550
  322TIP3    H222458   5.411   6.222  11.964  0.8393 -1.3527  0.3990
  323TIP3   OH222459   2.244   6.206  11.790 -0.1569  0.1641 -0.3656
  323TIP3    H122460   2.226   6.297  11.815 -0.6534  0.2532 -1.0283
  323TIP3    H222461   2.247   6.158  11.873 -0.8583  0.6195 -0.0756
  324TIP3   OH222462   3.953   1.641  16.376  0.0566  0.4172 -0.4724
  324TIP3    H122463   3.962   1.724  16.422 -0.7294  1.3792 -1.9912
  324TIP3    H222464   3.858   1.632  16.361  0.2024 -0.4051 -0.9272
  325TIP3   OH222465   3.172   4.735   1.375 -0.6478 -0.4993  0.1150
  325TIP3    H122466   3.161   4.741   1.280 -0.1255  2.2369  0.1755
  325TIP3    H222467   3.230   4.660   1.388 -0.4704 -0.7128 -1.7595
  326TIP3   OH222468   6.704   5.272  11.500  0.5271 -0.0887  0.3848
  326TIP3    H122469   6.676   5.363  11.493  1.2768  0.0619 -0.7027
  326TIP3    H222470   6.771   5.261  11.433  1.9426 -0.8831  1.8837
  327TIP3   OH222471   4.255   4.411  13.696  0.4194 -0.3576  0.0924
  327TIP3    H122472   4.274   4.319  13.715 -1.0194 -0.9544 -1.2315
  327TIP3    H222473   4.257   4.416  13.600  0.8771  1.0750  0.1747
  328TIP3   OH222474   6.554   5.547   5.712 -0.3909  0.2098  0.9125
  328TIP3    H122475   6.467   5.560   5.673  0.8883  1.2152 -1.7495
  328TIP3    H222476   6.590   5.635   5.721  1.6632 -0.3294 -1.2723
  329TIP3   OH222477   4.780   1.176   1.274 -0.0211  0.1273  0.2500
  329TIP3    H122478   4.740   1.263   1.273 -0.1211  0.0970  1.1141
  329TIP3    H222479   4.874   1.193   1.282 -0.2552  0.1329  3.7087
  330TIP3   OH222480   1.221   5.650  12.493 -0.2257  0.5209 -0.5168
  330TIP3    H122481   1.297   5.592  12.491 -0.3971  0.3070 -0.8011
  330TIP3    H222482   1.238   5.710  12.566  1.0624  1.6246 -1.6869
  331TIP3   OH222483   1.727   1.575  12.183  0.1718 -0.1108 -0.3570
  331TIP3    H122484   1.793   1.642  12.163  0.0164  0.1273 -0.0811
  331TIP3    H222485   1.690   1.551  12.098 -0.3943  0.7975 -0.3790
  332TIP3   OH222486   4.144   3.843  10.253  0.5841  0.0973 -0.0465
  332TIP3    H122487   4.225   3.875  10.294  0.3357  1.1062 -0.3414
  332TIP3    H222488   4.074   3.883  10.305  0.2734 -0.4167 -0.0719
  333TIP3   OH222489   2.703   2.346   4.165  0.0022 -0.0457 -0.3219
  333TIP3    H122490   2.722   2.352   4.072  0.4091  1.9884 -0.1161
  333TIP3    H222491   2.766   2.282   4.199 -0.1934 -0.8411 -1.4346
  334TIP3   OH222492   5.853   0.209   2.796 -0.5441  0.0654  0.0187
  334TIP3    H122493   5.890   0.278   2.740 -1.0266 -0.5153 -1.0391
  334TIP3    H222494   5.800   0.156   2.736  1.6253 -2.5703  0.3575
  335TIP3   OH222495   0.353   3.144   2.784 -0.6610 -0.3092  0.3301
  335TIP3    H122496   0.340   3.062   2.736  0.7099 -0.8113  0.8004
  335TIP3    H222497   0.309   3.131   2.868  2.2652 -1.7939  1.6974
  336TIP3   OH222498   5.057   4.732  11.194 -0.5688 -0.4513 -0.1694
  336TIP3    H122499   5.006   4.804  11.159  1.8596  1.4884  0.1031
  336TIP3    H222500   5.063   4.669  11.122  0.2464  1.2566 -1.6472
  337TIP3   OH222501   3.613   3.344  14.419  0.5505 -0.0162 -0.1994
  337TIP3    H122502   3.558   3.397  14.477 -1.7145  1.6585 -3.7426
  337TIP3    H222503   3.568   3.260  14.414  0.9648 -0.3017  0.7543
  338TIP3   OH222504   4.540   5.665  15.879 -0.2610 -0.3122  0.4395
  338TIP3    H122505   4.528   5.589  15.937  1.1988 -2.7300 -2.2863
  338TIP3    H222506   4.470   5.657  15.815  0.1828  0.3707 -0.1368
  339TIP3   OH222507   3.121   3.479  13.179  0.2816 -0.3677  0.0281
  339TIP3    H122508   3.141   3.568  13.206  0.4234 -0.4869  0.3142
  339TIP3    H222509   3.026   3.480  13.162  0.4221  0.0444 -0.7605
  340TIP3   OH222510   2.604   0.875  15.373 -0.2421 -0.1895  0.2751
  340TIP3    H122511   2.510   0.880  15.386 -0.2852 -0.3566  0.0372
  340TIP3    H222512   2.617   0.895  15.280 -0.0532 -0.2513  0.2864
  341TIP3   OH222513   1.774   6.746   0.196 -0.2667  0.9746 -0.1957
  341TIP3    H122514   1.838   6.793   0.142 -0.7269  1.2261 -0.5292
  341TIP3    H222515   1.718   6.815   0.231 -0.8286  0.6857 -0.5273
  342TIP3   OH222516   6.713   1.292  10.960  0.2046 -0.3449 -0.3646
  342TIP3    H122517   6.689   1.199  10.955 -1.1122 -0.0147 -0.3102
  342TIP3    H222518   6.784   1.301  10.897 -0.6723 -1.0805 -1.4855
  343TIP3   OH222519   5.384   1.095   4.575 -0.5504  0.0708 -0.2723
  343TIP3    H122520   5.448   1.104   4.646 -1.2662  3.1671  0.0322
  343TIP3    H222521   5.336   1.015   4.597  1.6035 -0.9663  0.8025
  344TIP3   OH222522   0.940   0.260  14.091  0.2014 -0.7031 -0.5119
  344TIP3    H122523   0.939   0.189  14.156 -1.9582  0.1751  0.4842
  344TIP3    H222524   0.867   0.239  14.032 -0.1658  0.4400 -0.4723
  345TIP3   OH222525   1.428   4.772  14.068 -0.7233  0.1681 -0.4942
  345TIP3    H122526   1.343   4.794  14.029 -1.6217 -2.3948 -0.1174
  345TIP3    H222527   1.479   4.739  13.995 -0.9443 -0.6685 -0.2781
  346TIP3   OH222528   3.717   6.811  15.882 -0.2934 -0.3745  0.0995
  346TIP3    H122529   3.716   6.819  15.787 -1.6310  1.0082  0.2037
  346TIP3    H222530   3.748   6.896  15.914 -2.6452  0.2305  0.9374
  347TIP3   OH222531   6.210   2.781   5.943 -0.2019  0.5136 -0.3178
  347TIP3    H122532   6.300   2.795   5.974 -0.1025 -0.4509 -0.1528
  347TIP3    H222533   6.210   2.816   5.854  0.9131 -1.3634 -1.0827
  348TIP3   OH222534   2.833   2.465   3.643  0.2979  0.1289  0.2785
  348TIP3    H122535   2.885   2.545   3.648 -0.0213  0.2754  1.3464
  348TIP3    H222536   2.755   2.490   3.592  0.4837  0.3344  0.0943
  349TIP3   OH222537   1.754   2.759  11.176 -0.0773  0.3257  0.3295
  349TIP3    H122538   1.663   2.790  11.182  0.1366  0.6967  1.8776
  349TIP3    H222539   1.746   2.665  11.162 -0.7093  0.6895 -2.0371
  350TIP3   OH222540   3.795   0.449  11.041 -0.6357  0.3886 -0.2049
  350TIP3    H122541   3.881   0.486  11.021 -0.4200  0.2814  0.4917
  350TIP3    H222542   3.810   0.354  11.043 -0.4346  0.4353  1.3866
  351TIP3   OH222543   3.765   5.829   4.726  0.4496 -0.3516 -0.3870
  351TIP3    H122544   3.749   5.922   4.714 -0.4213 -0.3827  0.4567
  351TIP3    H222545   3.815   5.802   4.648  0.1006  0.6623 -0.9598
  352TIP3   OH222546   2.487   3.497  12.105 -0.1097 -0.2965 -0.1453
  352TIP3    H122547   2.504   3.499  12.199 -1.1156 -0.4007  0.0428
  352TIP3    H222548   2.478   3.589  12.080 -0.5923 -0.3028  0.0005
  353TIP3   OH222549   5.455   0.969   0.434  0.0693  0.5704 -0.2227
  353TIP3    H122550   5.431   0.881   0.462 -0.4268  0.8781  0.3396
  353TIP3    H222551   5.543   0.960   0.399 -0.2898 -0.3007 -0.9110
  354TIP3   OH222552   6.638   6.556  14.578  0.2318  0.0148  0.3475
  354TIP3    H122553   6.650   6.569  14.672 -1.4503  0.9764  0.4504
  354TIP3    H222554   6.545   6.571  14.564  0.5985  0.5681 -1.5839
  355TIP3   OH222555   0.986   2.040  15.447 -0.3479  0.7382  0.5119
  355TIP3    H122556   1.029   1.970  15.496 -0.7602 -1.2233 -1.8149
  355TIP3    H222557   0.894   2.033  15.471 -0.7643 -1.0847 -1.4494
  356TIP3   OH222558   6.156   0.735   4.943 -0.2915 -0.0550 -0.1300
  356TIP3    H122559   6.172   0.815   4.894 -1.1602 -0.0089 -0.3474
  356TIP3    H222560   6.170   0.665   4.880 -1.1224 -0.0071 -0.3725
  357TIP3   OH222561   2.644   6.371  14.479  1.1297 -0.0493 -0.7619
  357TIP3    H122562   2.554   6.397  14.456  0.2157 -1.4323  1.1487
  357TIP3    H222563   2.679   6.447  14.526 -0.5897 -1.0665  2.3489
  358TIP3   OH222564   5.169   5.802  17.042 -0.2219  0.0066 -0.5870
  358TIP3    H122565   5.236   5.840  16.984 -0.2129  0.5641 -0.2169
  358TIP3    H222566   5.092   5.793  16.986 -0.3774  1.0453 -0.5617
  359TIP3   OH222567   3.228   5.333   5.496 -0.1213 -0.1959 -0.2956
  359TIP3    H122568   3.260   5.420   5.473  0.2717 -0.1737  0.3403
  359TIP3    H222569   3.248   5.323   5.589  2.7753 -2.2539 -1.0629
  360TIP3   OH222570   6.013   2.753   4.087  0.4319 -0.2762 -0.1245
  360TIP3    H122571   5.947   2.762   4.018  0.6433 -2.5167 -0.6606
  360TIP3    H222572   5.963   2.732   4.165  0.4460 -1.3894 -0.4052
  361TIP3   OH222573   6.009   2.469   3.078  0.5582 -0.0377  0.5422
  361TIP3    H122574   6.050   2.385   3.098 -0.3652 -0.4187  0.8555
  361TIP3    H222575   5.932   2.472   3.134 -0.8881 -0.1636 -1.3894
  362TIP3   OH222576   4.163   3.584   5.433  0.6225 -0.2746  0.3097
  362TIP3    H122577   4.220   3.532   5.490 -0.1799 -2.1900 -0.5953
  362TIP3    H222578   4.077   3.545   5.443  0.4440 -0.5846 -2.1136
  363TIP3   OH222579   4.357   4.689   3.307  0.0453 -0.1332 -0.1389
  363TIP3    H122580   4.330   4.763   3.252  0.4393 -0.9965 -1.5381
  363TIP3    H222581   4.282   4.629   3.304  0.3630 -0.5184 -0.3455
  364TIP3   OH222582   2.673   1.316  17.157 -0.2016  0.4450  0.0649
  364TIP3    H122583   2.636   1.343  17.072  1.5184  0.6365 -0.6402
  364TIP3    H222584   2.720   1.393  17.188  2.6043 -0.8586 -0.7607
  365TIP3   OH222585   5.213   3.478   4.907  0.9738  0.8395 -0.3427
  365TIP3    H122586   5.127   3.462   4.947  0.3170  1.3490 -1.5432
  365TIP3    H222587   5.272   3.488   4.982 -0.2087  1.5652  0.5162
  366TIP3   OH222588   4.541   2.739   2.641  0.2626 -0.1809  0.1445
  366TIP3    H122589   4.497   2.803   2.584 -1.1388 -1.4395 -0.2139
  366TIP3    H222590   4.622   2.719   2.596 -0.0597  0.1100 -0.5753
  367TIP3   OH222591   5.898   4.300  15.751  0.0522  0.2515  0.1542
  367TIP3    H122592   5.865   4.387  15.775  0.3587  0.1373  1.0329
  367TIP3    H222593   5.826   4.258  15.705  0.6748  1.8132 -2.3445
  368TIP3   OH222594   0.369   0.710   0.098  0.0451 -0.1063  0.0098
  368TIP3    H122595   0.283   0.752   0.105 -0.5636 -1.2732 -0.1799
  368TIP3    H222596   0.408   0.719   0.184  0.0075  1.0161 -0.0884
  369TIP3   OH222597   4.097   4.627   3.287  0.0293  0.5212  0.2944
  369TIP3    H122598   4.097   4.564   3.360 -0.1786  0.8503  0.5784
  369TIP3    H222599   4.041   4.587   3.221 -1.2205  1.0480  1.0255
  370TIP3   OH222600   1.636   1.127  16.669  0.2843  0.3213 -0.7004
  370TIP3    H122601   1.693   1.162  16.738  0.1305  0.1324 -0.4766
  370TIP3    H222602   1.582   1.202  16.643 -1.7302 -0.2905  1.4673
  371TIP3   OH222603   4.300   5.465   0.941  0.7853 -0.0306  0.5299
  371TIP3    H122604   4.290   5.406   1.015 -0.4468  0.9371  1.1483
  371TIP3    H222605   4.368   5.527   0.968 -0.0631  0.6684  1.0974
  372TIP3   OH222606   2.635   5.308   2.168 -0.5829 -0.0528 -0.7044
  372TIP3    H122607   2.654   5.312   2.075 -0.4604 -0.0348 -0.6799
  372TIP3    H222608   2.549   5.349   2.178 -0.3365  0.4735 -0.7367
  373TIP3   OH222609   2.983   3.156  16.797  0.5992  0.0738 -0.1893
  373TIP3    H122610   2.930   3.079  16.777  1.4291 -0.5112 -0.1768
  373TIP3    H222611   2.943   3.226  16.747 -0.3768 -0.2921  0.0683
  374TIP3   OH222612   1.546   4.612  13.843 -0.6332 -0.4095 -0.2825
  374TIP3    H122613   1.474   4.549  13.839  1.1002 -2.4418 -0.6631
  374TIP3    H222614   1.577   4.618  13.753 -0.1026  0.1721 -0.0570
  375TIP3   OH222615   6.092   3.968  11.933  0.3525  0.2615 -0.1490
  375TIP3    H122616   6.146   3.999  11.860  0.2295  0.8057 -0.0117
  375TIP3    H222617   6.153   3.922  11.990  0.8733  1.7792  0.5325
  376TIP3   OH222618   4.949   5.735   2.260  0.0373 -0.6514  0.1920
  376TIP3    H122619   4.933   5.806   2.198  1.9180 -1.2369 -1.0107
  376TIP3    H222620   4.940   5.775   2.346  0.6314  0.9628 -0.4844
  377TIP3   OH222621   1.326   2.249  15.016  0.0289 -0.4014  0.1136
  377TIP3    H122622   1.336   2.154  15.018  0.0405 -0.4499 -1.6402
  377TIP3    H222623   1.262   2.268  15.084 -1.4970 -1.8705 -0.8759
  378TIP3   OH222624   2.376   1.526   0.458  0.2995  0.2217  0.3880
  378TIP3    H122625   2.431   1.596   0.493  0.2451  0.3637  0.1879
  378TIP3    H222626   2.291   1.539   0.500  0.3012  0.2486  0.3829
  379TIP3   OH222627   2.172   3.945   0.682  0.0673  0.3564  0.2808
  379TIP3    H122628   2.112   3.953   0.756 -1.1657  0.3519 -0.7087
  379TIP3    H222629   2.188   3.851   0.673  2.9868  0.5378  2.7027
  380TIP3   OH222630   1.125   4.102   3.766 -0.1581 -0.2924 -0.3543
  380TIP3    H122631   1.085   4.127   3.850  2.2947  0.4184  0.6260
  380TIP3    H222632   1.124   4.183   3.714 -1.5331 -0.6959 -1.0002
  381TIP3   OH222633   3.207   6.744   1.288 -0.3632 -0.3628 -0.5126
  381TIP3    H122634   3.251   6.681   1.345  1.3194 -0.2204 -1.5971
  381TIP3    H222635   3.251   6.828   1.305 -0.9590  0.0146 -0.8041
  382TIP3   OH222636   3.190   0.559  11.629  0.1997  0.0580  0.0667
  382TIP3    H122637   3.165   0.574  11.720 -0.7422 -0.3932 -0.1186
  382TIP3    H222638   3.157   0.472  11.608 -0.1632  0.4167 -0.9025
  383TIP3   OH222639   2.256   0.393  13.182  0.2979  0.3770 -0.2193
  383TIP3    H122640   2.264   0.486  13.201  0.5255  0.2135  0.5158
  383TIP3    H222641   2.202   0.389  13.103  0.4962  1.1375 -0.3945
  384TIP3   OH222642   4.667   4.018  11.919  0.2235  0.0060 -0.2920
  384TIP3    H122643   4.595   4.062  11.874  0.3147 -1.2795 -1.7361
  384TIP3    H222644   4.678   3.935  11.872  1.8039 -0.3860  0.7153
  385TIP3   OH222645   4.416   2.132  12.339  0.4048 -0.3197 -0.0227
  385TIP3    H122646   4.486   2.073  12.368  1.2976  0.1900 -1.1116
  385TIP3    H222647   4.458   2.188  12.274 -0.6064  1.0964  0.5399
  386TIP3   OH222648   1.324   6.387   2.082  0.4601  0.0981  0.4229
  386TIP3    H122649   1.373   6.429   2.011 -0.8094 -0.9891 -1.1571
  386TIP3    H222650   1.384   6.321   2.116  0.5751 -0.3728 -0.6526
  387TIP3   OH222651   1.951   5.219   4.254 -0.2300 -0.0772 -0.4095
  387TIP3    H122652   1.934   5.190   4.343 -0.5042 -0.7467 -0.6717
  387TIP3    H222653   2.041   5.193   4.237 -0.5934 -1.1494 -0.7736
  388TIP3   OH222654   5.906   6.202   0.241 -0.2075 -0.7940 -0.5826
  388TIP3    H122655   5.833   6.188   0.180 -2.0760 -0.5006  1.5277
  388TIP3    H222656   5.950   6.280   0.207 -0.9748 -0.8699 -1.7894
  389TIP3   OH222657   2.132   3.624   2.532  0.2155  0.0485  0.0067
  389TIP3    H122658   2.057   3.652   2.478  0.9329  1.5195 -0.2649
  389TIP3    H222659   2.115   3.532   2.550 -1.2391  0.1385 -0.7638
  390TIP3   OH222660   1.819   4.170   5.044  0.0917 -0.1374 -0.1977
  390TIP3    H122661   1.784   4.171   4.955  1.2437  0.2893 -0.6566
  390TIP3    H222662   1.893   4.109   5.041  0.9499  0.8580  0.1281
  391TIP3   OH222663   4.910   6.648  13.489  0.4548  0.2229 -0.0492
  391TIP3    H122664   4.896   6.597  13.569  1.2594 -0.5797 -0.3989
  391TIP3    H222665   4.988   6.700  13.508 -0.3916  1.3592  0.3191
  392TIP3   OH222666   2.084   3.852  13.442  0.1243 -0.0572 -0.2567
  392TIP3    H122667   2.134   3.934  13.434 -0.0287  0.1021  0.3480
  392TIP3    H222668   2.002   3.878  13.484 -0.3156 -0.3804 -0.9092
  393TIP3   OH222669   1.578   0.791   1.331  0.0741 -0.0540  0.5312
  393TIP3    H122670   1.566   0.835   1.247 -0.9687  0.1211  0.7621
  393TIP3    H222671   1.491   0.761   1.355  0.4502 -0.5269  1.3194
  394TIP3   OH222672   4.707   1.127   3.557  0.4895 -0.2200 -0.1806
  394TIP3    H122673   4.723   1.044   3.603 -0.7716  0.1255  0.9213
  394TIP3    H222674   4.778   1.184   3.586 -0.7192  0.2429  2.0280
  395TIP3   OH222675   3.008   1.134  14.848 -0.1848  0.0789  0.2305
  395TIP3    H122676   3.044   1.175  14.769 -1.4406 -1.5473 -1.2151
  395TIP3    H222677   3.084   1.126  14.907  0.4955  2.4997 -0.2690
  396TIP3   OH222678   1.929   2.708  10.455  0.6037 -0.4081 -0.0194
  396TIP3    H122679   1.888   2.715  10.541  1.4007  1.7349  0.2123
  396TIP3    H222680   1.867   2.657  10.403 -0.0620 -1.3983  1.6946
  397TIP3   OH222681   6.519   0.224  14.761 -0.0963  0.4739 -0.2968
  397TIP3    H122682   6.455   0.250  14.826  0.0215  1.4399 -0.5457
  397TIP3    H222683   6.602   0.259  14.794  0.0751  0.3797 -0.6237
  398TIP3   OH222684   1.259   4.351  16.938  0.4984 -0.2948  0.0280
  398TIP3    H122685   1.330   4.413  16.925 -0.5739  1.2162  1.1623
  398TIP3    H222686   1.292   4.290  17.004  0.3985  0.9776  1.2680
  399TIP3   OH222687   2.852   1.568  11.301 -0.3325  0.1543  0.3252
  399TIP3    H122688   2.802   1.541  11.378 -0.3916 -0.7185 -0.0110
  399TIP3    H222689   2.823   1.509  11.231  0.4922  0.2390 -0.1003
  400TIP3   OH222690   3.974   4.910  14.679  0.8179 -0.3873  0.1794
  400TIP3    H122691   4.053   4.916  14.733  1.3610 -0.0169 -0.6552
  400TIP3    H222692   3.936   4.998  14.682  0.5765 -0.4968  0.3624
  401TIP3   OH222693   1.244   4.196  17.163 -0.3417 -0.6053  0.4203
  401TIP3    H122694   1.217   4.127  17.101  0.2744  0.9912 -1.6968
  401TIP3    H222695   1.166   4.251  17.172  0.3229  0.5706 -0.9121
  402TIP3   OH222696   1.820   5.864   0.458  0.0845 -0.2499 -0.0019
  402TIP3    H122697   1.915   5.862   0.460  0.2615  3.5453 -0.3247
  402TIP3    H222698   1.793   5.774   0.478  3.6624 -0.8715  2.5371
  403TIP3   OH222699   3.110   1.189  11.240 -0.1020 -0.6020  0.1254
  403TIP3    H122700   3.048   1.127  11.201 -0.3874  0.0945 -0.5560
  403TIP3    H222701   3.188   1.183  11.186  0.3328 -1.2650  0.8093
  404TIP3   OH222702   5.345   3.085   4.602 -0.0356 -0.1687 -0.2646
  404TIP3    H122703   5.347   3.114   4.511 -1.0817 -0.2231 -0.3214
  404TIP3    H222704   5.252   3.070   4.620  0.2115 -0.6888  0.6440
  405TIP3   OH222705   5.886   0.193  10.976 -0.0973  0.1269 -0.4259
  405TIP3    H122706   5.927   0.270  10.937  1.9213 -0.7701 -0.1123
  405TIP3    H222707   5.797   0.222  10.997  0.3591  2.1101 -1.1133
  406TIP3   OH222708   2.232   0.160  15.148  0.4531 -0.3830 -0.0581
  406TIP3    H122709   2.297   0.198  15.090  1.3845  1.1799  1.9555
  406TIP3    H222710   2.149   0.201  15.123  1.0694  1.2752  0.5791
  407TIP3   OH222711   6.520   0.008  13.142  0.2714 -0.3045 -0.2163
  407TIP3    H122712   6.506   0.092  13.099 -0.7225  0.3844  1.4012
  407TIP3    H222713   6.481  -0.057  13.084  0.3886  0.4270 -1.1110
  408TIP3   OH222714   6.444   4.229   2.092  0.4141  0.1466  0.2863
  408TIP3    H122715   6.351   4.231   2.117  0.5005 -0.2577  0.6380
  408TIP3    H222716   6.487   4.289   2.154  0.5396 -0.4167  0.7481
  409TIP3   OH222717   4.272   4.494   4.875 -0.1728  0.2529  0.5778
  409TIP3    H122718   4.342   4.468   4.815  0.1558  1.1462  0.5696
  409TIP3    H222719   4.302   4.576   4.913 -0.5804 -0.0723  1.6307
  410TIP3   OH222720   3.733   6.044  15.652 -0.1250  0.1223  0.6042
  410TIP3    H122721   3.738   6.131  15.690  0.3506 -0.5438  2.1244
  410TIP3    H222722   3.813   6.034  15.602 -0.3688  0.7041  0.0963
  411TIP3   OH222723   0.572   6.186   0.815  0.5009 -0.9190  0.3679
  411TIP3    H122724   0.639   6.158   0.752 -0.4548  1.6461 -1.8586
  411TIP3    H222725   0.615   6.254   0.866 -0.6857  1.5859 -1.8553
  412TIP3   OH222726   5.542   3.640   5.684  0.6325  0.2766  0.3757
  412TIP3    H122727   5.621   3.657   5.632  0.4084  0.6430  0.1565
  412TIP3    H222728   5.575   3.596   5.762  0.9260 -0.6590 -0.2657
  413TIP3   OH222729   0.617   6.686  12.571  0.6726 -0.1344  0.3940
  413TIP3    H122730   0.655   6.660  12.487 -0.6975  2.5791 -1.1276
  413TIP3    H222731   0.524   6.663  12.562  0.8719 -1.6562  1.9665
  414TIP3   OH222732   3.459   4.260   3.946  0.7032 -0.1803  0.1394
  414TIP3    H122733   3.516   4.184   3.962 -0.2565 -1.2629 -1.5051
  414TIP3    H222734   3.376   4.222   3.918 -0.0225  1.4739  0.0232
  415TIP3   OH222735   3.554   5.933   0.628 -0.2348 -0.2735  0.4146
  415TIP3    H122736   3.586   6.016   0.594  0.1260  0.5717  2.7142
  415TIP3    H222737   3.462   5.929   0.600 -0.1575  0.7542  0.0227
  416TIP3   OH222738   2.879   5.949  14.274 -0.7508  0.4476  0.4444
  416TIP3    H122739   2.834   5.990  14.200  0.9847  0.3180 -0.7311
  416TIP3    H222740   2.860   6.005  14.349 -1.0917  1.5839 -0.4744
  417TIP3   OH222741   5.040   5.295  16.847  0.0950 -0.9324 -0.0631
  417TIP3    H122742   5.115   5.296  16.786  0.1439 -0.3832  0.0020
  417TIP3    H222743   4.964   5.287  16.791  0.1226 -0.1605 -0.2267
  418TIP3   OH222744   0.655   5.678   4.550  0.1778  0.1362 -0.6758
  418TIP3    H122745   0.573   5.726   4.548 -0.7160 -1.3000  0.2451
  418TIP3    H222746   0.721   5.740   4.519 -0.8772  2.0218  0.8073
  419TIP3   OH222747   0.906   5.144  10.346 -0.5537 -0.0756 -0.0722
  419TIP3    H122748   0.928   5.059  10.384 -1.0975 -0.1937 -0.0265
  419TIP3    H222749   0.817   5.162  10.376  0.5742  1.8422  2.3016
  420TIP3   OH222750   0.226   2.325   2.183  0.1609  0.8292  0.1948
  420TIP3    H122751   0.207   2.394   2.246 -0.4551  1.7153 -0.9370
  420TIP3    H222752   0.177   2.249   2.214 -0.6604  1.4524  0.4306
  421TIP3   OH222753   6.130   0.929  12.219 -0.2875 -0.5857  0.3063
  421TIP3    H122754   6.200   0.864  12.226  0.9078  0.5881 -0.4913
  421TIP3    H222755   6.069   0.893  12.154  0.6002 -0.7210 -0.4628
  422TIP3   OH222756   3.132   0.897  11.734  0.4730 -0.0436 -0.3929
  422TIP3    H122757   3.168   0.986  11.732  0.2327  0.0629 -0.1243
  422TIP3    H222758   3.184   0.853  11.801  0.1281  0.1039 -0.0206
  423TIP3   OH222759   2.760   3.964  12.304 -0.0585 -0.3648 -0.6651
  423TIP3    H122760   2.832   3.973  12.367  0.2587 -1.2240 -0.9010
  423TIP3    H222761   2.681   3.985  12.355  0.0515 -2.4199  0.3964
  424TIP3   OH222762   4.533   2.071  13.869  0.0786  0.2621 -0.9088
  424TIP3    H122763   4.474   2.038  13.801  0.1432  0.2813 -0.9732
  424TIP3    H222764   4.483   2.140  13.912 -0.1642 -0.1089 -0.5874
  425TIP3   OH222765   1.205   4.634   6.036 -0.0957  0.2949  0.4505
  425TIP3    H122766   1.116   4.670   6.028 -0.0073  1.0482  2.4459
  425TIP3    H222767   1.253   4.702   6.083  1.9456  0.5222 -1.9160
  426TIP3   OH222768   2.073   1.623  11.436  0.2752  0.2912 -0.4213
  426TIP3    H122769   2.142   1.570  11.395 -0.1320 -0.7374  0.1842
  426TIP3    H222770   2.110   1.711  11.441  1.4275 -0.1752 -0.3951
  427TIP3   OH222771   3.354   1.661  13.369 -0.1097  0.4200 -0.0344
  427TIP3    H122772   3.289   1.712  13.416 -0.0958 -0.9438  1.4757
  427TIP3    H222773   3.344   1.689  13.278 -2.8591  0.1776  0.1473
  428TIP3   OH222774   5.451   6.054   2.292 -0.3542  0.0224  0.1639
  428TIP3    H122775   5.397   6.131   2.310  0.7086  0.7537  0.2531
  428TIP3    H222776   5.430   6.031   2.201 -2.5505 -1.1187  0.9194
  429TIP3   OH222777   1.963   4.717  15.855  0.1718 -0.4520 -0.0234
  429TIP3    H122778   1.981   4.624  15.867 -1.2073 -0.7706 -0.2421
  429TIP3    H222779   2.033   4.762  15.903  2.5646 -1.5445 -2.3912
  430TIP3   OH222780   3.514   5.393  12.726  0.2348  0.0445 -0.1501
  430TIP3    H122781   3.476   5.384  12.638  1.4656  2.2915 -0.9287
  430TIP3    H222782   3.465   5.330  12.779 -0.0622 -1.8489 -2.5812
  431TIP3   OH222783   6.126   4.901   3.238  0.6024 -0.1729  0.1024
  431TIP3    H122784   6.041   4.878   3.200  0.8578 -1.6305  0.4131
  431TIP3    H222785   6.113   4.893   3.333  1.3657 -1.3951  0.1113
  432TIP3   OH222786   0.291   1.470   1.401 -0.4449 -0.0383  0.0387
  432TIP3    H122787   0.340   1.533   1.348  0.7869  0.3058  1.5445
  432TIP3    H222788   0.330   1.385   1.380  0.2794  0.1389  0.6230
  433TIP3   OH222789   2.034   2.385   0.935 -0.4071  0.4107  0.4806
  433TIP3    H122790   1.992   2.365   0.851 -0.4581  2.9898 -0.1400
  433TIP3    H222791   1.978   2.342   1.000 -1.6752  0.3441 -0.6332
  434TIP3   OH222792   0.343   2.017   2.720  0.0621  0.4368 -0.1683
  434TIP3    H122793   0.359   2.085   2.786  0.0871  0.6868 -0.4288
  434TIP3    H222794   0.249   2.022   2.703  0.2383  1.1258 -0.9610
  435TIP3   OH222795   6.167   4.653   5.547 -0.2127 -0.1839 -0.3277
  435TIP3    H122796   6.113   4.592   5.597 -0.9846  1.2807  0.6791
  435TIP3    H222797   6.256   4.637   5.577 -0.5762  0.1281  0.9757
  436TIP3   OH222798   2.584   0.716  13.684 -0.3988  0.0816 -0.6593
  436TIP3    H122799   2.645   0.736  13.614  0.3980 -1.0671 -0.3054
  436TIP3    H222800   2.551   0.801  13.712  0.3628  0.6442 -1.4460
  437TIP3   OH222801   3.144   5.814  13.811  0.2734 -0.1898  0.4568
  437TIP3    H122802   3.079   5.874  13.848  0.6521  1.3552 -1.3072
  437TIP3    H222803   3.094   5.759  13.750  0.4296  0.3929 -0.2134
  438TIP3   OH222804   3.509   1.776  14.514  0.1258  0.0079  0.3700
  438TIP3    H122805   3.460   1.811  14.589 -0.3108  0.8031 -0.2798
  438TIP3    H222806   3.552   1.852  14.476 -1.4224 -0.0138 -1.5054
  439TIP3   OH222807   2.078   0.365  15.661  0.1135 -0.1149 -0.4105
  439TIP3    H122808   2.159   0.396  15.701  0.7406 -0.4054 -1.4231
  439TIP3    H222809   2.107   0.301  15.595 -0.8427  0.8546 -1.7957
  440TIP3   OH222810   0.834   5.296  10.937 -0.0352 -0.1549 -0.3257
  440TIP3    H122811   0.877   5.218  10.972 -1.0635 -0.9381 -0.7937
  440TIP3    H222812   0.837   5.358  11.010  0.3795 -0.7781  0.2033
  441TIP3   OH222813   2.619   3.771   0.195 -0.2493  0.6501 -0.2452
  441TIP3    H122814   2.637   3.681   0.222 -0.5744  0.0274 -2.0243
  441TIP3    H222815   2.601   3.818   0.276 -1.8772 -1.3082  0.5551
  442TIP3   OH222816   4.955   6.217  13.862  0.3066  0.2079  0.6638
  442TIP3    H122817   4.982   6.309  13.862 -0.0134  0.3020  0.9367
  442TIP3    H222818   5.014   6.175  13.800  1.3873  0.3331  1.5874
  443TIP3   OH222819   1.571   4.107  14.216 -0.0128  0.4816 -0.2062
  443TIP3    H122820   1.535   4.132  14.131  2.4628  2.1163 -0.8020
  443TIP3    H222821   1.608   4.020  14.202 -0.7842  0.1814 -0.4269
  444TIP3   OH222822   0.594   3.281   1.919 -0.1809 -0.2345  0.1704
  444TIP3    H122823   0.584   3.188   1.896  1.1497 -0.3107 -0.1593
  444TIP3    H222824   0.688   3.290   1.937 -0.3259  1.0374  0.2772
  445TIP3   OH222825   3.683   2.082  12.980 -0.2005  0.0368  0.1210
  445TIP3    H122826   3.597   2.080  13.021  0.1007  0.0413  0.7479
  445TIP3    H222827   3.725   2.001  13.008  0.0742  0.1282 -0.0276
  446TIP3   OH222828   5.901   5.645   1.335 -0.2500  0.1567 -0.6252
  446TIP3    H122829   5.883   5.638   1.241 -1.4474 -0.7544 -0.3493
  446TIP3    H222830   5.984   5.600   1.347 -0.1205  0.2244 -1.2531
  447TIP3   OH222831   5.603   5.917  11.327 -0.0257  0.2031  0.4791
  447TIP3    H122832   5.570   5.993  11.280 -0.2040  0.4255  0.9544
  447TIP3    H222833   5.552   5.844  11.293 -1.0589  0.5562  1.2559
  448TIP3   OH222834   5.394   2.266  15.799 -0.1962 -0.6043  0.0595
  448TIP3    H122835   5.362   2.220  15.877 -0.7259  0.3582  0.4157
  448TIP3    H222836   5.421   2.196  15.740  0.7211 -1.3377  1.3115
  449TIP3   OH222837   6.345   6.293  14.250  0.3299 -0.5506  0.4167
  449TIP3    H122838   6.300   6.271  14.169  2.7415 -0.5396 -0.9702
  449TIP3    H222839   6.331   6.387  14.262 -0.5399 -0.6696  0.3516
  450TIP3   OH222840   2.783   5.937   1.442 -0.1162  0.4258 -0.7328
  450TIP3    H122841   2.825   6.023   1.454  0.0569  0.5658 -2.1988
  450TIP3    H222842   2.719   5.931   1.512  0.9361  1.0982  0.3137
  451TIP3   OH222843   6.564   2.818   5.775 -0.0546  0.5304 -0.1526
  451TIP3    H122844   6.581   2.912   5.782  0.3926  0.3265  1.7518
  451TIP3    H222845   6.633   2.777   5.827  0.1443 -0.9052 -1.5180
  452TIP3   OH222846   0.711   6.806   1.123  0.1535  0.1562 -0.4791
  452TIP3    H122847   0.753   6.871   1.066  1.2733  1.5115  1.7944
  452TIP3    H222848   0.643   6.855   1.169 -0.0053 -0.6572  0.1537
  453TIP3   OH222849   3.075   2.640  14.513  0.1392  0.1333 -0.2730
  453TIP3    H122850   3.114   2.677  14.592  0.0187  0.5566 -0.4069
  453TIP3    H222851   3.149   2.631  14.452  0.2446 -0.2656 -0.0846
  454TIP3   OH222852   4.521   5.119   1.247 -0.2661  0.4027  0.3580
  454TIP3    H122853   4.581   5.162   1.186 -0.1406  0.8640  0.8031
  454TIP3    H222854   4.572   5.046   1.283  0.4420  1.5077  1.6316
  455TIP3   OH222855   2.275   3.582   0.116  0.0742  0.0826 -0.6366
  455TIP3    H122856   2.233   3.541   0.040 -0.8912 -0.0819 -0.0185
  455TIP3    H222857   2.342   3.638   0.078 -1.4353  1.2147 -1.7030
  456TIP3   OH222858   0.603   5.999  15.862  0.1456  0.4049 -0.7717
  456TIP3    H122859   0.553   5.937  15.915 -0.4915  1.8823  0.3853
  456TIP3    H222860   0.632   5.947  15.787  0.6439 -1.5961  0.7529
  457TIP3   OH222861   6.194   1.235  15.480  0.6899  0.3504  0.6097
  457TIP3    H122862   6.255   1.245  15.553  0.1315  0.0119  1.1299
  457TIP3    H222863   6.248   1.248  15.402  1.2780  0.7920  1.0823
  458TIP3   OH222864   3.032   2.741  16.824 -0.1110  0.0323  0.6370
  458TIP3    H122865   2.976   2.788  16.887 -1.4918  0.9459 -1.2114
  458TIP3    H222866   2.979   2.737  16.744  1.8588 -0.5317 -0.6643
  459TIP3   OH222867   2.131   3.277   4.621 -0.0838  0.6623 -0.1460
  459TIP3    H122868   2.177   3.354   4.653 -3.7861  1.2852  4.0740
  459TIP3    H222869   2.176   3.203   4.662  0.8131  0.8406 -0.7999
  460TIP3   OH222870   2.842   6.052   5.205 -0.6493 -0.5430 -0.3783
  460TIP3    H122871   2.838   6.082   5.114 -2.2076 -0.6769 -0.3739
  460TIP3    H222872   2.931   6.074   5.234 -0.4953  0.4906 -1.5945
  461TIP3   OH222873   2.601   5.407  12.101  0.3775 -0.1399 -0.3635
  461TIP3    H122874   2.588   5.482  12.043 -1.7164  0.2176  0.5547
  461TIP3    H222875   2.562   5.333  12.054  2.5090 -0.7080 -1.3034
  462TIP3   OH222876   4.631   4.440  12.464 -0.3792 -0.3355  0.5314
  462TIP3    H122877   4.697   4.505  12.444 -0.6028 -0.7168 -1.5600
  462TIP3    H222878   4.670   4.357  12.438 -1.2805 -0.6842  0.2745
  463TIP3   OH222879   3.159   1.381  13.184  0.2420  0.7242  0.2104
  463TIP3    H122880   3.093   1.312  13.180  2.5639 -1.6415  0.8956
  463TIP3    H222881   3.197   1.384  13.096 -0.2411  1.5373  0.0244
  464TIP3   OH222882   3.897   2.358   2.841 -0.3467  0.2008  0.4291
  464TIP3    H122883   3.957   2.297   2.885  0.7402  2.4311  2.1265
  464TIP3    H222884   3.948   2.438   2.831 -1.4896  0.6249 -2.5245
  465TIP3   OH222885   4.465   6.098   6.782  0.1550 -0.6656  0.4488
  465TIP3    H122886   4.418   6.020   6.812 -0.2447 -0.8035 -0.5233
  465TIP3    H222887   4.397   6.158   6.754  0.5087 -0.3856  0.1857
  466TIP3   OH222888   3.235   3.606   4.283  0.0254 -0.3910 -0.2507
  466TIP3    H122889   3.259   3.517   4.257 -0.5820 -1.0579  1.3626
  466TIP3    H222890   3.316   3.645   4.315 -0.0137 -0.9356  0.5445
  467TIP3   OH222891   2.375   2.772  15.627 -0.2372  0.1630 -0.5796
  467TIP3    H122892   2.359   2.691  15.578  0.3330 -0.6982  0.6250
  467TIP3    H222893   2.391   2.743  15.716  4.5150  1.2307 -0.9818
  468TIP3   OH222894   0.050   6.147   4.947  0.1845 -0.6632 -0.3947
  468TIP3    H122895   0.112   6.198   4.894  0.2645 -1.5990 -1.2190
  468TIP3    H222896  -0.035   6.186   4.930  0.5271  0.6148  0.7208
  469TIP3   OH222897   5.266   6.450   2.618  0.1823 -0.5598  0.4271
  469TIP3    H122898   5.249   6.513   2.548  2.1628 -1.1528 -0.6648
  469TIP3    H222899   5.196   6.386   2.610 -0.0688 -0.1849 -0.5308
  470TIP3   OH222900   3.939   5.415   0.062  0.0922  0.2865 -0.1181
  470TIP3    H122901   3.999   5.452   0.126  0.6300  0.3458 -0.6492
  470TIP3    H222902   3.978   5.331   0.039 -1.7288 -1.1815  1.9613
  471TIP3   OH222903   2.304   0.731  15.253  0.0140 -0.3105 -0.4304
  471TIP3    H122904   2.298   0.810  15.308 -0.6284  0.6331 -1.8292
  471TIP3    H222905   2.213   0.707  15.236  0.2109 -0.7508 -0.8723
  472TIP3   OH222906   0.063   3.216  12.012  0.2643 -0.3667 -0.4575
  472TIP3    H122907   0.060   3.310  12.030  1.3950 -0.3481 -0.2900
  472TIP3    H222908   0.125   3.182  12.077  0.5242 -1.0871 -1.0861
  473TIP3   OH222909   3.149   4.939   1.785 -0.1279 -0.1951  0.2758
  473TIP3    H122910   3.073   4.977   1.742  0.3504  2.1227  1.4014
  473TIP3    H222911   3.140   4.963   1.877  0.4482 -2.4604  0.9715
  474TIP3   OH222912   4.337   3.230   6.303 -0.8253 -0.5731 -0.1911
  474TIP3    H122913   4.386   3.149   6.292  0.1647  0.0876 -0.7793
  474TIP3    H222914   4.255   3.216   6.257  0.5320 -0.2200 -2.8403
  475TIP3   OH222915   4.022   0.503   1.327  0.6231  0.4238  0.1666
  475TIP3    H122916   4.000   0.410   1.331  1.2615  0.3040  1.0924
  475TIP3    H222917   4.098   0.512   1.385  0.5777  1.5170  0.0635
  476TIP3   OH222918   4.080   1.047   3.013  0.0176 -0.3257 -0.0078
  476TIP3    H122919   4.053   1.051   2.922 -2.8616 -0.7473  0.7794
  476TIP3    H222920   4.058   1.132   3.049  1.1316 -0.1655  0.3248
  477TIP3   OH222921   6.521   2.616   2.116  0.2647  0.3493  0.2601
  477TIP3    H122922   6.617   2.621   2.121  0.2486 -0.1427  1.0792
  477TIP3    H222923   6.491   2.679   2.181  0.0163  1.5074 -0.9476
  478TIP3   OH222924   3.509   6.147   3.503  0.2312 -0.1372 -0.2625
  478TIP3    H122925   3.418   6.176   3.516  0.2862 -0.4286  0.8042
  478TIP3    H222926   3.554   6.172   3.583  0.8927 -0.8120 -0.4175
  479TIP3   OH222927   5.046   3.552   3.904 -0.1151 -0.5594 -0.2171
  479TIP3    H122928   5.011   3.527   3.989  1.5907 -1.2159  0.3216
  479TIP3    H222929   5.120   3.493   3.890 -0.4285 -0.5325 -2.2085
  480TIP3   OH222930   6.458   2.303   3.399  0.1270  0.3939 -0.1440
  480TIP3    H122931   6.458   2.331   3.491  2.3158 -1.4458  0.4504
  480TIP3    H222932   6.388   2.237   3.395 -0.4176  0.9538  0.0407
  481TIP3   OH222933   2.446   4.264  13.613 -0.1786  0.0378 -0.1354
  481TIP3    H122934   2.391   4.317  13.556 -0.0421  0.5866  0.2383
  481TIP3    H222935   2.522   4.319  13.631  0.2221 -0.4926 -0.1869
  482TIP3   OH222936   1.974   0.909  13.461  0.9497  0.7552 -0.3301
  482TIP3    H122937   1.899   0.936  13.408  0.1106 -0.3817  0.2338
  482TIP3    H222938   1.967   0.962  13.540  0.6021  0.5092 -0.1906
  483TIP3   OH222939   6.793   5.005   1.581  0.1648 -0.5051 -0.7930
  483TIP3    H122940   6.792   4.923   1.533 -0.6872 -1.7427  1.2642
  483TIP3    H222941   6.701   5.033   1.583  0.5419  0.8999 -2.1135
  484TIP3   OH222942   1.411   5.205   1.878 -0.2160 -0.9838 -0.6532
  484TIP3    H122943   1.325   5.163   1.887  0.1751 -1.9151 -1.2426
  484TIP3    H222944   1.415   5.234   1.787 -0.7305  0.9198 -0.1079
  485TIP3   OH222945   1.852   1.048  16.186  0.1017 -0.1963 -0.2921
  485TIP3    H122946   1.927   1.051  16.246  0.2139 -0.5106 -0.4142
  485TIP3    H222947   1.776   1.043  16.244  0.0082  2.5584 -0.1032
  486TIP3   OH222948   3.004   5.824   5.019 -0.5103  0.4393  0.4492
  486TIP3    H122949   2.960   5.798   5.100  0.8837 -1.6717  0.5580
  486TIP3    H222950   3.076   5.881   5.048 -0.6932  0.5894  0.6065
  487TIP3   OH222951   4.803   2.148  15.719  0.1443 -0.1304  0.5101
  487TIP3    H122952   4.840   2.228  15.756  0.4544  0.2136 -0.5178
  487TIP3    H222953   4.728   2.178  15.668 -0.0801 -0.5545  0.5925
  488TIP3   OH222954   3.055   4.350  13.286 -0.0425 -0.0909 -0.0137
  488TIP3    H122955   3.124   4.411  13.311  0.1904 -0.1750 -0.4484
  488TIP3    H222956   3.063   4.342  13.191 -0.0449 -0.8322  0.0478
  489TIP3   OH222957   3.328   0.131  14.870 -0.0417  0.1507 -0.3122
  489TIP3    H122958   3.291   0.043  14.873  1.0705 -0.3983 -1.9822
  489TIP3    H222959   3.255   0.186  14.839 -0.0485 -0.6032 -1.6833
  490TIP3   OH222960   4.001   5.749  10.753  0.1012  0.1709  0.2187
  490TIP3    H122961   4.053   5.678  10.789 -0.6180  0.0718  1.0837
  490TIP3    H222962   3.916   5.709  10.734 -0.0204  0.5883 -0.1101
  491TIP3   OH222963   1.277   5.116  12.494 -0.0717  0.5574 -0.1367
  491TIP3    H122964   1.345   5.059  12.456  0.1979  0.0982  0.9938
  491TIP3    H222965   1.195   5.079  12.461  0.1952  0.7873 -1.0848
  492TIP3   OH222966   2.523   6.030  15.473  0.1307  0.3246  0.2457
  492TIP3    H122967   2.451   6.089  15.495 -0.5656 -0.3851 -0.0678
  492TIP3    H222968   2.492   5.983  15.396  0.6692 -0.4337  0.4840
  493TIP3   OH222969   5.354   4.573  15.095 -0.5508 -0.2938 -0.4972
  493TIP3    H122970   5.261   4.552  15.094 -0.4093 -0.8787 -1.7217
  493TIP3    H222971   5.382   4.551  15.184 -1.9051  1.3805  0.3948
  494TIP3   OH222972   0.242   3.384  16.986 -0.4535  0.3192  0.1234
  494TIP3    H122973   0.180   3.431  17.042 -2.3028 -3.2565  1.2614
  494TIP3    H222974   0.318   3.368  17.042 -0.3558  0.8226  0.1369
  495TIP3   OH222975   5.428   2.866   4.038  0.1271  0.6830 -0.0368
  495TIP3    H122976   5.412   2.898   3.949  0.7291 -1.8932 -1.1241
  495TIP3    H222977   5.514   2.902   4.061  0.2748  0.7983 -0.7615
  496TIP3   OH222978   2.149   6.638   4.342 -0.2391 -0.6949 -0.2301
  496TIP3    H122979   2.197   6.637   4.259  0.3393 -1.5567  0.1050
  496TIP3    H222980   2.214   6.611   4.407 -0.1176  1.9773  0.8168
  497TIP3   OH222981   4.847   1.569   0.548 -0.5767  0.1360  0.1089
  497TIP3    H122982   4.806   1.485   0.567 -0.1465  0.2472  1.6151
  497TIP3    H222983   4.838   1.619   0.629 -1.7416  1.9386 -1.0857
  498TIP3   OH222984   1.502   0.169   4.859  0.2456 -0.3093  0.6118
  498TIP3    H122985   1.598   0.171   4.859  0.2595 -0.7992 -1.0790
  498TIP3    H222986   1.480   0.077   4.845 -0.4867 -0.4881  2.8251
  499TIP3   OH222987   1.795   4.238  15.011  0.1928 -0.0173 -0.0465
  499TIP3    H122988   1.827   4.224  14.922  0.6565 -2.2635  0.4498
  499TIP3    H222989   1.750   4.322  15.007  3.0741  1.5033 -1.6029
  500TIP3   OH222990   5.158   6.800  16.853 -0.6868  0.1984 -0.2476
  500TIP3    H122991   5.072   6.780  16.817 -0.5204  0.2529 -0.6808
  500TIP3    H222992   5.218   6.789  16.779 -0.3478  0.3506  0.0027
  501TIP3   OH222993   4.879   5.613  11.638 -0.5782 -0.0558  0.2096
  501TIP3    H122994   4.858   5.586  11.727 -1.1399  2.0764  0.7693
  501TIP3    H222995   4.952   5.675  11.649 -1.0258  0.6513 -0.7466
  502TIP3   OH222996   0.563   0.373   2.988  0.6911 -0.0239  0.1177
  502TIP3    H122997   0.562   0.468   2.986 -0.2356 -0.0141  0.4477
  502TIP3    H222998   0.470   0.348   2.983  0.9444 -0.9154 -0.3779
  503TIP3   OH222999   4.243   3.243  13.358  0.4328  0.8180  0.2981
  503TIP3    H123000   4.284   3.157  13.366 -2.4043 -0.8744 -2.4062
  503TIP3    H223001   4.181   3.246  13.431 -0.2277  0.1169 -0.2292
  504TIP3   OH223002   2.372   3.877  16.550  0.5306  0.0821  0.1887
  504TIP3    H123003   2.304   3.819  16.586  0.9179 -0.5507 -0.0929
  504TIP3    H223004   2.352   3.883  16.457  0.4236  0.4987  0.2364
  505TIP3   OH223005   1.663   2.151   2.423 -0.3202  0.5541 -0.3542
  505TIP3    H123006   1.631   2.240   2.413  0.0375  0.6559 -0.6138
  505TIP3    H223007   1.604   2.097   2.369  0.1525  0.7831 -1.1079
  506TIP3   OH223008   4.313   0.840   5.810 -0.2367 -0.3975 -0.3190
  506TIP3    H123009   4.379   0.903   5.839  0.1282 -0.6992 -0.4876
  506TIP3    H223010   4.331   0.762   5.861 -2.5896  0.5870  2.0925
  507TIP3   OH223011   0.688   2.886  11.786 -0.0855 -0.3635 -0.4954
  507TIP3    H123012   0.698   2.855  11.697 -0.1620 -0.6158 -0.4146
  507TIP3    H223013   0.630   2.823  11.828 -0.4580  0.0314 -0.4089
  508TIP3   OH223014   1.645   1.762   4.587  0.0355 -0.3654  0.9441
  508TIP3    H123015   1.695   1.684   4.563  1.3302  0.3939  1.1092
  508TIP3    H223016   1.692   1.799   4.661  0.3979  1.4781 -0.1742
  509TIP3   OH223017   4.632   5.323  14.126 -0.5706 -0.0761  0.1781
  509TIP3    H123018   4.609   5.274  14.047  0.5295 -3.0454  1.6525
  509TIP3    H223019   4.550   5.327  14.176 -1.7430  3.3833 -1.8253
  510TIP3   OH223020   6.363   4.797   0.862  0.1449 -0.3049  0.5011
  510TIP3    H123021   6.396   4.760   0.779  0.2701 -1.0893  0.8936
  510TIP3    H223022   6.304   4.729   0.896  0.1777 -0.0296  1.1059
  511TIP3   OH223023   4.916   6.175  14.163 -0.7529  0.1848 -0.0514
  511TIP3    H123024   4.925   6.146  14.072 -1.3869 -0.3950  0.0702
  511TIP3    H223025   4.827   6.209  14.169 -0.7695  0.0690  0.3952
  512TIP3   OH223026   2.371   2.785  13.507  1.0791  0.2772  0.4901
  512TIP3    H123027   2.279   2.808  13.520  1.0549  1.2437 -1.2879
  512TIP3    H223028   2.418   2.836  13.573  0.4507  0.6611  0.6459
  513TIP3   OH223029   4.674   4.114  16.401 -0.3049  0.4230 -0.2050
  513TIP3    H123030   4.765   4.098  16.377  0.1714  1.0932  1.1127
  513TIP3    H223031   4.623   4.064  16.337  0.9993 -0.7920 -0.3107
  514TIP3   OH223032   1.437   1.898   1.401  0.0922  0.3281 -0.4802
  514TIP3    H123033   1.439   1.926   1.309  1.0016  3.6224  0.4783
  514TIP3    H223034   1.502   1.827   1.405  1.7771  1.7259 -1.9427
  515TIP3   OH223035   2.420   1.724   0.715 -0.0278  0.2587  0.0580
  515TIP3    H123036   2.489   1.782   0.746  0.6008 -0.1794 -0.4956
  515TIP3    H223037   2.391   1.677   0.793  1.6386 -0.9394 -0.0191
  516TIP3   OH223038   2.278   1.543   3.228  0.4180  0.1993  0.1348
  516TIP3    H123039   2.279   1.451   3.203  1.8137  0.5907 -1.3514
  516TIP3    H223040   2.350   1.582   3.179  0.3323  1.9367  1.3416
  517TIP3   OH223041   0.466   4.154  16.038 -0.1551 -0.2419 -0.3016
  517TIP3    H123042   0.436   4.207  16.111  0.3533  0.6811 -0.7594
  517TIP3    H223043   0.426   4.068  16.053  0.4587 -0.2662  1.4156
  518TIP3   OH223044   1.516   3.041  15.591  0.3143 -0.0494  0.6255
  518TIP3    H123045   1.597   2.991  15.598  1.0148  1.0930  0.7806
  518TIP3    H223046   1.447   2.975  15.589  1.3717 -1.1050 -1.6913
  519TIP3   OH223047   5.928   5.643   2.720  0.3543  0.1005  0.5627
  519TIP3    H123048   5.971   5.586   2.657  2.0409  0.2737  1.5363
  519TIP3    H223049   5.960   5.614   2.805 -1.1769  0.4740  1.2851
  520TIP3   OH223050   5.683   3.435  11.978 -0.4099 -0.0377  0.8097
  520TIP3    H123051   5.639   3.491  12.042  3.1455  1.9902  1.6254
  520TIP3    H223052   5.726   3.368  12.031  1.9065  1.1989  0.5563
  521TIP3   OH223053   1.489   6.166  16.657 -1.0533  0.7632  0.5977
  521TIP3    H123054   1.429   6.193  16.727 -1.5769  1.1007  0.0199
  521TIP3    H223055   1.434   6.117  16.596 -0.5640  0.3427  0.4963
  522TIP3   OH223056   1.179   0.904  15.627 -0.8163 -0.5657  0.5605
  522TIP3    H123057   1.225   0.940  15.702 -1.9477 -0.5308  1.2486
  522TIP3    H223058   1.238   0.919  15.553  0.0045  0.0198  1.3244
  523TIP3   OH223059   3.952   4.080   3.148  0.4883 -0.7124 -0.6938
  523TIP3    H123060   3.984   4.154   3.199  0.1530 -0.1711 -1.2653
  523TIP3    H223061   4.029   4.024   3.135  0.8673 -0.1766 -0.7636
  524TIP3   OH223062   3.952   1.965  13.793  0.1117 -0.0944  0.0168
  524TIP3    H123063   4.008   1.995  13.721  1.3451  2.3082  1.9434
  524TIP3    H223064   3.933   1.874  13.771  1.9903  0.0380 -2.3963
  525TIP3   OH223065   4.325   4.100   3.689  0.0674  0.1727  0.2556
  525TIP3    H123066   4.241   4.098   3.641  0.0003  1.1188  0.3230
  525TIP3    H223067   4.388   4.063   3.627 -0.1445  0.7559 -0.3169
  526TIP3   OH223068   0.055   3.683  12.134 -0.1612 -0.0896  0.4573
  526TIP3    H123069   0.074   3.680  12.040  0.9204  1.6547  0.5968
  526TIP3    H223070   0.059   3.592  12.162  0.6859 -0.5135 -0.9759
  527TIP3   OH223071   4.456   3.571  16.636 -0.1527 -0.1946 -0.5632
  527TIP3    H123072   4.544   3.548  16.608  0.5378 -0.7940  1.9648
  527TIP3    H223073   4.467   3.650  16.689 -0.9557 -1.0009  0.8276
  528TIP3   OH223074   3.364   0.334   0.848 -0.2945 -0.4841 -0.6132
  528TIP3    H123075   3.400   0.275   0.914 -3.5309  0.3989  2.1070
  528TIP3    H223076   3.419   0.412   0.852  0.0316 -0.7626  0.4628
  529TIP3   OH223077   0.729   2.682   3.311  0.0196 -0.2704 -0.5468
  529TIP3    H123078   0.693   2.600   3.279  0.6175 -0.5499 -0.5046
  529TIP3    H223079   0.660   2.747   3.295  0.1359 -0.4862 -1.9894
  530TIP3   OH223080   2.961   2.978   3.867 -0.1333  0.5395  0.4347
  530TIP3    H123081   2.897   3.011   3.804  0.3926  1.3709  0.3193
  530TIP3    H223082   3.016   2.919   3.816  0.8245  1.8714 -0.1134
  531TIP3   OH223083   3.672   2.340  12.722  0.1388  0.4408 -0.0762
  531TIP3    H123084   3.618   2.417  12.700  1.2858  1.3330  0.1664
  531TIP3    H223085   3.704   2.358  12.810  1.5707  0.3665 -0.5666
  532TIP3   OH223086   6.718   5.537  15.369  0.1377  0.7041 -0.1566
  532TIP3    H123087   6.746   5.598  15.437  0.5417  0.0769  0.2458
  532TIP3    H223088   6.771   5.459  15.384 -0.5012  0.1902 -0.5614
  533TIP3   OH223089   3.592   2.339   5.836 -0.2345  0.2756  0.3479
  533TIP3    H123090   3.538   2.403   5.883 -0.0174  0.9375 -0.2940
  533TIP3    H223091   3.637   2.290   5.905  1.4763  2.4515  0.8055
  534TIP3   OH223092   1.629   2.475  16.794  0.4182 -0.0277 -0.4846
  534TIP3    H123093   1.594   2.387  16.781 -1.8027  0.8278 -0.5741
  534TIP3    H223094   1.668   2.498  16.709 -0.4870 -0.2886 -0.9803
  535TIP3   OH223095   3.264   3.553   0.934 -0.1066  0.5901  0.1424
  535TIP3    H123096   3.319   3.586   0.863  0.5444 -0.3219  0.2143
  535TIP3    H223097   3.323   3.504   0.989 -1.2690 -1.7768 -0.6370
  536TIP3   OH223098   0.239   3.240   1.202 -0.6545  0.3908 -0.3386
  536TIP3    H123099   0.233   3.187   1.282 -0.5760 -0.4357 -0.8703
  536TIP3    H223100   0.328   3.225   1.171  0.1098  2.5747  0.6760
  537TIP3   OH223101   3.963   0.485  16.483  0.2211  0.2365 -0.3947
  537TIP3    H123102   3.951   0.571  16.442 -0.5306 -0.5022 -1.7686
  537TIP3    H223103   3.897   0.430  16.442 -1.5854 -0.1903  2.9510
  538TIP3   OH223104   3.447   2.202  17.242  0.2751  0.5423 -0.5294
  538TIP3    H123105   3.395   2.272  17.281 -1.5375 -0.6816 -0.6563
  538TIP3    H223106   3.395   2.123  17.256  1.2919 -0.4635 -2.2031
  539TIP3   OH223107   1.523   3.879  12.768  0.3213  0.6335 -0.2164
  539TIP3    H123108   1.533   3.974  12.757 -1.2004  0.6457 -1.6355
  539TIP3    H223109   1.606   3.843  12.737  1.4642  1.5550  1.6454
  540TIP3   OH223110   1.478   6.162  14.511 -0.1655  0.0720  0.3225
  540TIP3    H123111   1.500   6.069  14.522 -1.2381 -0.1808  0.3506
  540TIP3    H223112   1.493   6.201  14.597 -0.8438 -0.3092  0.6150
  541TIP3   OH223113   1.544   0.845   2.597  0.2496 -0.1335  0.4339
  541TIP3    H123114   1.471   0.851   2.658  0.9016  2.5028  1.0513
  541TIP3    H223115   1.504   0.842   2.510 -0.6148 -0.9821  0.8591
  542TIP3   OH223116   3.532   0.545   0.927  0.8417  0.0806 -0.3447
  542TIP3    H123117   3.580   0.619   0.889  1.0370 -0.2931 -0.8258
  542TIP3    H223118   3.471   0.586   0.988  1.8972  0.5501  0.4093
  543TIP3   OH223119   6.009   1.502   4.914 -0.1907  0.3357 -0.1656
  543TIP3    H123120   6.069   1.463   4.977  0.5376  2.2410  0.3597
  543TIP3    H223121   5.923   1.465   4.937  0.6269 -1.7651 -0.4027
  544TIP3   OH223122   2.740   2.338  13.531 -0.9799  0.0432 -0.2526
  544TIP3    H123123   2.650   2.347  13.561 -1.1806  0.1558 -0.8840
  544TIP3    H223124   2.786   2.411  13.573 -1.0868 -0.2634  0.4092
  545TIP3   OH223125   4.483   6.651   1.514  0.4186 -0.3538  0.1609
  545TIP3    H123126   4.458   6.733   1.472  2.2154  0.5724  0.8211
  545TIP3    H223127   4.488   6.587   1.443 -1.1922  0.0519 -0.3264
  546TIP3   OH223128   2.894   3.642  17.255 -0.6987 -0.0704 -0.4383
  546TIP3    H123129   2.942   3.644  17.338 -0.5295 -1.1131 -0.5116
  546TIP3    H223130   2.908   3.729  17.218 -0.3107  0.2162  0.3653
  547TIP3   OH223131   2.420   0.801   0.770 -0.2640 -0.3359 -0.0343
  547TIP3    H123132   2.435   0.725   0.713  1.6136 -0.0977  0.1411
  547TIP3    H223133   2.435   0.877   0.713  1.3519 -0.0939  0.7046
  548TIP3   OH223134   3.333   1.850   2.984  0.1846  0.0340 -0.5362
  548TIP3    H123135   3.285   1.793   3.045 -0.9416  0.2303 -1.2125
  548TIP3    H223136   3.308   1.819   2.897  0.4024  0.8727 -0.9064
  549TIP3   OH223137   1.801   0.149   3.571  0.4206  0.7444 -0.3029
  549TIP3    H123138   1.772   0.211   3.638 -0.4078  0.0540 -0.0139
  549TIP3    H223139   1.779   0.063   3.607  1.3527  0.2937 -0.8028
  550TIP3   OH223140   0.698   2.769   3.596 -0.0690 -0.2557  0.0436
  550TIP3    H123141   0.773   2.749   3.652  0.8471 -0.4366 -1.2308
  550TIP3    H223142   0.722   2.735   3.510 -0.3399  2.3436 -1.1193
  551TIP3   OH223143   6.026   4.748   0.231  0.6905  0.0073 -0.1640
  551TIP3    H123144   5.939   4.788   0.227  0.2402 -0.9898 -0.3545
  551TIP3    H223145   6.046   4.724   0.141  1.0394 -0.0270 -0.0787
  552TIP3   OH223146   1.521   1.144  13.619  0.4669 -0.3155 -0.2127
  552TIP3    H123147   1.518   1.052  13.592  3.0858 -0.0420 -1.6594
  552TIP3    H223148   1.577   1.144  13.697 -0.2427 -0.0548  0.2984
  553TIP3   OH223149   6.075   3.252   0.646  0.5678  0.0797 -0.4401
  553TIP3    H123150   6.138   3.185   0.619 -0.3447 -1.1396  0.3710
  553TIP3    H223151   6.017   3.263   0.571  0.7680  0.0080 -0.6044
  554TIP3   OH223152   6.753   4.678  14.436 -0.6099 -0.0352  0.1128
  554TIP3    H123153   6.738   4.584  14.442 -0.1637 -0.2187 -1.4150
  554TIP3    H223154   6.848   4.687  14.427 -0.7607  0.4735 -1.0693
  555TIP3   OH223155   1.430   1.543   2.182  0.2963 -0.5910 -0.1606
  555TIP3    H123156   1.515   1.529   2.138  0.7288  1.8153 -0.1117
  555TIP3    H223157   1.453   1.563   2.272 -0.4251 -1.5308  0.2393
  556TIP3   OH223158   5.803   6.111  16.330 -0.4379  0.4489 -0.6088
  556TIP3    H123159   5.831   6.193  16.371 -1.5164  0.6901 -0.3421
  556TIP3    H223160   5.802   6.047  16.401 -0.2261  0.3543 -0.6900
  557TIP3   OH223161   6.724   4.257   5.532  0.3280  0.3403 -0.4560
  557TIP3    H123162   6.688   4.175   5.567  1.0028  0.0761 -0.3605
  557TIP3    H223163   6.762   4.301   5.607 -0.2784  0.8780 -0.4618
  558TIP3   OH223164   5.394   1.266  17.269 -0.3654  0.4482  0.0835
  558TIP3    H123165   5.461   1.227  17.212 -0.3063  0.3022  0.2555
  558TIP3    H223166   5.406   1.360  17.258 -0.1770  0.4226  0.0643
  559TIP3   OH223167   6.396   1.067   4.727 -0.2261  0.6675  0.2590
  559TIP3    H123168   6.322   1.043   4.671  0.0907  0.8543 -0.2370
  559TIP3    H223169   6.360   1.134   4.786 -0.6162  0.3171  0.4242
  560TIP3   OH223170   0.371   6.390  17.262  0.6879 -0.8563 -0.5337
  560TIP3    H123171   0.433   6.460  17.245  0.6410 -1.0797 -1.6640
  560TIP3    H223172   0.301   6.403  17.197  0.1891 -1.3539 -0.1047
  561TIP3   OH223173   2.596   5.846  15.671 -0.0395  0.2475 -0.5345
  561TIP3    H123174   2.557   5.881  15.591  0.0838  0.1832 -0.6226
  561TIP3    H223175   2.664   5.909  15.694 -0.0035  0.2109 -0.5395
  562TIP3   OH223176   3.707   2.419  11.953  0.2011  0.5498 -0.5698
  562TIP3    H123177   3.731   2.469  11.875  1.8320  0.9990  0.1909
  562TIP3    H223178   3.791   2.397  11.994 -0.5705 -1.2130  0.1169
  563TIP3   OH223179   1.450   4.954  12.341 -0.2200  0.3809 -0.4645
  563TIP3    H123180   1.479   4.893  12.408  0.2246  1.4554  0.3260
  563TIP3    H223181   1.389   4.903  12.287  0.4745 -0.8829 -0.0834
  564TIP3   OH223182   4.023   1.620   0.594  0.0033 -0.5810 -0.4071
  564TIP3    H123183   4.092   1.686   0.604  0.6205 -1.2726  0.0047
  564TIP3    H223184   3.951   1.651   0.647 -0.3138  0.5701 -1.4973
  565TIP3   OH223185   2.063   1.225   2.242 -0.5496 -0.0802  0.4782
  565TIP3    H123186   2.080   1.318   2.259 -0.9148 -0.0958  0.9496
  565TIP3    H223187   2.147   1.182   2.259  0.0211  0.3488 -1.2237
  566TIP3   OH223188   2.909   3.900   1.543  0.0991 -0.5824 -0.7260
  566TIP3    H123189   2.877   3.948   1.466 -0.2123 -0.5656 -0.5872
  566TIP3    H223190   2.862   3.817   1.540  0.0302 -0.5505 -0.5093
  567TIP3   OH223191   1.074   6.525   1.608 -0.2507 -0.1267 -0.2556
  567TIP3    H123192   1.114   6.448   1.568  0.1882  0.2030 -0.4461
  567TIP3    H223193   1.144   6.590   1.612  0.4050 -0.9380  3.2402
  568TIP3   OH223194   1.179   0.970   5.962  0.0229 -1.2774  0.0941
  568TIP3    H123195   1.263   0.932   5.987  0.9833  0.8757  0.2569
  568TIP3    H223196   1.124   0.961   6.040 -0.0881 -3.1324 -0.1695
  569TIP3   OH223197   2.289   0.132   2.336 -0.4432  0.0073  0.5455
  569TIP3    H123198   2.384   0.129   2.349  0.0201 -2.1357 -2.6659
  569TIP3    H223199   2.258   0.049   2.370 -1.5855  1.6819  3.8081
  570TIP3   OH223200   6.753   5.742  14.593  0.3278 -0.4425 -0.4079
  570TIP3    H123201   6.714   5.812  14.645  0.7328 -1.3815  1.2006
  570TIP3    H223202   6.704   5.742  14.511 -0.0303  1.3614 -0.2148
  571TIP3   OH223203   0.985   5.890  11.145 -0.1647 -0.1726 -0.0909
  571TIP3    H123204   0.982   5.983  11.123 -0.1533 -0.0733  0.3083
  571TIP3    H223205   0.898   5.870  11.179  1.1481  0.8439  4.2499
  572TIP3   OH223206   1.130   0.827   3.008  0.2890  0.2037 -0.2425
  572TIP3    H123207   1.173   0.774   3.075  0.7373  1.5477  0.5645
  572TIP3    H223208   1.150   0.917   3.033 -1.4699  0.7962 -0.9057
  573TIP3   OH223209   0.274   0.398   2.493 -0.2337  0.1980 -0.1069
  573TIP3    H123210   0.332   0.454   2.544 -0.4736  0.4710 -0.1299
  573TIP3    H223211   0.212   0.364   2.557  2.2827 -3.2225  0.6524
  574TIP3   OH223212   4.094   5.491   0.720  0.1888 -0.6434  0.4433
  574TIP3    H123213   4.051   5.410   0.690 -0.2638 -0.2805  0.1068
  574TIP3    H223214   4.158   5.511   0.652  1.2417 -1.4470  1.1775
  575TIP3   OH223215   3.526   1.120  17.028  0.1905  0.7982 -0.1029
  575TIP3    H123216   3.559   1.074  16.951  1.4307  0.4299  0.6353
  575TIP3    H223217   3.482   1.053  17.079  0.6702  0.7452  0.2353
  576TIP3   OH223218   2.754   6.253  11.588 -0.3402  0.3680 -0.8190
  576TIP3    H123219   2.817   6.257  11.517 -0.4229  0.3587 -0.8927
  576TIP3    H223220   2.699   6.177  11.567  1.0805 -1.0455  0.4645
  577TIP3   OH223221   2.050   0.158   3.767 -0.3923 -0.9756 -0.3750
  577TIP3    H123222   1.967   0.179   3.810 -0.1440 -1.4069  0.3140
  577TIP3    H223223   2.063   0.230   3.705 -0.5487 -0.1309  0.5574
  578TIP3   OH223224   6.724   4.562  13.739  0.2175  0.1767 -0.0739
  578TIP3    H123225   6.681   4.631  13.790  0.7906 -0.3912  1.2259
  578TIP3    H223226   6.806   4.601  13.710 -0.0036  0.4299 -0.3544
  579TIP3   OH223227   3.163   2.888  14.670  0.2310 -0.3413  0.2031
  579TIP3    H123228   3.109   2.967  14.666  0.4875 -0.0907  1.2797
  579TIP3    H223229   3.193   2.885  14.761  1.1843 -1.0378 -0.1265
  580TIP3   OH223230   1.092   5.676  16.068 -0.3719 -0.4924 -0.1291
  580TIP3    H123231   1.054   5.763  16.054  0.0007 -0.2599  0.3175
  580TIP3    H223232   1.025   5.629  16.118  0.4158  0.3076  1.7228
  581TIP3   OH223233   6.327   0.534  14.649 -0.4523  0.0038  0.3806
  581TIP3    H123234   6.364   0.582  14.724 -0.5118  1.5856 -0.5655
  581TIP3    H223235   6.390   0.548  14.579 -2.3609  1.9678 -0.9963
  582TIP3   OH223236   0.666   2.981  13.554  0.2961  0.2372 -0.3273
  582TIP3    H123237   0.759   2.956  13.560  0.4085  0.5973 -0.5844
  582TIP3    H223238   0.665   3.055  13.494 -0.0887  0.6021  0.1242
  583TIP3   OH223239   0.053   3.949  12.026 -0.3289  0.5007  0.1070
  583TIP3    H123240   0.068   3.858  12.053 -0.6361 -0.1155 -1.6857
  583TIP3    H223241   0.141   3.985  12.014 -0.2067  0.0359 -0.4337
  584TIP3   OH223242   6.343   4.611   2.117 -0.5352  0.1161  0.2515
  584TIP3    H123243   6.423   4.610   2.065 -1.5162  0.9323 -1.3073
  584TIP3    H223244   6.318   4.704   2.122 -0.7477 -0.0052  1.7311
  585TIP3   OH223245   2.094   1.011  11.480 -0.5667 -0.1608  0.2866
  585TIP3    H123246   2.163   1.022  11.415 -0.6887  0.1713  0.2140
  585TIP3    H223247   2.092   1.094  11.527 -0.6183 -0.3267  0.5778
  586TIP3   OH223248   4.517   3.735   4.552  0.7067 -0.2822  0.1054
  586TIP3    H123249   4.578   3.789   4.502  0.0981 -0.2896 -0.6611
  586TIP3    H223250   4.450   3.796   4.581 -0.5269 -0.7647 -1.6166
  587TIP3   OH223251   1.327   0.774   5.752 -0.2485 -0.0863 -0.9952
  587TIP3    H123252   1.249   0.748   5.704 -1.1440  0.4709  0.1456
  587TIP3    H223253   1.295   0.804   5.837  1.2501 -0.4184 -0.2847
  588TIP3   OH223254   1.172   1.761   0.923  0.0510  0.4140  0.2531
  588TIP3    H123255   1.100   1.703   0.949 -0.7678  0.9846 -0.7360
  588TIP3    H223256   1.139   1.809   0.848  2.4171 -1.2623 -1.9513
  589TIP3   OH223257   6.750   5.064  14.514  0.3908  0.0744 -0.6738
  589TIP3    H123258   6.680   5.000  14.517  0.4539  0.0534  1.2579
  589TIP3    H223259   6.779   5.072  14.605  1.6133  1.4759 -1.1569
  590TIP3   OH223260   0.915   5.908   0.617 -0.3734 -0.0513  0.3793
  590TIP3    H123261   0.888   5.976   0.556 -0.3843  0.1460  0.6044
  590TIP3    H223262   0.974   5.851   0.566 -0.1029  0.3121  0.2850
  591TIP3   OH223263   6.395   6.345  12.913 -0.7749  0.6857 -0.4717
  591TIP3    H123264   6.418   6.254  12.930 -1.7472  0.3708 -0.7970
  591TIP3    H223265   6.300   6.344  12.906 -0.9671  2.0574  1.5003
  592TIP3   OH223266   0.447   0.344  14.525  0.5035  0.3756 -0.3170
  592TIP3    H123267   0.358   0.327  14.496  0.3203 -0.1990  0.5364
  592TIP3    H223268   0.456   0.439  14.524 -1.0008  0.5931  2.0501
  593TIP3   OH223269   0.672   2.004   0.590  0.3903  0.7505 -0.4714
  593TIP3    H123270   0.604   2.067   0.614 -0.3865  0.0632 -0.8428
  593TIP3    H223271   0.654   1.983   0.499  0.4421 -0.2510 -0.2549
  594TIP3   OH223272   2.924   0.691  12.339  0.1945  0.8377 -0.9942
  594TIP3    H123273   2.876   0.697  12.256  0.0089  2.3800 -0.7829
  594TIP3    H223274   2.922   0.598  12.361 -0.8086  0.5861 -2.1115
  595TIP3   OH223275   5.629   5.196  13.008  0.2937  0.2327 -0.3910
  595TIP3    H123276   5.566   5.250  13.056  0.5280  0.8210 -0.7466
  595TIP3    H223277   5.690   5.258  12.970  2.8327 -0.4289  2.3656
  596TIP3   OH223278   1.916   4.057  12.508  0.0661  0.6263 -0.2492
  596TIP3    H123279   1.912   4.148  12.536  1.4248  0.7115 -0.2889
  596TIP3    H223280   1.843   4.014  12.554 -1.4298  2.0070 -1.3080
  597TIP3   OH223281   3.887   0.255  13.072  0.4475  0.0361 -0.0192
  597TIP3    H123282   3.970   0.270  13.117 -0.7873  1.8081  1.7647
  597TIP3    H223283   3.894   0.306  12.991  0.6152  1.2244  0.7340
  598TIP3   OH223284   1.003   5.392   2.164 -0.6730  0.3122  0.4595
  598TIP3    H123285   0.963   5.475   2.138 -0.4393 -0.1943 -1.6180
  598TIP3    H223286   1.043   5.359   2.084  1.0661 -0.7911  1.7416
  599TIP3   OH223287   4.181   3.037   5.014  0.0991  0.4882  0.1728
  599TIP3    H123288   4.262   3.081   5.040 -0.2111  0.9518  0.3769
  599TIP3    H223289   4.117   3.108   5.009 -0.2908  0.1235  0.0072
  600TIP3   OH223290   6.767   5.105   5.517  0.0513  0.7791  0.1338
  600TIP3    H123291   6.849   5.059   5.499 -0.4225 -0.1044  0.2198
  600TIP3    H223292   6.747   5.151   5.436 -1.8257 -2.8012 -1.5624
  601TIP3   OH223293   5.923   3.507   5.932  0.3109 -0.4125  0.4220
  601TIP3    H123294   5.900   3.445   6.002 -1.5434 -0.4287 -0.1738
  601TIP3    H223295   5.913   3.593   5.971  0.2249 -0.4401  0.4610
  602TIP3   OH223296   6.064   2.985   1.295  0.3887 -0.0964 -1.1782
  602TIP3    H123297   6.004   2.992   1.221 -0.0756 -0.8007 -0.8727
  602TIP3    H223298   6.076   2.891   1.308  0.4193  0.0172 -0.3205
  603TIP3   OH223299   6.557   1.569  11.732 -0.0001  0.1252 -0.3863
  603TIP3    H123300   6.632   1.575  11.791 -1.0429 -0.6052  1.0497
  603TIP3    H223301   6.549   1.475  11.712 -2.3114 -0.2427  1.8970
  604TIP3   OH223302   1.975   6.620  13.442 -0.3527 -0.4783 -0.1829
  604TIP3    H123303   1.992   6.662  13.358  0.4988 -1.5024 -0.5404
  604TIP3    H223304   2.011   6.531  13.432 -1.5613 -1.0911  0.7505
  605TIP3   OH223305   3.581   2.887   1.088  0.6441 -0.5224  0.5549
  605TIP3    H123306   3.647   2.883   1.019 -0.0890 -0.7736 -0.1372
  605TIP3    H223307   3.618   2.837   1.160  1.8391  0.5596  0.7139
  606TIP3   OH223308   0.622   5.388   1.713 -0.0982 -0.4375  0.3570
  606TIP3    H123309   0.635   5.380   1.807  1.3614  0.3918  0.2339
  606TIP3    H223310   0.531   5.419   1.704 -0.1776 -0.3094  1.4852
  607TIP3   OH223311   0.750   3.180   1.136  0.3143 -0.2010 -0.2698
  607TIP3    H123312   0.743   3.255   1.077  0.3720 -0.6668 -0.8728
  607TIP3    H223313   0.842   3.181   1.165  0.0371  0.6116  0.5942
  608TIP3   OH223314   2.137   1.759   3.216 -0.4486  0.0948 -0.2260
  608TIP3    H123315   2.166   1.667   3.217  0.4785  0.3710 -1.1367
  608TIP3    H223316   2.072   1.763   3.146 -2.6934 -0.4975  1.7375
  609TIP3   OH223317   6.450   6.102  16.142 -0.1452 -0.2472  0.0484
  609TIP3    H123318   6.376   6.044  16.157 -0.8485  0.3845 -0.8481
  609TIP3    H223319   6.462   6.101  16.047  1.8093 -1.3130  0.2866
  610TIP3   OH223320   2.201   4.560   5.461  0.2264 -0.8644  0.3534
  610TIP3    H123321   2.278   4.596   5.506  0.4774  0.5927 -1.1843
  610TIP3    H223322   2.128   4.615   5.491  0.3022 -0.2586 -0.5616
  611TIP3   OH223323   6.587   0.373  13.092 -0.0930  0.1407 -0.1694
  611TIP3    H123324   6.513   0.374  13.031  0.0100  1.7933 -0.3013
  611TIP3    H223325   6.650   0.314  13.052 -0.7806 -0.2273 -0.7366
  612TIP3   OH223326   2.783   2.370  16.142  0.3913  0.6156 -0.3024
  612TIP3    H123327   2.867   2.369  16.189 -0.2140 -0.5752  0.7854
  612TIP3    H223328   2.732   2.300  16.183 -1.6901  2.2901  0.0323
  613TIP3   OH223329   4.263   6.771  12.384  1.1408 -0.5864 -0.9736
  613TIP3    H123330   4.300   6.859  12.386  0.3960 -0.2717 -0.8132
  613TIP3    H223331   4.337   6.712  12.398  1.5594  0.0383 -0.5834
  614TIP3   OH223332   5.172   4.722  16.551 -0.1265 -0.3202 -0.1192
  614TIP3    H123333   5.151   4.633  16.522  1.0802 -0.4629 -0.5913
  614TIP3    H223334   5.224   4.709  16.631 -0.2710 -0.0319  0.0202
  615TIP3   OH223335   0.556   2.883   5.074 -0.1180  0.0554 -0.3295
  615TIP3    H123336   0.469   2.903   5.041 -0.0657  1.3455  0.2957
  615TIP3    H223337   0.541   2.815   5.140 -0.8576  1.4814  1.0001
  616TIP3   OH223338   2.260   5.348   3.533 -0.2010  0.5410  0.4771
  616TIP3    H123339   2.267   5.390   3.448  0.5807  0.7485  0.6464
  616TIP3    H223340   2.348   5.317   3.553 -0.3780  0.4829  1.2024
  617TIP3   OH223341   2.398   2.605   4.457 -0.5925  0.4590  0.0135
  617TIP3    H123342   2.332   2.561   4.404 -0.3050  2.0304 -1.7379
  617TIP3    H223343   2.357   2.688   4.481  1.2559  2.2143 -2.5362
  618TIP3   OH223344   2.550   5.431  14.063 -0.1542 -0.1051  0.1442
  618TIP3    H123345   2.638   5.402  14.038 -0.5021  0.2547 -1.5823
  618TIP3    H223346   2.519   5.481  13.987 -2.1845 -0.9917  0.3561
  619TIP3   OH223347   4.584   4.970  12.851  0.3850  0.3597  0.1310
  619TIP3    H123348   4.670   4.997  12.817  0.2063 -0.6109 -1.1191
  619TIP3    H223349   4.523   4.991  12.781 -0.3816  0.8148  0.9192
  620TIP3   OH223350   0.441   3.380   6.432 -0.4621 -0.1465 -0.5179
  620TIP3    H123351   0.460   3.409   6.521  0.0766  0.8375 -0.9563
  620TIP3    H223352   0.350   3.406   6.418 -0.7388 -0.8339 -0.0506
  621TIP3   OH223353   6.654   1.995  13.007  0.6940  0.5927 -0.0613
  621TIP3    H123354   6.595   1.946  13.063  1.4720 -0.7950 -0.4234
  621TIP3    H223355   6.611   2.080  12.994 -0.7336 -0.0442  0.4610
  622TIP3   OH223356   2.448   2.572  15.826  0.4838  0.1690  0.0200
  622TIP3    H123357   2.503   2.591  15.902  0.4340 -1.3096  0.4339
  622TIP3    H223358   2.383   2.509  15.858 -0.5002  0.7098 -0.8568
  623TIP3   OH223359   0.862   3.491  15.100 -0.2866 -0.5342 -0.2795
  623TIP3    H123360   0.780   3.446  15.078  0.5199 -1.8437 -0.6601
  623TIP3    H223361   0.898   3.442  15.173 -0.3653  0.6888  0.5925
  624TIP3   OH223362   6.783   1.410  13.161  0.4145  0.2425 -0.6398
  624TIP3    H123363   6.757   1.489  13.209 -0.7506 -0.6008  0.1320
  624TIP3    H223364   6.758   1.428  13.070 -2.7558 -0.4417  0.0282
  625TIP3   OH223365   1.648   4.852  11.638 -0.5212 -0.1678 -0.1236
  625TIP3    H123366   1.670   4.937  11.675  1.6433 -0.4534 -0.6233
  625TIP3    H223367   1.672   4.789  11.706 -1.2252 -0.4211 -0.1108
  626TIP3   OH223368   4.491   0.203  17.243  0.2566  0.0613  0.3155
  626TIP3    H123369   4.473   0.120  17.198  0.3794  0.5503 -0.6518
  626TIP3    H223370   4.585   0.201  17.261  0.3871  0.2778 -0.3154
  627TIP3   OH223371   3.525   2.631  12.202  0.0208 -0.2997 -0.1437
  627TIP3    H123372   3.608   2.677  12.213  0.3157 -0.2177 -2.5392
  627TIP3    H223373   3.550   2.542  12.177 -0.6029 -0.8587  1.1642
  628TIP3   OH223374   1.101   6.072   3.847 -0.2205  0.3218  0.5927
  628TIP3    H123375   1.030   6.018   3.812  0.6909 -0.1382 -0.5851
  628TIP3    H223376   1.056   6.142   3.895 -1.4375 -0.7849  1.1018
  629TIP3   OH223377   0.395   1.002   3.232  0.5286  0.4279  0.2402
  629TIP3    H123378   0.488   0.987   3.215  0.1542 -0.2946 -1.2306
  629TIP3    H223379   0.374   1.081   3.181  0.3120  0.5424  0.5037
  630TIP3   OH223380   0.787   2.879  14.168  0.7353 -0.2140  0.3267
  630TIP3    H123381   0.821   2.790  14.180 -0.1763 -0.7812 -1.1378
  630TIP3    H223382   0.704   2.866  14.122  0.4412  1.3848  0.3894
  631TIP3   OH223383   2.320   1.075   4.147 -0.4151 -0.5768 -0.2890
  631TIP3    H123384   2.249   1.073   4.211  1.1604 -1.3808  1.4813
  631TIP3    H223385   2.334   0.984   4.123 -0.8617 -0.2951 -1.6434
  632TIP3   OH223386   3.374   0.780   0.155  0.8406  0.4175  0.1821
  632TIP3    H123387   3.342   0.838   0.223  1.8409  2.0359 -0.7093
  632TIP3    H223388   3.435   0.722   0.200  1.8895  1.8091  0.5848
  633TIP3   OH223389   0.059   2.203   0.169 -0.1371  0.0891 -0.0472
  633TIP3    H123390   0.154   2.191   0.170  0.1601  2.0797 -0.8221
  633TIP3    H223391   0.037   2.210   0.076 -0.6908  2.0755  0.2122
  634TIP3   OH223392   5.138   4.487  15.869  0.0867 -0.1991 -0.5367
  634TIP3    H123393   5.123   4.410  15.924 -0.0958 -1.0343 -1.7427
  634TIP3    H223394   5.218   4.526  15.905  1.0294 -1.7912 -0.8530
  635TIP3   OH223395   2.556   6.442   5.373 -0.1983  0.3523 -0.4604
  635TIP3    H123396   2.492   6.399   5.431  1.6365  0.6244  1.8421
  635TIP3    H223397   2.595   6.370   5.325  1.1219 -0.3724  1.6131
  636TIP3   OH223398   0.798   5.593   2.528 -0.2437 -0.2404  0.0577
  636TIP3    H123399   0.833   5.505   2.544 -0.0794 -0.2992 -0.6049
  636TIP3    H223400   0.729   5.581   2.464 -0.3525  0.0915  0.1085
  637TIP3   OH223401   3.285   5.361   2.671  0.3202 -0.7495  0.2166
  637TIP3    H123402   3.312   5.271   2.654  1.2449 -0.3812 -0.3203
  637TIP3    H223403   3.342   5.390   2.742  1.7341  0.2047 -1.2760
  638TIP3   OH223404   3.669   4.171  12.878 -0.0437  0.0017 -0.6436
  638TIP3    H123405   3.756   4.129  12.880  0.8160  1.7387  2.6817
  638TIP3    H223406   3.687   4.262  12.858 -1.1427  0.2811 -0.3750
  639TIP3   OH223407   4.144   2.011  15.690  0.0888  0.4828 -0.0203
  639TIP3    H123408   4.195   2.055  15.759  1.7462 -0.4128 -0.6339
  639TIP3    H223409   4.153   1.918  15.710 -1.1234  0.3045 -0.2941
  640TIP3   OH223410   2.567   5.695   2.103  0.3811 -0.3416 -0.4259
  640TIP3    H123411   2.513   5.670   2.028  1.1740 -0.9864 -0.7958
  640TIP3    H223412   2.508   5.692   2.178 -0.0541 -1.2018 -0.7973
  641TIP3   OH223413   1.579   4.154   1.621 -0.1062 -0.0332 -0.2696
  641TIP3    H123414   1.626   4.104   1.554 -0.0568  0.3872 -0.5473
  641TIP3    H223415   1.588   4.101   1.701 -0.5572 -0.7610 -0.6978
  642TIP3   OH223416   4.536   2.312  11.638 -0.1839  0.2271 -0.4032
  642TIP3    H123417   4.533   2.228  11.593  1.8981  0.7880 -1.6465
  642TIP3    H223418   4.523   2.290  11.731  0.2653 -1.4612 -0.7303
  643TIP3   OH223419   0.844   2.407   2.171  0.2550  0.0900 -0.4218
  643TIP3    H123420   0.824   2.423   2.263  1.4386  0.2409 -0.1747
  643TIP3    H223421   0.853   2.494   2.132 -0.2109  0.0276 -0.6692
  644TIP3   OH223422   0.168   4.629  13.668  0.2839 -0.5440  0.3259
  644TIP3    H123423   0.228   4.619  13.595  0.7355  0.6492  0.5259
  644TIP3    H223424   0.219   4.604  13.745 -0.1536 -1.6760  0.2651
  645TIP3   OH223425   2.659   4.822   3.234  0.0462  0.7283 -0.0487
  645TIP3    H123426   2.746   4.796   3.202 -0.6044  2.0595 -3.0757
  645TIP3    H223427   2.670   4.913   3.261 -0.1857  0.5942  0.5080
  646TIP3   OH223428   5.881   3.766  17.063  0.2328 -0.0962 -0.2153
  646TIP3    H123429   5.911   3.723  16.983  2.5539  1.8766 -0.4582
  646TIP3    H223430   5.921   3.716  17.133 -0.3422 -0.7378 -0.3391
  647TIP3   OH223431   5.984   3.051  13.676 -0.2550 -0.3749 -0.0403
  647TIP3    H123432   5.903   3.008  13.705 -0.9750  1.1154  0.2026
  647TIP3    H223433   5.956   3.109  13.605  0.9423 -1.3702 -1.3591
  648TIP3   OH223434   0.972   4.728   1.082  0.2593  0.0009 -0.5198
  648TIP3    H123435   1.033   4.785   1.130 -1.3095  0.0410  1.5119
  648TIP3    H223436   0.975   4.645   1.130 -2.4983  0.5238  0.6647
  649TIP3   OH223437   6.218   3.802   2.221  0.3996  0.4129  0.3652
  649TIP3    H123438   6.238   3.879   2.275  0.1612  0.4039  0.4675
  649TIP3    H223439   6.130   3.776   2.248 -0.3322  1.3186 -1.1131
  650TIP3   OH223440   6.241   2.225  13.171  0.0897 -0.8374  0.9264
  650TIP3    H123441   6.196   2.298  13.214 -2.9249 -1.6481 -0.7265
  650TIP3    H223442   6.206   2.147  13.213 -0.1715 -1.4925 -0.4933
  651TIP3   OH223443   3.664   2.296  13.911 -0.1019  0.4314 -0.2931
  651TIP3    H123444   3.617   2.375  13.886  1.5992  1.4080 -0.4546
  651TIP3    H223445   3.664   2.242  13.831  1.5654  1.6821 -1.1598
  652TIP3   OH223446   5.594   2.435  13.785 -0.5590 -0.0437  0.6425
  652TIP3    H123447   5.535   2.469  13.718 -0.7636  0.8928  1.2898
  652TIP3    H223448   5.598   2.504  13.851  4.0993  1.5256 -1.1092
  653TIP3   OH223449   3.782   1.301   4.088  0.5136 -0.4419 -0.6115
  653TIP3    H123450   3.701   1.258   4.115  0.3013 -0.0179 -0.5631
  653TIP3    H223451   3.819   1.336   4.169  0.7019 -0.5611 -0.6446
  654TIP3   OH223452   6.450   1.790  11.629 -0.6078  0.0771 -0.0613
  654TIP3    H123453   6.416   1.736  11.558 -2.0995  0.5020  0.3187
  654TIP3    H223454   6.505   1.730  11.680 -2.1762 -1.0611  0.3118
  655TIP3   OH223455   6.272   1.299   2.828  0.0757  0.1150 -0.1420
  655TIP3    H123456   6.222   1.348   2.762  0.3749  0.5577 -0.0429
  655TIP3    H223457   6.349   1.353   2.844  0.3910 -0.3744 -0.0019
  656TIP3   OH223458   2.639   1.239  14.249  0.0962 -0.1065 -0.3159
  656TIP3    H123459   2.650   1.272  14.339  1.7155 -1.3087 -0.0461
  656TIP3    H223460   2.655   1.316  14.194 -2.2636  0.9594  0.4340
  657TIP3   OH223461   3.649   2.776   2.997 -0.5596  0.7153  0.3051
  657TIP3    H123462   3.735   2.750   2.964 -2.0831 -0.4846 -2.9047
  657TIP3    H223463   3.628   2.709   3.062  0.4156  0.3759  0.2907
  658TIP3   OH223464   4.653   5.212   2.029  0.2955 -0.7513  0.0593
  658TIP3    H123465   4.730   5.212   1.972  0.3622  1.2148  0.0962
  658TIP3    H223466   4.672   5.279   2.095 -0.3643 -2.0402  1.5849
  659TIP3   OH223467   3.342   0.427   1.633  0.6852  0.3670  0.2435
  659TIP3    H123468   3.282   0.461   1.699  1.0866  0.6954  0.4404
  659TIP3    H223469   3.429   0.452   1.664  0.8458  0.9727 -0.6591
  660TIP3   OH223470   3.004   4.959   0.145  0.2996 -0.0032 -0.0584
  660TIP3    H123471   3.064   4.943   0.072  1.4112 -0.5115  0.9554
  660TIP3    H223472   3.056   5.008   0.208 -1.0574  1.6142 -0.1690
  661TIP3   OH223473   6.656   2.396   0.790  0.4560 -0.0832 -0.5791
  661TIP3    H123474   6.688   2.324   0.844 -1.6760 -1.0413 -0.5398
  661TIP3    H223475   6.663   2.363   0.700  2.3417  0.8338 -0.7748
  662TIP3   OH223476   6.687   4.290  15.332  0.5451  0.2798  0.1468
  662TIP3    H123477   6.745   4.358  15.296 -0.2450  0.8246 -0.1114
  662TIP3    H223478   6.746   4.222  15.363  1.3289  0.8480 -0.0892
  663TIP3   OH223479   1.939   6.578  10.529  0.4938 -0.3034 -0.1917
  663TIP3    H123480   1.874   6.640  10.563 -0.1956 -1.4847  0.6711
  663TIP3    H223481   2.010   6.581  10.594 -0.1340 -1.3971  0.5654
  664TIP3   OH223482   2.855   5.227  12.083  0.3197  0.0574  0.0143
  664TIP3    H123483   2.805   5.307  12.097 -0.0423  0.1546 -1.7313
  664TIP3    H223484   2.796   5.170  12.034  1.2363 -0.5619 -0.3760
  665TIP3   OH223485   3.997   4.649   2.331 -0.0987 -0.2111  0.2677
  665TIP3    H123486   3.960   4.613   2.412 -0.2488  0.2614  0.4095
  665TIP3    H223487   3.944   4.727   2.313 -0.2461 -0.4763 -0.4403
  666TIP3   OH223488   5.272   6.526  11.671  0.0491 -0.1030  0.4389
  666TIP3    H123489   5.304   6.446  11.629 -0.7632 -0.3045  0.1829
  666TIP3    H223490   5.228   6.574  11.600  0.6157  0.6132  0.5694
  667TIP3   OH223491   2.322   5.701   4.863  0.2634 -0.6583  0.5258
  667TIP3    H123492   2.297   5.632   4.801  0.0644  0.5547 -0.7813
  667TIP3    H223493   2.246   5.758   4.867  0.7568 -0.0168  0.8793
  668TIP3   OH223494   5.890   4.677   4.611  0.1255  0.5154  0.1237
  668TIP3    H123495   5.881   4.741   4.541  0.1789  0.6950  0.2793
  668TIP3    H223496   5.829   4.607   4.589 -3.2150  2.6127  2.2066
  669TIP3   OH223497   5.069   4.810   3.328  0.4080 -0.5767 -0.6910
  669TIP3    H123498   5.122   4.791   3.405 -1.2084 -1.1290  0.2947
  669TIP3    H223499   4.987   4.762   3.342 -0.8944  1.3086 -1.5567
  670TIP3   OH223500   1.211   6.360  13.144  0.4622 -0.0957  0.3167
  670TIP3    H123501   1.274   6.390  13.209  1.1553  0.1430 -0.4479
  670TIP3    H223502   1.144   6.429  13.142  2.1929  1.6198 -1.6430
  671TIP3   OH223503   4.294   6.619   0.351 -0.4821  0.6113  0.2954
  671TIP3    H123504   4.225   6.616   0.418  0.7593 -0.6937  1.5812
  671TIP3    H223505   4.255   6.578   0.274 -1.2900  0.2808  0.8747
  672TIP3   OH223506   2.266   4.855  15.552 -0.5945  0.0012 -0.2317
  672TIP3    H123507   2.335   4.828  15.612 -1.3254 -4.5291 -1.2784
  672TIP3    H223508   2.312   4.890  15.476  0.5240 -1.0951 -0.0704
  673TIP3   OH223509   2.399   3.704  12.302 -0.1016  0.4230 -0.3367
  673TIP3    H123510   2.446   3.778  12.341 -0.6650 -0.0170  1.2011
  673TIP3    H223511   2.311   3.709  12.340  0.3417 -2.0013  1.0927
  674TIP3   OH223512   3.306   6.132   3.141 -0.1205 -0.5391  0.3850
  674TIP3    H123513   3.343   6.210   3.182 -1.7366  0.2151  0.4408
  674TIP3    H223514   3.382   6.083   3.111  0.8835  1.6172 -0.7089
  675TIP3   OH223515   6.284   0.087  16.370 -0.0784  0.5221  0.4962
  675TIP3    H123516   6.248   0.168  16.332 -0.7269  0.2658  0.5584
  675TIP3    H223517   6.348   0.057  16.305 -0.9714  0.2421 -0.2716
  676TIP3   OH223518   5.108   4.027   5.148 -0.2010  0.4579  0.0151
  676TIP3    H123519   5.157   3.981   5.080  0.2647  0.5270  0.2990
  676TIP3    H223520   5.031   3.973   5.164 -0.2923  0.4282 -0.5480
  677TIP3   OH223521   2.598   3.046  11.800 -0.2150  0.2534  0.1067
  677TIP3    H123522   2.519   3.045  11.746  0.2287 -1.2644 -0.5625
  677TIP3    H223523   2.610   2.955  11.826  2.3100  0.1159 -1.3348
  678TIP3   OH223524   1.319   1.662   5.997 -0.3492 -0.8311 -0.4991
  678TIP3    H123525   1.389   1.604   6.027  0.4245 -0.5113 -1.6428
  678TIP3    H223526   1.329   1.741   6.050  1.1795 -0.1644 -1.7532
  679TIP3   OH223527   3.857   3.834  17.263 -0.2765 -0.1865  0.2431
  679TIP3    H123528   3.808   3.916  17.264  0.1601  0.1000 -1.0009
  679TIP3    H223529   3.904   3.833  17.346 -0.7434  0.5354  0.5206
  680TIP3   OH223530   0.330   6.058   1.522 -0.0211  0.5755  0.2171
  680TIP3    H123531   0.316   6.138   1.471  1.8826  0.4132 -0.6062
  680TIP3    H223532   0.379   6.087   1.599  1.5117  0.0945 -0.5518
  681TIP3   OH223533   0.513   6.234  11.003  0.6468 -0.0582 -0.0648
  681TIP3    H123534   0.443   6.237  10.937  0.0188  0.7682  0.6264
  681TIP3    H223535   0.504   6.148  11.043 -1.7539  1.0341  1.8883
  682TIP3   OH223536   0.033   1.995   4.272  0.2251 -0.7240 -0.2786
  682TIP3    H123537  -0.023   1.982   4.349  0.8535 -1.8816 -0.0079
  682TIP3    H223538   0.071   1.908   4.255  0.9878 -0.2185 -1.1981
  683TIP3   OH223539   5.849   0.545   1.267  0.2634 -0.0105  0.2615
  683TIP3    H123540   5.774   0.579   1.316 -0.0145 -0.5550  0.2229
  683TIP3    H223541   5.923   0.556   1.327 -0.0653 -0.6213  0.7901
  684TIP3   OH223542   5.783   2.185  14.737  0.9375  0.0743  0.0253
  684TIP3    H123543   5.772   2.272  14.777  2.3264  1.0818 -1.7092
  684TIP3    H223544   5.730   2.127  14.791 -0.4109  2.0908  0.9373
  685TIP3   OH223545   4.948   1.712  14.040 -0.5262 -0.1961  0.3579
  685TIP3    H123546   4.876   1.667  13.996  0.4627 -1.2996 -0.1580
  685TIP3    H223547   5.022   1.706  13.979  0.4048 -0.3299  1.4734
  686TIP3   OH223548   0.749   2.556   6.719 -0.2675 -0.1676  0.2945
  686TIP3    H123549   0.718   2.635   6.763  0.0290  0.4840 -0.6409
  686TIP3    H223550   0.816   2.588   6.658  0.1441 -1.1938  0.2106
  687TIP3   OH223551   4.392   5.036   2.168  0.3980  0.0982 -0.8557
  687TIP3    H123552   4.444   4.956   2.172 -0.7320 -0.5687  1.5203
  687TIP3    H223553   4.323   5.017   2.105  0.9303 -0.2840 -1.3303
  688TIP3   OH223554   5.603   0.711   5.344  0.0206  0.5770  0.0117
  688TIP3    H123555   5.627   0.799   5.374  0.4419  1.0136 -1.5482
  688TIP3    H223556   5.686   0.664   5.336 -0.0940  0.4170 -0.2741
  689TIP3   OH223557   2.969   5.506  15.178 -0.5852 -0.5477  0.0546
  689TIP3    H123558   2.963   5.412  15.159 -0.6850 -0.6513  0.5801
  689TIP3    H223559   2.883   5.541  15.157 -0.6481 -0.6327  0.1726
  690TIP3   OH223560   4.905   5.475  12.500 -0.5229 -0.0530 -0.0137
  690TIP3    H123561   4.926   5.407  12.564 -0.5062 -1.8870 -1.9140
  690TIP3    H223562   4.849   5.536  12.547 -0.7776 -1.5303  1.6550
  691TIP3   OH223563   2.839   0.681   3.868 -0.3278  0.3365 -0.4011
  691TIP3    H123564   2.928   0.650   3.850 -0.3802  0.3983 -0.7866
  691TIP3    H223565   2.789   0.601   3.885  0.1212  0.4029  1.3199
  692TIP3   OH223566   0.715   1.282  13.468  0.5003 -0.8550  0.3545
  692TIP3    H123567   0.796   1.255  13.511  0.5389 -0.5786  0.4584
  692TIP3    H223568   0.667   1.330  13.536  1.1288  0.7114 -0.2820
  693TIP3   OH223569   2.772   5.283   2.961 -0.0981  0.2066  0.2951
  693TIP3    H123570   2.749   5.374   2.941 -0.5908  0.5728  2.3709
  693TIP3    H223571   2.859   5.289   3.001  1.3705 -0.6235 -2.6650
  694TIP3   OH223572   3.347   1.592   4.524 -0.5783 -0.2841 -0.6048
  694TIP3    H123573   3.423   1.590   4.465  0.2978  2.0007  0.3911
  694TIP3    H223574   3.373   1.652   4.594 -2.5711 -1.0195  0.8052
  695TIP3   OH223575   4.733   4.393  16.414  0.2618  0.5379  0.2235
  695TIP3    H123576   4.716   4.300  16.404 -0.1173  0.4575  1.4639
  695TIP3    H223577   4.724   4.429  16.326 -0.2451 -0.4855 -0.1523
  696TIP3   OH223578   0.858   2.199  13.548  0.0594 -0.3945  0.0786
  696TIP3    H123579   0.926   2.211  13.482  0.0781  0.0484  0.1818
  696TIP3    H223580   0.780   2.240  13.510  0.4366  1.1649  0.9498
  697TIP3   OH223581   6.164   1.452  11.490 -0.1283 -0.0332 -0.1610
  697TIP3    H123582   6.212   1.519  11.441 -0.4392  0.0273 -0.3852
  697TIP3    H223583   6.164   1.484  11.580  0.6207 -0.2431 -0.0828
  698TIP3   OH223584   6.006   5.395   5.367 -0.2698 -0.1148  0.2995
  698TIP3    H123585   6.026   5.485   5.341 -3.2539  0.5905  0.3768
  698TIP3    H223586   5.985   5.400   5.460  1.2825 -1.2185  0.7500
  699TIP3   OH223587   3.889   1.752  10.686  0.1949 -0.3848 -0.6079
  699TIP3    H123588   3.795   1.743  10.698  0.1088  0.7853 -0.2983
  699TIP3    H223589   3.925   1.752  10.775  0.3782  0.2208 -0.6795
  700TIP3   OH223590   0.414   5.268  12.168 -0.2998 -0.1257  0.3288
  700TIP3    H123591   0.508   5.264  12.181 -0.1516 -0.1288 -0.7400
  700TIP3    H223592   0.392   5.360  12.179  0.0250  0.0843 -0.8149
  701TIP3   OH223593   1.165   6.486  13.901  0.4215  0.2797 -0.1692
  701TIP3    H123594   1.138   6.518  13.815 -0.4291 -0.2901 -0.1327
  701TIP3    H223595   1.190   6.564  13.950  0.2958  0.6705 -0.7247
  702TIP3   OH223596   1.111   2.573   2.183 -0.7241  0.5601  0.2034
  702TIP3    H123597   1.021   2.577   2.149  0.1439  1.8734 -2.0254
  702TIP3    H223598   1.124   2.658   2.226  0.0575  1.1016 -1.0883
  703TIP3   OH223599   3.309   6.222  14.181  0.1043 -0.0695  0.0299
  703TIP3    H123600   3.231   6.191  14.135 -1.8337  2.8425  1.2130
  703TIP3    H223601   3.326   6.155  14.247 -1.3590 -0.7594 -0.2741
  704TIP3   OH223602   4.164   0.701  14.768  0.2774 -0.5988 -0.8834
  704TIP3    H123603   4.215   0.753  14.830 -0.9193 -1.8065  1.1868
  704TIP3    H223604   4.201   0.613  14.774 -0.8396 -1.0719 -0.7145
  705TIP3   OH223605   0.842   0.758   2.452 -0.4476  0.2710  0.2221
  705TIP3    H123606   0.858   0.671   2.415 -0.0464  0.8355 -0.9404
  705TIP3    H223607   0.779   0.798   2.393 -0.8266  0.6729  0.9020
  706TIP3   OH223608   5.718   5.430  17.199 -1.2453 -0.2540 -0.1678
  706TIP3    H123609   5.666   5.373  17.142 -0.7233  0.6000 -1.5249
  706TIP3    H223610   5.759   5.492  17.139  1.9293 -1.3351  0.7741
  707TIP3   OH223611   0.425   4.189   4.811  0.0092 -0.1002  0.3407
  707TIP3    H123612   0.356   4.245   4.846  0.0486 -0.6005  1.2377
  707TIP3    H223613   0.502   4.211   4.864 -0.1215 -1.4258  1.1018
  708TIP3   OH223614   4.997   1.675  11.672 -0.6891 -0.3629  0.0223
  708TIP3    H123615   4.925   1.693  11.732 -1.8983 -2.1062 -0.8846
  708TIP3    H223616   5.042   1.759  11.663 -2.7770  0.8234  0.3637
  709TIP3   OH223617   2.473   0.061  11.629 -0.3282 -0.3708 -0.9875
  709TIP3    H123618   2.501   0.141  11.674 -0.2094 -0.7822 -0.3127
  709TIP3    H223619   2.491  -0.008  11.692 -0.7159 -0.8941 -1.4541
  710TIP3   OH223620   4.605   5.912  14.027 -0.2403 -0.1147 -0.4609
  710TIP3    H123621   4.678   5.910  13.965  0.9369 -2.7878  0.9576
  710TIP3    H223622   4.580   5.821  14.038 -0.4428  0.2969  2.9793
  711TIP3   OH223623   3.029   0.421  15.486  0.3391 -0.0411  0.8412
  711TIP3    H123624   3.058   0.486  15.422 -3.7262 -0.4891 -1.6379
  711TIP3    H223625   3.052   0.337  15.446 -0.6518 -0.2711  0.7294
  712TIP3   OH223626   5.954   6.243  12.115  0.2725  0.1033  0.4144
  712TIP3    H123627   5.941   6.325  12.163  0.1017 -0.0803  0.6889
  712TIP3    H223628   6.017   6.264  12.046  0.2337  0.4628  0.4896
  713TIP3   OH223629   4.680   2.276   5.217 -0.3742 -0.3519  0.1904
  713TIP3    H123630   4.587   2.271   5.199 -0.2877 -3.0250  0.3010
  713TIP3    H223631   4.700   2.196   5.266  1.9629  0.1658  0.1638
  714TIP3   OH223632   1.203   4.308   0.476 -0.5632  0.1261 -0.5858
  714TIP3    H123633   1.166   4.273   0.394 -1.1601 -1.5762  0.3723
  714TIP3    H223634   1.134   4.293   0.541  1.4060 -2.3120  1.0658
  715TIP3   OH223635   5.262   3.362  13.196 -0.0961  0.1806 -0.5280
  715TIP3    H123636   5.246   3.427  13.127 -2.9903  0.5089  0.4011
  715TIP3    H223637   5.290   3.284  13.149 -1.2243  0.6492 -2.0209
  716TIP3   OH223638   4.216   5.077  16.857 -0.1940 -0.0836 -0.0422
  716TIP3    H123639   4.295   5.048  16.903 -0.6053  0.5377  1.0931
  716TIP3    H223640   4.199   5.165  16.892 -0.4770  0.4362 -1.4601
  717TIP3   OH223641   0.866   1.359  15.130 -0.3587  0.1072  0.1681
  717TIP3    H123642   0.799   1.375  15.064 -0.4016 -0.7810 -0.0085
  717TIP3    H223643   0.909   1.278  15.102 -0.6032 -0.4675  1.4130
  718TIP3   OH223644   1.210   3.854  14.104 -0.1827 -0.4666  0.1392
  718TIP3    H123645   1.259   3.793  14.159  0.2635 -0.1515  0.0895
  718TIP3    H223646   1.141   3.888  14.162 -1.7031 -2.5362 -0.3876
  719TIP3   OH223647   4.961   5.433   2.316  0.6919 -0.2284  0.3630
  719TIP3    H123648   5.020   5.507   2.306  0.4676  0.1948  2.1267
  719TIP3    H223649   5.001   5.363   2.264  1.0934  0.9867 -1.0059
  720TIP3   OH223650   1.336   4.343  14.168  0.2808 -0.6253 -0.2997
  720TIP3    H123651   1.405   4.408  14.181 -0.2294 -0.2730  0.6896
  720TIP3    H223652   1.376   4.276  14.112  0.7108  0.6900 -1.5960
  721TIP3   OH223653   5.509   4.681   2.825  0.7513 -0.3589  0.5606
  721TIP3    H123654   5.587   4.683   2.769  1.5528 -0.8261  1.6455
  721TIP3    H223655   5.530   4.741   2.896  0.9472 -2.0399  1.9379
  722TIP3   OH223656   5.011   6.777  10.832 -0.4223  0.2276  0.0426
  722TIP3    H123657   5.086   6.809  10.881 -0.3786 -1.1874  0.9508
  722TIP3    H223658   5.039   6.692  10.797 -1.0095  0.4770 -1.0539
  723TIP3   OH223659   1.863   3.995  14.029  0.7671  0.0790 -0.2987
  723TIP3    H123660   1.931   4.022  13.968  0.0078  0.0727 -1.1693
  723TIP3    H223661   1.792   3.963  13.973 -0.9082  2.3009  0.4717
  724TIP3   OH223662   3.762   4.031  11.162  0.4466  0.1243  0.0718
  724TIP3    H123663   3.726   3.990  11.083  1.2040 -0.6833  0.1286
  724TIP3    H223664   3.845   3.984  11.176  0.3835  0.3697  1.2568
  725TIP3   OH223665   1.630   1.244   1.340  0.4715 -0.3880  0.0363
  725TIP3    H123666   1.665   1.327   1.372 -1.7364  0.2590  0.8383
  725TIP3    H223667   1.708   1.190   1.323  1.8108  0.4540  3.1956
  726TIP3   OH223668   6.812   6.350   5.736 -0.9222 -0.0715 -0.5506
  726TIP3    H123669   6.824   6.368   5.643  0.0299  1.8688 -0.0772
  726TIP3    H223670   6.809   6.254   5.741 -1.3939 -0.1986 -2.6046
  727TIP3   OH223671   0.234   1.149  15.948  0.2395  0.5744 -0.0075
  727TIP3    H123672   0.188   1.151  15.864  0.8575  0.2314 -0.3625
  727TIP3    H223673   0.175   1.193  16.009 -0.5525  0.1482 -0.4541
  728TIP3   OH223674   4.687   2.062  11.293 -0.4779  0.2554 -0.2740
  728TIP3    H123675   4.748   1.995  11.263 -1.0124 -0.4687  0.2232
  728TIP3    H223676   4.632   2.080  11.217  0.2387  0.7810 -0.6704
  729TIP3   OH223677   0.214   1.632   4.418 -0.3445 -0.3176 -0.2999
  729TIP3    H123678   0.128   1.672   4.430 -1.3435 -3.0266  2.1348
  729TIP3    H223679   0.239   1.655   4.328 -2.2481  2.9633 -0.0496
  730TIP3   OH223680   0.058   5.893  14.236  0.1959  0.0038 -0.2170
  730TIP3    H123681   0.127   5.836  14.271 -0.2783  0.6340  1.8283
  730TIP3    H223682   0.011   5.839  14.173  1.7021 -0.8715 -0.6074
  731TIP3   OH223683   1.003   1.128  15.048  0.1907  0.1719  0.3196
  731TIP3    H123684   1.086   1.145  15.092  1.1274  0.2879 -1.4155
  731TIP3    H223685   1.024   1.134  14.955 -1.9878  1.2139 -0.1419
  732TIP3   OH223686   2.455   1.455   4.421 -0.0747 -0.4298 -0.2533
  732TIP3    H123687   2.546   1.459   4.392 -0.3869  1.4103 -1.0373
  732TIP3    H223688   2.456   1.494   4.509  0.1977 -2.2299  0.5644
  733TIP3   OH223689   5.384   5.598   5.895 -0.4702  0.4075 -0.0172
  733TIP3    H123690   5.365   5.587   5.801  0.6357  1.2968 -0.3569
  733TIP3    H223691   5.299   5.592   5.937 -0.8184 -1.6172 -0.9148
  734TIP3   OH223692   3.481   6.773   0.072  0.0408  0.4459 -1.0503
  734TIP3    H123693   3.485   6.845   0.009 -2.2613  1.5774  0.0408
  734TIP3    H223694   3.410   6.718   0.041  1.9693 -1.5717 -2.0326
  735TIP3   OH223695   5.210   5.671   1.119  0.0501 -0.2798  0.3361
  735TIP3    H123696   5.270   5.740   1.150 -0.4534  0.4764 -0.3390
  735TIP3    H223697   5.267   5.609   1.073  0.4466 -0.0597  0.5294
  736TIP3   OH223698   4.392   5.413   0.188 -1.0427 -0.3151 -0.2294
  736TIP3    H123699   4.342   5.447   0.114 -0.6585 -0.7080 -0.6716
  736TIP3    H223700   4.454   5.484   0.209 -1.1985 -0.1750 -0.2410
  737TIP3   OH223701   4.636   1.854  15.583 -0.0639  0.5322  0.8638
  737TIP3    H123702   4.602   1.924  15.526 -1.2419 -0.2086  0.6450
  737TIP3    H223703   4.708   1.816  15.533 -1.3604 -0.3873 -0.3373
  738TIP3   OH223704   1.358   6.594   0.266  0.0780  0.1765 -0.0575
  738TIP3    H123705   1.311   6.576   0.184 -3.0931  1.9865  1.2411
  738TIP3    H223706   1.358   6.510   0.312  1.0579 -0.6319 -1.5044
  739TIP3   OH223707   2.473   6.027  13.888 -0.7955  0.5235 -0.8374
  739TIP3    H123708   2.536   5.960  13.861 -1.3322 -0.6493  0.7491
  739TIP3    H223709   2.462   6.014  13.982 -1.2203  2.5975 -0.5666
  740TIP3   OH223710   5.355   5.224   4.963  0.5168 -0.1367 -0.2348
  740TIP3    H123711   5.428   5.162   4.962  0.6520  0.0102  0.5078
  740TIP3    H223712   5.333   5.234   5.055 -0.5692 -0.3282 -0.4585
  741TIP3   OH223713   2.538   0.693  11.529 -0.5364 -0.4464 -0.2422
  741TIP3    H123714   2.478   0.708  11.456 -0.8536  0.7696  0.2600
  741TIP3    H223715   2.512   0.609  11.565 -1.1432 -0.4984 -0.8027
  742TIP3   OH223716   6.747   2.639  16.345 -0.0274 -0.3418  0.0071
  742TIP3    H123717   6.783   2.612  16.261 -0.5477 -0.0201 -0.3273
  742TIP3    H223718   6.770   2.569  16.406  1.3234 -0.0408 -0.1521
  743TIP3   OH223719   1.383   1.697  15.102  0.2347  0.4833 -0.4445
  743TIP3    H123720   1.432   1.748  15.037  0.7009  2.2620  1.2438
  743TIP3    H223721   1.451   1.655  15.154 -0.0973  0.4080 -0.0717
  744TIP3   OH223722   6.414   2.692   4.752 -0.3043  0.0503  0.1284
  744TIP3    H123723   6.353   2.741   4.808 -0.5595 -1.1313  0.9191
  744TIP3    H223724   6.431   2.611   4.801 -0.9825 -1.2667 -1.7631
  745TIP3   OH223725   6.478   3.229   1.861  0.8011  0.0711  0.5010
  745TIP3    H123726   6.509   3.160   1.802 -1.3372 -0.4842 -0.0266
  745TIP3    H223727   6.506   3.311   1.820 -1.6190 -0.2445 -1.9362
  746TIP3   OH223728   4.305   4.090  16.927  0.0213 -0.0738 -0.0156
  746TIP3    H123729   4.379   4.029  16.923  0.4865  0.3954  1.1041
  746TIP3    H223730   4.228   4.035  16.911  0.6587 -0.4383 -1.9088
  747TIP3   OH223731   5.229   1.260   0.216 -0.4671  0.4065  0.1282
  747TIP3    H123732   5.293   1.259   0.144  1.6106 -0.1364  1.9384
  747TIP3    H223733   5.176   1.337   0.199  1.4001  1.5235 -0.8156
  748TIP3   OH223734   0.857   2.580   1.344  0.0946 -0.1171 -0.6901
  748TIP3    H123735   0.941   2.553   1.381  0.1100 -1.6275 -1.7906
  748TIP3    H223736   0.794   2.516   1.377 -0.3501  0.0640 -1.1729
  749TIP3   OH223737   5.558   5.079   5.584  0.0874  0.2693 -0.1390
  749TIP3    H123738   5.509   5.078   5.502  0.0492 -2.1135 -0.1087
  749TIP3    H223739   5.537   4.996   5.627 -0.8123  1.9577  2.8439
  750TIP3   OH223740   6.419   2.886  11.611  0.6161  0.3703 -0.2902
  750TIP3    H123741   6.383   2.897  11.699  0.3470  1.1713 -0.5026
  750TIP3    H223742   6.388   2.799  11.583 -0.8559  0.8999 -0.3316
  751TIP3   OH223743   4.225   6.649  13.373 -0.0155  0.1879 -0.0987
  751TIP3    H123744   4.296   6.662  13.309  1.0954 -1.3037  0.7957
  751TIP3    H223745   4.193   6.737  13.392  2.7742  1.0405  0.8005
  752TIP3   OH223746   4.832   2.593   0.912 -0.2898  0.8133  0.6225
  752TIP3    H123747   4.894   2.528   0.944 -0.1185  0.4908 -0.3448
  752TIP3    H223748   4.808   2.644   0.989  2.9029  2.4089  0.6482
  753TIP3   OH223749   5.133   0.919  13.752  0.2629  0.2317  0.1627
  753TIP3    H123750   5.097   0.830  13.743  1.0496 -0.2184  1.3032
  753TIP3    H223751   5.209   0.908  13.810  0.2918  1.6731  0.4076
  754TIP3   OH223752   4.049   4.514  15.794 -0.2168 -0.0593 -0.1016
  754TIP3    H123753   4.112   4.567  15.746 -1.2809  0.5115 -0.8966
  754TIP3    H223754   4.020   4.570  15.866 -0.8550  0.2043 -0.5593
  755TIP3   OH223755   3.347   4.549   0.126  0.0411  0.2355 -0.4392
  755TIP3    H123756   3.349   4.620   0.191 -0.3638  0.1377 -0.3248
  755TIP3    H223757   3.363   4.594   0.042  0.0432  0.4300 -0.3359
  756TIP3   OH223758   3.325   1.151  16.797 -0.4871 -0.3748  0.2889
  756TIP3    H123759   3.411   1.158  16.756 -0.1546 -1.8071  0.7084
  756TIP3    H223760   3.344   1.128  16.888 -1.3079 -0.5576  0.4144
  757TIP3   OH223761   1.846   1.235   4.436  0.0873  0.1292  0.0650
  757TIP3    H123762   1.870   1.239   4.344 -0.7955 -1.0822 -0.2279
  757TIP3    H223763   1.930   1.231   4.482  0.5172 -0.1668 -0.7354
  758TIP3   OH223764   1.858   5.371   4.007  0.0561 -0.1512  0.6285
  758TIP3    H123765   1.798   5.300   3.984  0.7666 -0.6123  0.2098
  758TIP3    H223766   1.888   5.349   4.095  0.7916 -0.7145  0.2344
  759TIP3   OH223767   1.719   2.300   3.377 -0.1875  0.6019 -0.5919
  759TIP3    H123768   1.676   2.237   3.320  0.7655  0.4744 -1.1791
  759TIP3    H223769   1.809   2.303   3.346  0.4583  0.2244  1.1667
  760TIP3   OH223770   1.730   3.449  10.931 -0.1506 -0.3411  0.0898
  760TIP3    H123771   1.654   3.427  10.985  0.0935  0.1232  0.6257
  760TIP3    H223772   1.750   3.368  10.884  0.2352 -1.0379  1.4340
  761TIP3   OH223773   6.751   4.798  16.955 -1.0601  0.1531  0.0434
  761TIP3    H123774   6.776   4.724  17.011  0.4820 -0.6543 -1.6575
  761TIP3    H223775   6.725   4.867  17.016 -0.5242 -1.0946  1.7061
  762TIP3   OH223776   2.630   5.293   0.126  0.6701  0.8557 -0.1138
  762TIP3    H123777   2.641   5.207   0.167  0.4176  1.1795  0.6526
  762TIP3    H223778   2.687   5.291   0.049 -0.4611 -0.5455 -0.9525
  763TIP3   OH223779   5.192   4.371  15.556 -0.5408  0.0065  0.4357
  763TIP3    H123780   5.153   4.429  15.622  0.2496  0.5974  0.3937
  763TIP3    H223781   5.175   4.283  15.589  0.7602  0.3064  1.9781
  764TIP3   OH223782   4.060   4.273  12.008  0.1795 -0.2376  0.6369
  764TIP3    H123783   3.966   4.267  11.987  0.1520 -0.3610  0.7892
  764TIP3    H223784   4.099   4.199  11.961  0.2108 -0.1456  0.5165
  765TIP3   OH223785   2.863   1.495   3.282  0.5817 -0.0862  0.0724
  765TIP3    H123786   2.833   1.409   3.310  0.5703  0.1027  0.6446
  765TIP3    H223787   2.953   1.500   3.312 -0.1557  1.0451  2.2011
  766TIP3   OH223788   2.981   1.292  16.468  0.0607  0.2405 -0.6268
  766TIP3    H123789   2.988   1.226  16.537  0.9380  0.8873 -0.0817
  766TIP3    H223790   3.026   1.369  16.504 -0.6961  1.0384 -1.3649
  767TIP3   OH223791   0.666   3.092   3.049  1.0669 -0.0642 -0.2795
  767TIP3    H123792   0.595   3.153   3.030  0.7749  0.0535  1.1415
  767TIP3    H223793   0.746   3.143   3.036  0.8850 -0.0114 -1.2416
  768TIP3   OH223794   2.761   0.032   5.659  0.5833  0.4136  0.2036
  768TIP3    H123795   2.695  -0.015   5.609  1.7692  1.4701 -2.4677
  768TIP3    H223796   2.818  -0.036   5.694 -0.3535 -0.3442  0.2711
  769TIP3   OH223797   0.913   6.387  16.433 -0.5815  0.0209 -0.0860
  769TIP3    H123798   0.820   6.364  16.438 -0.3950 -0.6947  0.0971
  769TIP3    H223799   0.957   6.305  16.413 -0.0956  0.5791 -1.3471
  770TIP3   OH223800   2.296   1.129  14.714 -0.1572  0.3990  0.4063
  770TIP3    H123801   2.357   1.128  14.788  1.1799 -2.5467 -0.6574
  770TIP3    H223802   2.230   1.064  14.736 -1.4532  1.6839  0.3513
  771TIP3   OH223803   1.258   3.921  12.740 -0.9493  0.3807  0.8745
  771TIP3    H123804   1.249   3.968  12.822 -0.4100  2.1742 -0.0751
  771TIP3    H223805   1.343   3.877  12.747 -0.2285  1.7278  0.6881
  772TIP3   OH223806   6.814   5.930  17.180  0.2462 -0.2430 -0.1558
  772TIP3    H123807   6.804   5.956  17.271  1.3305  0.9594 -0.3600
  772TIP3    H223808   6.794   5.837  17.179 -1.9017  0.1708  0.9218
  773TIP3   OH223809   3.693   6.037  13.550  0.7694 -0.1896  0.7448
  773TIP3    H123810   3.763   6.057  13.487 -0.9135  2.4370 -0.3748
  773TIP3    H223811   3.711   6.095  13.624  0.8011 -0.8553  1.2667
  774TIP3   OH223812   3.286   2.229  12.661 -0.1544 -0.1517 -0.2034
  774TIP3    H123813   3.341   2.254  12.587 -0.4024 -1.2094 -0.7601
  774TIP3    H223814   3.287   2.305  12.719 -0.2100  0.7989 -1.4431
  775TIP3   OH223815   2.832   4.533  16.652  0.0216  0.1329 -0.2704
  775TIP3    H123816   2.831   4.557  16.744  0.2484 -0.6637 -0.0502
  775TIP3    H223817   2.913   4.571  16.618  0.6939 -0.8442  0.2189
  776TIP3   OH223818   3.639   4.152  16.342 -0.4596  0.0081  0.0581
  776TIP3    H123819   3.628   4.151  16.246  1.1710 -2.2349 -0.1373
  776TIP3    H223820   3.678   4.067  16.362 -1.2381  0.2732  2.7933
  777TIP3   OH223821   4.943   4.921  11.817  0.3857 -0.1186  0.2973
  777TIP3    H123822   4.978   4.986  11.757 -0.9303 -0.5563 -0.9686
  777TIP3    H223823   4.865   4.961  11.854 -0.2916 -0.8757 -0.2978
  778TIP3   OH223824   0.034   3.446  14.293  0.3363 -0.2697  0.1623
  778TIP3    H123825  -0.013   3.527  14.315 -0.3035 -0.4744 -0.4572
  778TIP3    H223826  -0.028   3.376  14.313  1.2352 -0.6680  1.6331
  779TIP3   OH223827   3.305   1.590   0.441  0.7949  0.1367 -0.0994
  779TIP3    H123828   3.268   1.606   0.354 -1.4111  0.8109  0.9221
  779TIP3    H223829   3.261   1.510   0.471  0.7300  0.5265  0.8449
  780TIP3   OH223830   3.142   0.237   6.148 -0.0932 -0.0332  0.7856
  780TIP3    H123831   3.106   0.173   6.209  0.5101 -0.5395  0.6119
  780TIP3    H223832   3.202   0.289   6.201  2.4845 -2.1821  0.0641
  781TIP3   OH223833   2.568   6.806  11.392 -0.0527  0.0810  0.3392
  781TIP3    H123834   2.493   6.820  11.450  0.4197 -0.3515  1.0661
  781TIP3    H223835   2.593   6.715  11.406  0.6862  0.2539  0.1988
  782TIP3   OH223836   3.692   3.844  11.611  0.1489 -0.9477 -0.4141
  782TIP3    H123837   3.635   3.910  11.651 -1.3910 -3.3813  1.6186
  782TIP3    H223838   3.757   3.894  11.563 -1.3897  2.0195  0.4573
  783TIP3   OH223839   3.925   1.538  15.922  0.0236  0.1492 -0.6142
  783TIP3    H123840   3.953   1.608  15.980 -1.3081  0.2221 -0.0501
  783TIP3    H223841   3.893   1.582  15.844 -0.9153  0.1877 -0.2154
  784TIP3   OH223842   6.770   5.004  13.315  0.0531  0.2616  0.9286
  784TIP3    H123843   6.864   4.996  13.331  0.6309 -0.0995 -2.2944
  784TIP3    H223844   6.759   5.095  13.288 -0.3402 -0.0184  0.1506
  785TIP3   OH223845   5.227   5.070   1.841  0.8545 -0.4472  0.5812
  785TIP3    H123846   5.137   5.045   1.820  0.3947  0.8552  0.9759
  785TIP3    H223847   5.278   5.038   1.767 -0.2140  0.6603 -0.6491
  786TIP3   OH223848   1.762   5.923  16.294  0.0075  0.3754  0.3994
  786TIP3    H123849   1.713   5.961  16.367  0.3433 -1.3279  1.5317
  786TIP3    H223850   1.851   5.915  16.327  0.3359  0.3544 -0.4872
  787TIP3   OH223851   2.415   3.724  17.214  0.2748  0.2011 -0.4322
  787TIP3    H123852   2.344   3.720  17.150  1.2319  0.3191 -1.5202
  787TIP3    H223853   2.395   3.801  17.267 -0.5445  0.0846 -0.5723
  788TIP3   OH223854   6.708   0.830  13.080  0.2034  0.1939  0.0852
  788TIP3    H123855   6.636   0.778  13.117 -1.6452  0.1916 -3.2843
  788TIP3    H223856   6.731   0.891  13.150  0.4212 -3.1294  3.0705
  789TIP3   OH223857   2.637   1.405  15.735 -0.1169 -0.7874  0.3485
  789TIP3    H123858   2.711   1.355  15.768  1.9655  0.8725 -1.6330
  789TIP3    H223859   2.584   1.341  15.688 -0.4347 -2.1584  2.5080
  790TIP3   OH223860   0.893   5.623  16.595  0.4891  0.2373  0.0867
  790TIP3    H123861   0.928   5.535  16.585 -1.4640 -0.5015 -0.4715
  790TIP3    H223862   0.954   5.667  16.655  1.2719 -1.5940  0.6616
  791TIP3   OH223863   3.388   1.433   0.758  0.6403 -0.6062 -0.0628
  791TIP3    H123864   3.425   1.521   0.754 -1.2609  0.2804  1.1189
  791TIP3    H223865   3.317   1.434   0.693 -0.1136 -0.9065  0.7553
  792TIP3   OH223866   2.678   5.764   2.643  0.2021  0.2358  0.3307
  792TIP3    H123867   2.589   5.733   2.627 -0.0441  0.7133  0.7335
  792TIP3    H223868   2.730   5.724   2.574 -0.3849  0.2189 -0.1114
  793TIP3   OH223869   1.857   5.552   1.201 -0.3062 -0.3722 -0.2619
  793TIP3    H123870   1.941   5.527   1.241 -0.6923 -0.9553  0.1899
  793TIP3    H223871   1.816   5.469   1.178 -0.4355 -0.0605 -1.1682
  794TIP3   OH223872   6.728   5.123  14.155 -0.6595  0.4505 -0.0939
  794TIP3    H123873   6.817   5.153  14.144 -0.1287 -0.3383  1.7793
  794TIP3    H223874   6.734   5.054  14.221 -2.3689 -1.0109 -1.4154
  795TIP3   OH223875   0.096   2.701  15.026  0.2697 -0.1227 -0.2022
  795TIP3    H123876   0.075   2.794  15.018 -0.3943 -0.3699 -1.4818
  795TIP3    H223877   0.181   2.692  14.984  0.4087 -0.0624  0.0674
  796TIP3   OH223878   3.185   1.364  12.723  0.1940  0.3506  0.3705
  796TIP3    H123879   3.255   1.317  12.678  0.6200 -0.2092  1.6000
  796TIP3    H223880   3.105   1.318  12.699  0.2970  0.7173 -0.6780
  797TIP3   OH223881   0.109   5.159  15.507  0.4279  0.5600  0.3120
  797TIP3    H123882   0.202   5.137  15.509  0.2355 -0.6475 -1.7900
  797TIP3    H223883   0.065   5.083  15.546  0.2607  0.5247  0.0643
  798TIP3   OH223884   4.286   1.173  17.285  0.2260 -0.4616 -0.1698
  798TIP3    H123885   4.282   1.088  17.330 -2.2687 -1.4163 -2.0534
  798TIP3    H223886   4.228   1.230  17.336  1.8329  0.1125  1.0454
  799TIP3   OH223887   0.197   6.236   2.599  0.1291 -0.0148 -0.1666
  799TIP3    H123888   0.156   6.151   2.614  1.3156 -0.8847 -1.7263
  799TIP3    H223889   0.268   6.241   2.663 -0.4920  0.1911  0.5120
  800TIP3   OH223890   1.765   3.094   6.322  0.1678 -0.4204 -0.1994
  800TIP3    H123891   1.691   3.045   6.288 -1.0975 -0.4296  2.4718
  800TIP3    H223892   1.807   3.131   6.244 -3.1314  0.3152 -1.7155
  801TIP3   OH223893   5.892   4.558   0.858  0.4830  0.2627 -0.0328
  801TIP3    H123894   5.848   4.591   0.780 -1.2633  0.6931  1.1036
  801TIP3    H223895   5.828   4.570   0.929  1.5534 -1.2940  1.2328
  802TIP3   OH223896   2.580   3.164  16.583 -0.4227  0.0188 -0.3737
  802TIP3    H123897   2.507   3.192  16.637 -1.4195 -2.1605 -0.5196
  802TIP3    H223898   2.544   3.093  16.530  1.4635 -0.2097 -1.3778
  803TIP3   OH223899   1.694   1.095   2.680  0.3484  0.1071  0.2098
  803TIP3    H123900   1.624   1.029   2.677 -0.5941  1.1341 -0.7530
  803TIP3    H223901   1.771   1.047   2.710 -0.3259 -1.4421 -0.4996
  804TIP3   OH223902   0.562   1.161   3.468  0.7661  0.4153  0.1717
  804TIP3    H123903   0.609   1.082   3.443  0.1473 -0.0726  0.5451
  804TIP3    H223904   0.613   1.196   3.541  0.0887 -0.5663  1.1255
  805TIP3   OH223905   4.570   3.149  12.699 -0.3816  0.5600  0.0216
  805TIP3    H123906   4.665   3.165  12.706 -0.0954 -1.0819  0.0694
  805TIP3    H223907   4.537   3.224  12.650  0.7850  1.6998  0.9359
  806TIP3   OH223908   0.269   4.014   4.368  0.0187  0.0678 -0.0914
  806TIP3    H123909   0.288   3.985   4.278  0.9650  0.0992  0.0947
  806TIP3    H223910   0.348   4.059   4.396 -0.4257  0.4134  0.6220
  807TIP3   OH223911   3.899   0.355   0.769 -0.2808 -0.6622 -0.1000
  807TIP3    H123912   3.862   0.331   0.684 -1.5079  1.5593 -0.2172
  807TIP3    H223913   3.869   0.444   0.784  0.5803 -0.7530  2.3254
  808TIP3   OH223914   5.128   2.855  12.542 -0.2872 -0.1355  0.6543
  808TIP3    H123915   5.077   2.924  12.500 -0.4341 -0.1337  0.8365
  808TIP3    H223916   5.081   2.774  12.521  1.3388 -0.5003 -1.8578
  809TIP3   OH223917   4.153   4.650  11.677 -0.1565  0.3756 -0.1530
  809TIP3    H123918   4.100   4.664  11.755 -0.9595  1.4485 -0.8764
  809TIP3    H223919   4.146   4.556  11.660  0.3882  0.0519  1.3011
  810TIP3   OH223920   0.967   1.181   3.371 -0.0728 -0.4724  0.1613
  810TIP3    H123921   0.909   1.251   3.341 -0.2427 -1.1502 -1.0936
  810TIP3    H223922   1.056   1.217   3.361 -0.2355  0.4054  1.6843
  811TIP3   OH223923   1.779   6.570  16.284 -0.8648 -0.6011 -0.2970
  811TIP3    H123924   1.788   6.631  16.211  0.3949  0.7639  0.9578
  811TIP3    H223925   1.724   6.499  16.250 -0.5666  0.1664 -2.4480
  812TIP3   OH223926   3.441   4.446  10.555 -0.2086  0.4922  0.6092
  812TIP3    H123927   3.480   4.529  10.526 -0.8095  1.2031  1.7862
  812TIP3    H223928   3.360   4.439  10.505  0.1278  0.3212  0.0824
  813TIP3   OH223929   2.985   1.158  13.119 -0.4335 -0.2519  0.0240
  813TIP3    H123930   2.913   1.221  13.114  0.2001  0.4199 -0.7688
  813TIP3    H223931   2.983   1.113  13.035  0.7240  0.5073 -0.4291
  814TIP3   OH223932   6.005   1.806  11.721 -0.6952  0.4492 -0.7210
  814TIP3    H123933   6.018   1.781  11.630 -0.2430 -2.0263  0.0075
  814TIP3    H223934   5.972   1.727  11.763  1.4368  0.8429  1.7980
  815TIP3   OH223935   3.050   6.567   1.976  0.4024  1.0224  0.4091
  815TIP3    H123936   3.074   6.632   1.910  0.5821  1.3167  0.7580
  815TIP3    H223937   3.098   6.488   1.951 -0.5225  0.7512 -0.5303
  816TIP3   OH223938   4.841   6.056  12.272 -0.0055  0.4523  0.0592
  816TIP3    H123939   4.913   6.094  12.222  0.0235 -1.4350 -1.3697
  816TIP3    H223940   4.764   6.071  12.218 -0.0414 -1.1940 -0.3627
  817TIP3   OH223941   0.614   6.803   1.951  0.5392  0.0818 -0.2855
  817TIP3    H123942   0.578   6.865   1.888  0.4705  0.1460 -0.1828
  817TIP3    H223943   0.677   6.752   1.901 -0.8569 -1.1191 -0.8719
  818TIP3   OH223944   4.189   0.168  13.650 -0.0301 -0.1843 -0.1139
  818TIP3    H123945   4.193   0.170  13.745 -0.0608 -0.4313 -0.1066
  818TIP3    H223946   4.272   0.129  13.622  0.3734  0.7424 -0.2272
  819TIP3   OH223947   2.470   1.314  13.757  0.0205 -0.2267 -0.4796
  819TIP3    H123948   2.452   1.278  13.845 -0.7221 -0.1828 -0.6117
  819TIP3    H223949   2.392   1.291  13.706  1.0828 -1.5824 -1.5458
  820TIP3   OH223950   3.746   4.885  12.411 -0.6925 -0.5536  0.5222
  820TIP3    H123951   3.702   4.892  12.496 -2.3015  0.7736 -0.3829
  820TIP3    H223952   3.803   4.962  12.407 -0.0746 -1.0037  0.7086
  821TIP3   OH223953   0.388   5.015   3.116 -0.4121  0.0894  0.3386
  821TIP3    H123954   0.375   4.928   3.153 -0.6898 -0.0277 -0.0271
  821TIP3    H223955   0.346   5.074   3.178  0.0811 -0.0064  0.7640
  822TIP3   OH223956   6.527   4.211   4.874  0.2666  0.4095 -0.0785
  822TIP3    H123957   6.494   4.256   4.951  0.5228 -0.2376  0.4108
  822TIP3    H223958   6.482   4.127   4.874 -0.0917  0.5945 -0.9006
  823TIP3   OH223959   2.360   6.350   3.726 -0.2129  0.6756 -0.0948
  823TIP3    H123960   2.325   6.374   3.811 -1.6358 -0.8471 -0.2204
  823TIP3    H223961   2.371   6.433   3.680 -1.3198  1.3735  0.8659
  824TIP3   OH223962   2.548   4.702   4.843 -0.4896 -0.5827  0.5124
  824TIP3    H123963   2.460   4.695   4.880 -1.2411 -2.6715 -1.5347
  824TIP3    H223964   2.603   4.652   4.903 -0.9049 -0.1886  1.2194
  825TIP3   OH223965   1.168   3.122  17.269  0.3133 -0.0344 -0.5351
  825TIP3    H123966   1.119   3.204  17.279 -0.2035 -0.3457 -0.5518
  825TIP3    H223967   1.140   3.068  17.343  0.7817 -0.1371 -0.4324
  826TIP3   OH223968   2.618   3.156   2.002  0.1330 -0.8959 -0.6137
  826TIP3    H123969   2.627   3.092   1.932 -0.5124 -1.2408 -0.3863
  826TIP3    H223970   2.707   3.168   2.035  0.5767 -0.0743 -2.0626
  827TIP3   OH223971   5.068   0.212   6.229  0.3264  0.2184  0.1695
  827TIP3    H123972   5.076   0.205   6.324  0.3285 -2.2910  0.0002
  827TIP3    H223973   4.987   0.166   6.208  1.5399 -1.3401 -1.2607
  828TIP3   OH223974   1.972   6.254  12.572  0.1795 -0.1123 -0.0452
  828TIP3    H123975   2.035   6.241  12.501  0.3043  0.5100 -0.0530
  828TIP3    H223976   1.890   6.220  12.537  0.1717  0.4704 -0.6002
  829TIP3   OH223977   2.167   4.237   4.019 -0.1833 -0.2510  0.0910
  829TIP3    H123978   2.216   4.202   3.945  0.6108 -0.3082  0.6440
  829TIP3    H223979   2.088   4.275   3.980  0.7356  0.6637 -0.9016
  830TIP3   OH223980   1.910   6.215   4.705  0.0078  0.1789  0.2490
  830TIP3    H123981   1.815   6.211   4.713  0.1125 -1.3770  0.9162
  830TIP3    H223982   1.934   6.295   4.751 -1.0502  1.0560 -0.7015
  831TIP3   OH223983   5.747   3.476   5.489 -0.1447 -0.3714  0.2433
  831TIP3    H123984   5.781   3.395   5.527 -1.0271 -1.3169 -0.9165
  831TIP3    H223985   5.665   3.450   5.447 -0.0242  0.9584 -0.8623
  832TIP3   OH223986   3.424   0.131   5.832 -0.2744 -0.3585  0.3680
  832TIP3    H123987   3.338   0.118   5.792 -0.1222  0.4534 -0.2305
  832TIP3    H223988   3.460   0.208   5.788 -0.3348  0.8999  2.4574
  833TIP3   OH223989   1.982   1.570   1.888 -0.3063 -0.1908 -0.6855
  833TIP3    H123990   1.924   1.516   1.835 -1.6881  0.7013 -0.0925
  833TIP3    H223991   2.059   1.515   1.902 -1.1429 -1.5136 -1.1713
  834TIP3   OH223992   4.437   4.925  11.585 -0.4097 -0.5533  0.2311
  834TIP3    H123993   4.458   4.889  11.498 -0.9601 -1.3151  0.4041
  834TIP3    H223994   4.419   5.017  11.569  0.4993 -0.4694 -0.3140
  835TIP3   OH223995   4.946   1.596   2.333 -0.2187  0.0856  0.4910
  835TIP3    H123996   4.990   1.617   2.251  1.5124  0.1494  1.4123
  835TIP3    H223997   4.895   1.674   2.354 -2.3993 -0.7043 -1.5808
  836TIP3   OH223998   4.978   4.746   5.889 -0.2998 -0.3809  0.0592
  836TIP3    H123999   5.004   4.665   5.933 -0.2960  1.3825  3.4703
  836TIP3    H224000   5.026   4.815   5.935  0.4686  1.5072 -3.4311
  837TIP3   OH224001   0.208   2.581   5.915 -0.1975 -0.3984 -0.0636
  837TIP3    H124002   0.257   2.660   5.892 -0.1838 -0.4808 -0.3172
  837TIP3    H224003   0.128   2.586   5.862 -0.6760 -0.0372  0.6812
  838TIP3   OH224004   6.219   1.228  12.674  0.1674 -0.2172 -0.0962
  838TIP3    H124005   6.212   1.138  12.643 -1.4197 -0.0453 -0.2458
  838TIP3    H224006   6.172   1.230  12.757 -0.2310  0.5878 -0.3333
  839TIP3   OH224007   1.103   0.349  11.010  0.3549 -1.2018  0.6003
  839TIP3    H124008   1.155   0.279  11.050 -2.6342 -3.9201 -0.0986
  839TIP3    H224009   1.069   0.311  10.929 -0.3819  1.4936 -0.4322
  840TIP3   OH224010   5.014   0.058  16.172  0.4288 -0.0849  0.1039
  840TIP3    H124011   4.934   0.107  16.155  0.2490  0.0727  1.3118
  840TIP3    H224012   4.987  -0.034  16.170  0.1943 -0.0294  0.5894
  841TIP3   OH224013   0.421   3.798   5.269  0.1317 -0.0313 -0.0002
  841TIP3    H124014   0.427   3.811   5.364  0.2940 -1.4402  0.1905
  841TIP3    H224015   0.484   3.860   5.233  1.4344 -0.7706  0.9341
  842TIP3   OH224016   4.779   5.923  11.171  0.2585  0.3946  0.0816
  842TIP3    H124017   4.717   5.945  11.101 -0.2068 -1.9418 -0.2901
  842TIP3    H224018   4.724   5.909  11.248  0.6834  2.0247  0.6860
  843TIP3   OH224019   5.973   4.734   1.803  0.3709  0.0868 -0.0439
  843TIP3    H124020   5.898   4.779   1.843  0.9956  1.2186 -0.1468
  843TIP3    H224021   5.933   4.662   1.754 -0.6172  0.3733  0.3125
  844TIP3   OH224022   5.935   0.655  12.084 -0.0006  0.3217 -0.0752
  844TIP3    H124023   5.930   0.620  12.173  3.2908  1.5307  0.6884
  844TIP3    H224024   6.017   0.618  12.049  0.1116  1.9572 -1.6151
  845TIP3   OH224025   1.085   2.374   6.081  0.1418  0.1157 -0.5204
  845TIP3    H124026   1.104   2.468   6.084  2.3358 -0.3017  0.1092
  845TIP3    H224027   1.136   2.337   6.154 -1.6836 -1.4046  0.0295
  846TIP3   OH224028   4.984   6.153   4.620  0.3832 -0.3389  0.6613
  846TIP3    H124029   4.951   6.229   4.668 -1.0090 -1.9662  2.3392
  846TIP3    H224030   4.914   6.132   4.558  1.3556  0.5599 -0.7795
  847TIP3   OH224031   4.024   5.657  15.452 -0.1632 -0.0843  0.8992
  847TIP3    H124032   4.070   5.601  15.389 -0.5775  0.9304 -0.3226
  847TIP3    H224033   4.094   5.698  15.503  0.3564  1.7970 -1.2523
  848TIP3   OH224034   5.266   1.787  16.997 -0.0085 -0.0974  0.4768
  848TIP3    H124035   5.303   1.764  17.082  0.4661  1.3635  0.6882
  848TIP3    H224036   5.339   1.827  16.949  0.3468 -2.9876 -1.4853
  849TIP3   OH224037   1.365   3.367  15.921  0.2893  0.1287 -0.2070
  849TIP3    H124038   1.363   3.339  15.829 -0.0697 -1.1537  0.1778
  849TIP3    H224039   1.455   3.349  15.948  0.3530  0.3639 -0.2600
  850TIP3   OH224040   6.507   0.364   2.433  0.2336  0.5110 -0.1019
  850TIP3    H124041   6.514   0.296   2.367 -1.6216  0.3574 -0.1775
  850TIP3    H224042   6.414   0.386   2.435  0.6071  2.1342  0.8312
  851TIP3   OH224043   3.618   4.683  15.266 -0.2559 -0.2226 -0.0628
  851TIP3    H124044   3.535   4.726  15.284  0.2307  0.2189  1.1590
  851TIP3    H224045   3.616   4.665  15.172 -0.7794  1.7754 -0.4537
  852TIP3   OH224046   1.197   6.111   1.836  0.0613  0.0263 -0.0267
  852TIP3    H124047   1.265   6.162   1.791  1.1441  0.1659  1.7284
  852TIP3    H224048   1.244   6.064   1.905 -0.7552 -3.9393 -1.9886
  853TIP3   OH224049   3.557   4.280   1.948 -0.3159 -0.7250 -0.2562
  853TIP3    H124050   3.611   4.353   1.921 -2.7658  2.1067  2.1444
  853TIP3    H224051   3.471   4.298   1.910 -0.6697 -2.9776 -0.5863
  854TIP3   OH224052   1.795   3.022  14.104 -0.3635 -0.4919 -0.2767
  854TIP3    H124053   1.705   3.002  14.128 -1.1984  2.6523 -0.6819
  854TIP3    H224054   1.789   3.100  14.049  2.5397 -0.6989 -0.9786
  855TIP3   OH224055   4.552   1.965  14.726 -0.1856  0.5696  0.2863
  855TIP3    H124056   4.582   1.980  14.636 -0.4069  1.1252  0.3043
  855TIP3    H224057   4.463   1.930  14.716  0.2011 -0.4233  0.2554
  856TIP3   OH224058   4.205   1.125   1.361 -0.3951 -0.3110 -0.4173
  856TIP3    H124059   4.131   1.161   1.409 -0.6222 -2.8850  1.2507
  856TIP3    H224060   4.273   1.113   1.427 -0.0023 -1.9743 -1.0952
  857TIP3   OH224061   1.274   3.885   4.452 -0.1040  0.2392  0.5024
  857TIP3    H124062   1.180   3.889   4.431 -0.3011 -1.2018  1.0673
  857TIP3    H224063   1.317   3.898   4.368 -0.7822  1.9890  0.3962
  858TIP3   OH224064   1.589   6.064   5.336  0.3448  0.1198  0.0019
  858TIP3    H124065   1.655   6.086   5.402  0.4886  0.7509 -0.3419
  858TIP3    H224066   1.525   6.011   5.383  0.2938  0.8074  0.7302
  859TIP3   OH224067   2.418   2.169  15.565  0.1099 -0.2989  0.0619
  859TIP3    H124068   2.353   2.099  15.574 -0.3667 -0.0194 -1.2123
  859TIP3    H224069   2.447   2.164  15.474  1.1232  0.2535  0.3402
  860TIP3   OH224070   5.386   3.671   4.496 -0.2599 -0.1902  0.5857
  860TIP3    H124071   5.468   3.643   4.454 -1.2348 -1.7380 -0.3266
  860TIP3    H224072   5.371   3.605   4.564 -0.6765  0.1712  0.8399
  861TIP3   OH224073   0.621   3.992  14.819 -0.1028  0.7264  0.4271
  861TIP3    H124074   0.671   3.911  14.827 -0.6785  0.3609  0.3705
  861TIP3    H224075   0.538   3.965  14.779 -0.8748  1.1131  1.7251
  862TIP3   OH224076   0.402   5.256  11.625  0.5144 -0.1820 -0.0993
  862TIP3    H124077   0.347   5.329  11.596  1.9430  0.7815 -0.4591
  862TIP3    H224078   0.453   5.292  11.698  0.2566 -1.2245  0.6001
  863TIP3   OH224079   6.542   4.802   1.329 -0.4869 -0.1208 -0.2848
  863TIP3    H124080   6.530   4.717   1.286  0.3825 -0.6689  0.5264
  863TIP3    H224081   6.474   4.858   1.292 -1.3204 -1.2952 -0.5423
  864TIP3   OH224082   2.919   4.406   3.751 -0.1112 -0.5229  0.0920
  864TIP3    H124083   2.890   4.476   3.810  0.1727 -0.3833  0.0661
  864TIP3    H224084   3.014   4.400   3.765 -0.2567 -1.5017  0.7418
  865TIP3   OH224085   1.752   0.553   2.106 -0.0154  0.6567  0.0147
  865TIP3    H124086   1.711   0.466   2.107  1.9824 -0.3560 -1.6167
  865TIP3    H224087   1.803   0.556   2.187  1.9303 -0.7400 -1.1169
  866TIP3   OH224088   1.378   5.023  10.959  0.2720  0.4526  0.0307
  866TIP3    H124089   1.338   5.075  11.028 -2.4148  0.7855 -1.7150
  866TIP3    H224090   1.305   4.995  10.904  2.0246 -2.2777 -1.0238
  867TIP3   OH224091   0.073   4.025   4.674 -0.2437  0.0826  0.6121
  867TIP3    H124092   0.037   3.938   4.692  0.6219 -0.2724  0.6445
  867TIP3    H224093   0.112   4.018   4.587 -0.2102  0.4539  0.5957
  868TIP3   OH224094   5.023   4.368  12.502 -0.2083  0.3861 -0.1091
  868TIP3    H124095   5.063   4.284  12.524 -0.0186 -0.2168 -2.5916
  868TIP3    H224096   4.930   4.357  12.523 -0.6648 -1.3724 -2.8451
  869TIP3   OH224097   3.293   1.078   1.783  0.7952  0.4086  0.3803
  869TIP3    H124098   3.201   1.100   1.798  1.1168  2.0354  0.0295
  869TIP3    H224099   3.302   0.989   1.817 -1.3223 -0.4590 -1.1809
  870TIP3   OH224100   6.244   0.751   3.914 -0.4775 -0.0508  0.1470
  870TIP3    H124101   6.331   0.789   3.904 -0.4856  0.1369  0.7479
  870TIP3    H224102   6.190   0.823   3.947 -1.2725  0.3123 -1.8476
  871TIP3   OH224103   1.801   6.149  12.375  0.1876  0.1621 -0.1816
  871TIP3    H124104   1.711   6.178  12.385  0.0250 -0.5317  0.3657
  871TIP3    H224105   1.803   6.106  12.290  0.0170  0.2429 -0.2263
  872TIP3   OH224106   0.756   3.039  14.812 -0.6552  0.3067  0.3733
  872TIP3    H124107   0.806   2.959  14.822  0.3542  0.9618  0.5778
  872TIP3    H224108   0.770   3.065  14.721 -0.3136  0.6943  0.5361
  873TIP3   OH224109   5.311   3.327   5.532 -0.4436  0.3141  0.4989
  873TIP3    H124110   5.302   3.242   5.490  1.5133  0.8930 -1.1646
  873TIP3    H224111   5.236   3.377   5.501 -0.9889 -0.4387  0.5900
  874TIP3   OH224112   2.801   2.163  13.789 -0.8800 -0.2811  0.1878
  874TIP3    H124113   2.846   2.225  13.846 -0.7977  0.7160 -0.9427
  874TIP3    H224114   2.827   2.188  13.701 -0.7391 -2.0220 -0.2939
  875TIP3   OH224115   3.958   5.720  16.978 -0.2591 -0.0111 -0.1951
  875TIP3    H124116   4.047   5.747  16.956 -0.2136  1.0856  1.2893
  875TIP3    H224117   3.965   5.679  17.064 -0.4507 -4.2948 -2.1034
  876TIP3   OH224118   3.942   3.492  15.117 -0.3445  0.0478 -0.0022
  876TIP3    H124119   3.984   3.417  15.161  0.3940  0.3393 -0.2095
  876TIP3    H224120   3.915   3.457  15.032  0.2005  0.0662 -0.1895
  877TIP3   OH224121   6.603   4.293  17.149 -0.0199 -0.1586 -0.3464
  877TIP3    H124122   6.637   4.318  17.064 -1.7369  1.4811 -0.5645
  877TIP3    H224123   6.633   4.361  17.209 -0.6870 -0.1050 -0.0614
  878TIP3   OH224124   4.882   1.114   4.138 -0.6335 -0.0907 -0.1410
  878TIP3    H124125   4.845   1.174   4.073 -0.5035 -0.4607 -0.5597
  878TIP3    H224126   4.888   1.165   4.218 -0.6778  0.4050 -0.4557
  879TIP3   OH224127   3.162   0.203   1.492 -0.2117 -0.1348 -0.3195
  879TIP3    H124128   3.185   0.293   1.468  1.3245 -0.4609 -0.1349
  879TIP3    H224129   3.069   0.207   1.514 -0.2638  1.3193 -0.7503
  880TIP3   OH224130   5.127   0.093   5.153  0.3149 -0.2732  0.4191
  880TIP3    H124131   5.171   0.021   5.108  0.7793  0.6495 -0.6236
  880TIP3    H224132   5.185   0.114   5.226  1.5673  0.8608 -0.8804
  881TIP3   OH224133   0.886   2.866  15.160 -0.1700 -0.2315  0.1172
  881TIP3    H124134   0.902   2.944  15.106 -0.2458 -1.2299 -1.3803
  881TIP3    H224135   0.798   2.838  15.136 -0.7306  0.0778  1.7661
  882TIP3   OH224136   6.136   3.328   2.900  0.0153  0.5253 -0.3806
  882TIP3    H124137   6.099   3.243   2.923 -0.2254  0.7477  0.0425
  882TIP3    H224138   6.117   3.338   2.807 -2.2537  1.2810  0.1428
  883TIP3   OH224139   3.017   3.052   0.767 -0.2623  0.3459 -0.0709
  883TIP3    H124140   3.001   3.146   0.774  0.6240  0.4803  0.3710
  883TIP3    H224141   2.933   3.015   0.743 -0.1270  1.4840 -2.4518
  884TIP3   OH224142   4.432   0.605  16.986  0.7934  0.2868 -0.6389
  884TIP3    H124143   4.519   0.565  16.976  0.8618  0.8512 -2.5483
  884TIP3    H224144   4.384   0.576  16.908 -0.5723  0.4159  0.1449
  885TIP3   OH224145   4.587   0.675  12.180 -0.4414 -0.9292 -0.2594
  885TIP3    H124146   4.669   0.705  12.217 -0.7124 -0.4425 -0.0482
  885TIP3    H224147   4.523   0.683  12.251 -1.6023  2.7569 -1.6100
  886TIP3   OH224148   6.634   5.054  16.242  0.3454 -0.2218 -0.5642
  886TIP3    H124149   6.684   5.136  16.245  2.8979 -1.6421 -2.6265
  886TIP3    H224150   6.602   5.043  16.331  0.1527  2.8868 -0.1769
  887TIP3   OH224151   5.861   0.385   5.827  0.0757  0.1204 -0.5507
  887TIP3    H124152   5.772   0.351   5.836  1.2177 -3.2599 -1.3619
  887TIP3    H224153   5.904   0.364   5.911  0.1191  1.7863 -0.1380
  888TIP3   OH224154   2.631   2.157  12.307 -0.1729  0.4318 -0.0688
  888TIP3    H124155   2.589   2.158  12.392  0.4593 -0.0458  0.2543
  888TIP3    H224156   2.719   2.123  12.323 -0.2869 -0.3495 -1.0088
  889TIP3   OH224157   6.295   2.550  14.348 -0.1585  0.2152 -0.5413
  889TIP3    H124158   6.305   2.524  14.439  0.4395  0.0702 -0.6425
  889TIP3    H224159   6.325   2.474  14.298  0.1901  0.5493 -0.8489
  890TIP3   OH224160   0.811   5.207   5.671  0.1800  0.1913  0.0893
  890TIP3    H124161   0.902   5.194   5.698  0.4183 -0.3479 -0.9430
  890TIP3    H224162   0.759   5.173   5.744  0.8018 -3.5668 -1.1073
  891TIP3   OH224163   1.750   2.168  16.225 -0.8186  0.6696 -0.6473
  891TIP3    H124164   1.690   2.140  16.156  2.1089 -1.6986 -2.3617
  891TIP3    H224165   1.816   2.219  16.179  0.6475 -0.1066  0.5483
  892TIP3   OH224166   6.561   1.388  14.760 -0.2592 -0.0593 -0.5382
  892TIP3    H124167   6.603   1.303  14.749 -0.4492 -0.3487  0.8423
  892TIP3    H224168   6.483   1.384  14.705 -1.0855 -1.3590  0.7025
  893TIP3   OH224169   0.990   2.030   3.806 -0.0514  0.0835 -0.4803
  893TIP3    H124170   1.066   1.975   3.829 -1.2398 -1.6311 -0.5347
  893TIP3    H224171   1.025   2.094   3.745  1.4325 -0.4888 -0.2655
  894TIP3   OH224172   6.330   0.621  12.537  0.4775 -0.0526  0.6291
  894TIP3    H124173   6.256   0.681  12.526  0.8578  0.2455 -0.3862
  894TIP3    H224174   6.298   0.538  12.501  0.4896 -0.0355  0.5779
  895TIP3   OH224175   0.277   1.613  17.097 -0.3187  0.5942 -0.7581
  895TIP3    H124176   0.297   1.659  17.015  0.3322 -1.0222 -1.5259
  895TIP3    H224177   0.263   1.522  17.070 -0.4323  0.1162  0.8915
  896TIP3   OH224178   6.226   1.469   4.311 -1.0218  0.1977  0.1970
  896TIP3    H124179   6.287   1.472   4.385 -0.7220 -0.7546 -0.0084
  896TIP3    H224180   6.157   1.531   4.335 -0.1994  0.9668  0.6274
  897TIP3   OH224181   5.111   5.475   0.353  0.0252 -0.1045  0.0198
  897TIP3    H124182   5.194   5.521   0.339  0.5793 -0.5258  1.7852
  897TIP3    H224183   5.128   5.387   0.320  0.0612 -0.0114 -0.2155
  898TIP3   OH224184   4.812   5.279  16.340 -0.1871 -0.2684 -0.0122
  898TIP3    H124185   4.738   5.338  16.325  0.6298  0.3560 -1.7634
  898TIP3    H224186   4.889   5.335  16.334  0.4392 -0.8245  2.2508
  899TIP3   OH224187   0.726   6.537  13.839  0.3419 -0.2957 -0.6769
  899TIP3    H124188   0.643   6.491  13.823  0.1374  0.1215 -0.8151
  899TIP3    H224189   0.745   6.582  13.757 -0.2406  1.1015 -0.0620
  900TIP3   OH224190   2.115   2.147   1.361  0.3662  0.7789  0.5220
  900TIP3    H124191   2.024   2.170   1.345  0.0627 -0.1794  0.8593
  900TIP3    H224192   2.141   2.098   1.283 -0.0011 -0.6584  1.2898
  901TIP3   OH224193   1.760   5.044   1.996  0.5083  0.1039 -0.0501
  901TIP3    H124194   1.708   4.966   2.016  0.9644 -1.2212 -3.6291
  901TIP3    H224195   1.705   5.118   2.022 -1.5987 -1.3382 -0.3341
  902TIP3   OH224196   1.601   0.689  13.232 -0.4677 -0.1940 -0.6474
  902TIP3    H124197   1.659   0.743  13.179 -0.5913 -0.1290 -0.7157
  902TIP3    H224198   1.530   0.747  13.257  0.8637  0.5188  1.7068
  903TIP3   OH224199   5.713   2.034   0.405 -0.1478  0.5067  0.4458
  903TIP3    H124200   5.623   2.040   0.436 -0.0576 -2.5379  1.4796
  903TIP3    H224201   5.765   2.073   0.475 -0.5372  0.8457  0.5482
  904TIP3   OH224202   1.407   4.518  10.854 -0.7641  0.2414  0.9083
  904TIP3    H124203   1.351   4.589  10.823 -2.1613 -0.7526  1.1148
  904TIP3    H224204   1.352   4.440  10.847  1.1706 -1.0366 -0.5792
  905TIP3   OH224205   3.376   3.915   0.989  0.0762 -0.0584  0.0488
  905TIP3    H124206   3.290   3.883   0.964  0.8992 -0.8004 -1.9132
  905TIP3    H224207   3.428   3.909   0.909  1.2549  2.7531  0.5452
  906TIP3   OH224208   6.056   0.877   3.086 -0.5206 -0.0515 -0.1139
  906TIP3    H124209   6.078   0.966   3.112  0.3546 -0.2000 -0.3149
  906TIP3    H224210   6.038   0.883   2.992  2.1636 -0.5100 -0.7262
  907TIP3   OH224211   6.359   2.052  11.659  0.0583 -0.3080 -0.2818
  907TIP3    H124212   6.410   1.974  11.680  1.4355  0.7952  0.5739
  907TIP3    H224213   6.421   2.111  11.618 -0.4103  1.1953  1.0958
  908TIP3   OH224214   3.389   2.529   4.077 -0.2857 -0.4195  0.3397
  908TIP3    H124215   3.459   2.541   4.012  0.7274 -0.7060  1.3616
  908TIP3    H224216   3.427   2.563   4.159 -1.0541 -1.3226  1.0731
  909TIP3   OH224217   3.978   4.854  16.560 -0.5744  0.1027 -0.4173
  909TIP3    H124218   3.937   4.937  16.582 -0.8813 -0.1599  0.0282
  909TIP3    H224219   3.905   4.797  16.534 -0.6153 -0.6343  1.2098
  910TIP3   OH224220   4.382   5.150   5.331 -0.6132  0.1982  0.2051
  910TIP3    H124221   4.463   5.197   5.312 -0.8487 -0.3176 -2.1951
  910TIP3    H224222   4.343   5.198   5.405  1.4271  0.9524  0.8325
  911TIP3   OH224223   5.427   3.558  14.995  0.4668  0.2141 -0.5641
  911TIP3    H124224   5.373   3.610  14.935  0.9609  1.4679  0.0782
  911TIP3    H224225   5.386   3.471  14.993 -1.3143  1.0269 -0.4266
  912TIP3   OH224226   0.827   4.329   2.151  0.2722 -0.2179  0.5462
  912TIP3    H124227   0.879   4.249   2.141 -0.8453 -1.0493  1.2574
  912TIP3    H224228   0.891   4.396   2.175  1.3140 -0.7385 -0.6816
  913TIP3   OH224229   5.322   0.462   0.933 -0.7715 -0.4008  0.2587
  913TIP3    H124230   5.294   0.381   0.891  1.0059 -0.5572 -0.6800
  913TIP3    H224231   5.349   0.436   1.021 -0.1712 -0.8474 -0.0541
  914TIP3   OH224232   1.296   4.556  12.333 -0.3450  0.2007 -0.1651
  914TIP3    H124233   1.225   4.523  12.387  0.6107 -2.0943 -0.2507
  914TIP3    H224234   1.358   4.595  12.395  0.6223 -2.1847  0.4289
  915TIP3   OH224235   1.242   5.348   2.322  0.0418  0.3213  0.3856
  915TIP3    H124236   1.270   5.430   2.282  1.5529 -1.1849 -1.7034
  915TIP3    H224237   1.159   5.327   2.279  1.1907 -0.8062 -1.3184
  916TIP3   OH224238   3.569   2.572   3.325 -0.5949  0.5811  0.4121
  916TIP3    H124239   3.648   2.525   3.351  0.0134  2.2313  1.5550
  916TIP3    H224240   3.532   2.518   3.254  2.1866  0.4607 -0.9899
  917TIP3   OH224241   6.448   4.555  14.109 -0.3419  0.3995 -0.2676
  917TIP3    H124242   6.498   4.474  14.099 -2.8844 -1.0250 -1.9929
  917TIP3    H224243   6.474   4.589  14.195  3.4330 -0.3140 -1.0503
  918TIP3   OH224244   2.834   3.347   0.016 -0.1965  0.5121  0.4546
  918TIP3    H124245   2.844   3.344   0.111 -0.6853  0.8442  0.5170
  918TIP3    H224246   2.838   3.440  -0.006  2.6962  0.2877 -0.1563
  919TIP3   OH224247   1.793   6.509   0.912 -0.1807 -0.1455 -0.3548
  919TIP3    H124248   1.726   6.500   0.980  1.2262  2.6098  1.4819
  919TIP3    H224249   1.763   6.581   0.857  0.9261  0.6580  0.0758
  920TIP3   OH224250   4.351   3.892  15.725  0.4134  0.3162 -0.1462
  920TIP3    H124251   4.276   3.937  15.763 -0.5953  0.0104 -1.7445
  920TIP3    H224252   4.319   3.805  15.702  1.0723  0.3895 -1.4174
  921TIP3   OH224253   1.082   6.460  12.157  0.4381  0.1790 -0.3974
  921TIP3    H124254   1.102   6.407  12.234  1.9088 -0.6848 -1.3671
  921TIP3    H224255   1.014   6.411  12.112 -0.0329  0.4104  0.0549
  922TIP3   OH224256   5.910   5.730   0.411  0.5823 -0.4258 -0.2267
  922TIP3    H124257   5.815   5.728   0.413  0.3931  1.3360 -3.7973
  922TIP3    H224258   5.936   5.638   0.410 -1.0169 -0.9230  1.2071
  923TIP3   OH224259   5.483   3.526  14.420 -0.6085  0.3401 -0.0635
  923TIP3    H124260   5.400   3.498  14.459  1.0489  0.0361  3.4532
  923TIP3    H224261   5.518   3.448  14.379 -0.7039 -0.2789  1.0113
  924TIP3   OH224262   4.330   5.398   5.478 -0.4908  0.1860  0.5251
  924TIP3    H124263   4.314   5.459   5.406 -0.3828  0.5909  0.8405
  924TIP3    H224264   4.253   5.406   5.534 -1.3068 -1.3008 -0.3554
  925TIP3   OH224265   3.972   3.471  14.202  0.5574 -0.0814 -0.1704
  925TIP3    H124266   3.905   3.402  14.205 -0.7821  1.1412 -1.1035
  925TIP3    H224267   4.045   3.432  14.154 -0.0692 -0.9387 -0.4321
  926TIP3   OH224268   4.714   2.161  16.324 -0.3447  0.1829 -0.3469
  926TIP3    H124269   4.684   2.224  16.259  0.1782  0.8660  0.0805
  926TIP3    H224270   4.803   2.189  16.347 -1.0566  0.7986  1.7330
  927TIP3   OH224271   5.646   5.574  15.840 -0.5507  0.0961 -0.1966
  927TIP3    H124272   5.624   5.549  15.750 -4.1397 -0.4244  0.7314
  927TIP3    H224273   5.568   5.621  15.871  0.2826 -0.4902  2.9068
  928TIP3   OH224274   3.071   0.011   4.228  0.5417 -0.2731  0.1591
  928TIP3    H124275   3.093  -0.030   4.311 -1.9740  0.4605  1.2393
  928TIP3    H224276   3.005  -0.046   4.189  0.0098  0.5925 -0.2315
  929TIP3   OH224277   2.245   6.073   6.245  0.8093  0.3666 -0.3150
  929TIP3    H124278   2.316   6.112   6.195  0.8384  0.7297  0.0083
  929TIP3    H224279   2.253   5.979   6.229 -0.2921  0.6144 -2.4628
  930TIP3   OH224280   3.044   0.219   5.086 -0.5537 -0.0540  0.0137
  930TIP3    H124281   3.073   0.196   4.998  1.5369 -2.4128  1.2402
  930TIP3    H224282   3.029   0.135   5.129 -0.9624  1.0401  2.0857
  931TIP3   OH224283   3.530   0.291   1.948 -0.1957  0.5439  0.4845
  931TIP3    H124284   3.522   0.303   2.042 -1.6067  0.3644  0.4033
  931TIP3    H224285   3.441   0.307   1.914  0.1696  0.0544 -0.7406
  932TIP3   OH224286   5.097   0.804  12.115 -0.6281 -0.1773  0.0755
  932TIP3    H124287   5.081   0.832  12.205 -1.5026 -1.6727  0.3912
  932TIP3    H224288   5.155   0.872  12.079 -0.0633  0.2929  1.8288
  933TIP3   OH224289   0.736   0.855   0.097  0.3264 -0.0033 -0.1089
  933TIP3    H124290   0.753   0.764   0.121 -1.5572 -0.4930 -0.5094
  933TIP3    H224291   0.641   0.858   0.081  0.2415  2.1848  0.6140
  934TIP3   OH224292   3.505   6.245   4.178 -0.2517  0.2378  0.0831
  934TIP3    H124293   3.452   6.208   4.107  0.9038  2.0843 -1.7762
  934TIP3    H224294   3.512   6.173   4.242 -3.6405 -0.5551 -0.3316
  935TIP3   OH224295   5.138   0.125  12.126  0.6164 -0.0918  0.4355
  935TIP3    H124296   5.183   0.157  12.047  1.7202 -0.4264  0.9250
  935TIP3    H224297   5.087   0.050  12.095 -0.0622  0.6243 -0.2304
  936TIP3   OH224298   5.518   0.804   1.946  0.1886  0.2769  0.6210
  936TIP3    H124299   5.510   0.886   1.896 -0.3978  0.2558  0.6745
  936TIP3    H224300   5.557   0.831   2.029 -0.5275  0.5937  0.8611
  937TIP3   OH224301   2.838   5.154  13.696 -0.2466  0.3963  0.1346
  937TIP3    H124302   2.793   5.069  13.693 -0.6794  0.6219  0.1734
  937TIP3    H224303   2.916   5.142  13.643  0.0845 -0.2575  0.7680
  938TIP3   OH224304   4.373   2.936  16.507  0.1531 -0.3230 -0.6884
  938TIP3    H124305   4.295   2.896  16.545  0.4261 -0.2197 -0.0045
  938TIP3    H224306   4.348   3.027  16.491 -0.4053 -0.7095 -2.0609
  939TIP3   OH224307   4.347   0.389   1.217  0.7629 -0.1833 -0.3579
  939TIP3    H124308   4.319   0.480   1.206 -0.3379 -0.5362 -0.4866
  939TIP3    H224309   4.316   0.365   1.304 -0.1568 -0.8631 -0.8654
  940TIP3   OH224310   5.770   3.698  14.821  0.0151 -0.0169 -0.0876
  940TIP3    H124311   5.755   3.788  14.849 -1.3460 -0.2496 -0.0125
  940TIP3    H224312   5.693   3.677  14.768  1.3109 -0.4451 -1.8553
  941TIP3   OH224313   1.490   5.295   0.290  0.2450 -0.2829  0.0615
  941TIP3    H124314   1.417   5.355   0.282  0.6786  0.2074 -0.2851
  941TIP3    H224315   1.537   5.323   0.369  0.5492 -0.0405 -0.1993
  942TIP3   OH224316   1.296   6.457  12.751 -1.3249  0.1347 -0.0212
  942TIP3    H124317   1.317   6.481  12.660 -1.1760 -1.9791 -0.5663
  942TIP3    H224318   1.353   6.513  12.804  1.7515 -1.6107 -1.3412
  943TIP3   OH224319   0.912   2.499   3.694 -0.3183  0.3411  0.2225
  943TIP3    H124320   0.823   2.483   3.662 -0.0541  0.0154 -0.3636
  943TIP3    H224321   0.930   2.424   3.751 -0.3921  0.3752  0.2912
  944TIP3   OH224322   3.060   2.781   5.751  0.2691  0.0042  0.0097
  944TIP3    H124323   3.140   2.813   5.793 -0.1476 -0.2718  1.0570
  944TIP3    H224324   2.992   2.843   5.779 -0.0432 -0.2717 -0.1289
  945TIP3   OH224325   1.621   3.427  11.729  0.7351  0.1524 -0.0868
  945TIP3    H124326   1.528   3.446  11.736  0.6606 -0.0631 -0.4876
  945TIP3    H224327   1.655   3.441  11.818  0.0650 -1.1143  0.3826
  946TIP3   OH224328   5.574   2.568  10.838 -0.2359  0.4025  0.2906
  946TIP3    H124329   5.567   2.544  10.746 -0.6133  0.8257  0.2022
  946TIP3    H224330   5.559   2.487  10.886 -0.4989  0.2704 -0.0160
  947TIP3   OH224331   0.815   0.784   5.187  0.5804 -0.2303  0.2549
  947TIP3    H124332   0.869   0.764   5.111  1.8434 -0.2788  1.1648
  947TIP3    H224333   0.757   0.708   5.196 -0.7445  0.5115 -1.6566
  948TIP3   OH224334   2.482   6.068  14.636 -0.1994 -0.2785  0.3097
  948TIP3    H124335   2.500   6.109  14.721  0.3005  0.1224  0.0146
  948TIP3    H224336   2.561   6.085  14.585 -0.0549 -1.4598  0.1231
  949TIP3   OH224337   5.687   0.720   4.496 -0.2570 -0.3440 -0.2333
  949TIP3    H124338   5.733   0.638   4.510 -0.6873 -0.2403  1.9073
  949TIP3    H224339   5.753   0.778   4.457  0.4793 -1.2069 -0.2891
  950TIP3   OH224340   2.323   6.359   0.802  0.1188 -0.0006 -0.4136
  950TIP3    H124341   2.311   6.266   0.820 -2.5825  0.3321 -0.2858
  950TIP3    H224342   2.322   6.400   0.888  0.8947  0.2024 -0.4977
  951TIP3   OH224343   4.160   6.533   1.292 -0.8007  0.6223 -0.3472
  951TIP3    H124344   4.200   6.456   1.254 -0.9782  1.0733 -1.4648
  951TIP3    H224345   4.198   6.607   1.244 -0.7566  1.2246  0.5888
  952TIP3   OH224346   5.037   1.895   3.212  0.2547  0.7221 -0.6808
  952TIP3    H124347   4.947   1.884   3.243 -0.4902 -0.1045 -3.0384
  952TIP3    H224348   5.033   1.970   3.152  1.3292  1.2520 -0.1107
  953TIP3   OH224349   5.084   4.620   4.717 -0.1739 -0.5395  0.0764
  953TIP3    H124350   5.143   4.688   4.749 -0.5167 -0.2054  0.0058
  953TIP3    H224351   5.103   4.613   4.624 -1.5380  0.8995 -0.3424
  954TIP3   OH224352   5.230   6.086  13.706 -0.8242  0.1037  0.0087
  954TIP3    H124353   5.166   6.135  13.656  0.7237  1.1270 -0.9942
  954TIP3    H224354   5.315   6.115  13.673  0.1982 -0.4515  2.0337
  955TIP3   OH224355   0.930   6.685   0.464  0.5513 -0.2086  0.2740
  955TIP3    H124356   0.874   6.626   0.515 -1.3233  0.8680 -0.4878
  955TIP3    H224357   0.882   6.699   0.382  2.3521  0.0580 -0.7735
  956TIP3   OH224358   5.035   0.417   0.112 -0.0696 -0.1859  0.2217
  956TIP3    H124359   5.039   0.341   0.055 -2.3851 -0.2374  0.0830
  956TIP3    H224360   4.983   0.388   0.187 -1.6070  1.4653 -0.1862
  957TIP3   OH224361   0.905   2.987  13.847 -0.0255 -0.0298  0.0434
  957TIP3    H124362   0.914   2.896  13.877  0.3591 -0.0291 -0.0629
  957TIP3    H224363   0.955   3.038  13.911 -1.1459  0.2284  0.7274
  958TIP3   OH224364   1.068   5.647  14.361 -0.5178 -0.1755 -0.4192
  958TIP3    H124365   1.092   5.628  14.452 -0.0751  1.1110 -0.2585
  958TIP3    H224366   1.143   5.695  14.326 -1.6258  1.3075 -0.7887
  959TIP3   OH224367   1.512   5.038  14.150  0.0923  0.1241  0.4393
  959TIP3    H124368   1.510   4.951  14.110  1.0380 -0.5027  1.7180
  959TIP3    H224369   1.427   5.076  14.128  0.2562 -0.5328 -1.4029
  960TIP3   OH224370   5.772   0.590   2.327 -0.1206  0.0220  0.2475
  960TIP3    H124371   5.821   0.581   2.409 -1.2019  0.3189  0.9470
  960TIP3    H224372   5.815   0.661   2.281 -1.1068  1.6450  1.7692
  961TIP3   OH224373   2.579   1.706  13.276  0.3143 -0.2936 -0.3008
  961TIP3    H124374   2.491   1.740  13.260  0.6713  1.0460  0.4977
  961TIP3    H224375   2.569   1.611  13.272 -1.0026 -0.1406 -1.0398
  962TIP3   OH224376   5.537   4.895   2.116 -0.5725 -0.2493  0.3424
  962TIP3    H124377   5.491   4.920   2.196 -0.4787  1.8340 -0.2369
  962TIP3    H224378   5.468   4.886   2.050 -0.4938 -0.4313  0.2850
  963TIP3   OH224379   4.043   2.799  13.763 -0.6523  0.3921 -0.2785
  963TIP3    H124380   3.950   2.781  13.750 -1.0142  1.5447  0.6082
  963TIP3    H224381   4.066   2.747  13.841 -0.0906 -1.3345 -1.5667
  964TIP3   OH224382   2.362   3.971  13.261  1.2133 -0.2184  0.0295
  964TIP3    H124383   2.430   4.038  13.251 -0.3665  1.2433 -1.1434
  964TIP3    H224384   2.303   4.006  13.327  0.3127 -0.4306 -0.6675
  965TIP3   OH224385   0.264   3.374   7.000 -0.8780 -0.0766 -0.1337
  965TIP3    H124386   0.280   3.353   7.092 -0.1452 -1.7771 -0.6304
  965TIP3    H224387   0.223   3.460   7.002  1.2892  0.9486  1.6342
  966TIP3   OH224388   6.456   0.883  11.425 -0.2278  0.4600  0.3233
  966TIP3    H124389   6.366   0.911  11.409 -0.1543  2.0214  2.2984
  966TIP3    H224390   6.510   0.952  11.385  0.0444  0.2694  0.3600
  967TIP3   OH224391   1.081   2.976  15.312  0.1988 -0.4583  0.1275
  967TIP3    H124392   1.017   2.912  15.279 -0.3335 -0.5288  1.2401
  967TIP3    H224393   1.029   3.033  15.370  1.2415 -0.8471  1.4744
  968TIP3   OH224394   6.716   4.561   3.174  0.5787 -0.1207  0.1897
  968TIP3    H124395   6.683   4.478   3.140  1.5610 -1.0790  1.5313
  968TIP3    H224396   6.698   4.557   3.268  1.1994  0.9181  0.3575
  969TIP3   OH224397   3.681   5.322  16.690 -0.4118  0.1273 -0.5156
  969TIP3    H124398   3.749   5.387  16.671  1.7237 -1.6280  0.8364
  969TIP3    H224399   3.663   5.332  16.783  1.6296 -2.7064  0.2437
  970TIP3   OH224400   3.593   1.538   5.083 -0.4713  0.3458 -0.2987
  970TIP3    H124401   3.613   1.510   4.993  1.4821  1.7940 -0.3559
  970TIP3    H224402   3.584   1.633   5.077  1.0541  0.6144  1.2683
  971TIP3   OH224403   4.388   6.625   3.793  0.1380  0.2463  0.3383
  971TIP3    H124404   4.449   6.551   3.803 -0.1840  0.4065  4.5231
  971TIP3    H224405   4.441   6.702   3.813 -0.2603  0.9064 -1.0668
  972TIP3   OH224406   6.649   3.317   4.026  0.0912  0.2402 -0.7879
  972TIP3    H124407   6.706   3.240   4.031  0.2461  0.5269  2.7330
  972TIP3    H224408   6.573   3.293   4.080  0.1190  2.5398  0.3050
  973TIP3   OH224409   5.418   0.178  12.968  0.7114 -0.4507 -0.1957
  973TIP3    H124410   5.431   0.084  12.959  0.1353 -0.3221 -2.9494
  973TIP3    H224411   5.363   0.202  12.892 -0.3103  1.8655  1.2061
  974TIP3   OH224412   2.250   3.322  16.911  0.1450  0.0219  0.0493
  974TIP3    H124413   2.166   3.365  16.929 -0.1872 -0.2954 -0.7269
  974TIP3    H224414   2.225   3.234  16.881  0.8248 -0.8927  2.0712
  975TIP3   OH224415   4.394   6.489   4.152  0.5678  0.4794 -0.4721
  975TIP3    H124416   4.449   6.563   4.180  0.1894  0.4334  0.4016
  975TIP3    H224417   4.453   6.413   4.156  0.5605  0.4965  0.0674
  976TIP3   OH224418   6.586   1.102   0.208 -0.4461 -0.3438 -0.8492
  976TIP3    H124419   6.591   1.011   0.179 -0.6190 -0.0546 -1.8312
  976TIP3    H224420   6.675   1.135   0.202  0.0103 -1.0804  1.6746
  977TIP3   OH224421   2.822   3.266   0.497 -0.3344  0.6472 -0.0293
  977TIP3    H124422   2.727   3.259   0.508 -0.4253  2.2073  0.4098
  977TIP3    H224423   2.855   3.285   0.585  0.3496  0.4534 -0.2408
  978TIP3   OH224424   4.160   6.619  13.928 -0.4505 -0.1934 -0.0065
  978TIP3    H124425   4.237   6.655  13.973 -0.0692  0.8212 -1.4437
  978TIP3    H224426   4.097   6.601  13.999  0.9435 -0.6495  1.1322
  979TIP3   OH224427   1.751   0.085  12.758 -0.4076  0.7440 -0.1492
  979TIP3    H124428   1.682   0.111  12.818  0.0575  1.9384 -0.1232
  979TIP3    H224429   1.823   0.057  12.814 -0.6735  0.0169 -0.1698
  980TIP3   OH224430   6.547   1.644   1.561 -0.0375 -0.5292  0.1794
  980TIP3    H124431   6.610   1.661   1.490  0.8099 -1.1711  0.7602
  980TIP3    H224432   6.593   1.671   1.641 -0.9327  0.0461  0.5052
  981TIP3   OH224433   1.909   6.490  14.277 -0.1112  0.2686 -0.0187
  981TIP3    H124434   1.857   6.419  14.315  1.0570 -0.6500 -0.1050
  981TIP3    H224435   1.859   6.517  14.200 -0.1912 -0.9919 -0.4252
  982TIP3   OH224436   1.521   3.735  13.459  0.3265 -0.0063  0.0852
  982TIP3    H124437   1.463   3.762  13.387  0.0276 -0.2969  0.2150
  982TIP3    H224438   1.498   3.793  13.531 -0.3800 -0.6659  0.3944
  983TIP3   OH224439   2.634   3.682  16.647 -0.2100 -0.1673 -0.0652
  983TIP3    H124440   2.639   3.660  16.740 -0.7470 -0.8926 -0.2000
  983TIP3    H224441   2.563   3.746  16.642 -1.4264 -1.4810 -0.1969
  984TIP3   OH224442   4.543   6.428   0.149 -0.0568  0.4099 -0.2226
  984TIP3    H124443   4.599   6.418   0.072 -1.8527 -2.5978 -1.2519
  984TIP3    H224444   4.459   6.391   0.122 -0.8666 -0.2948  3.0460
  985TIP3   OH224445   5.445   6.557   4.839  0.6558 -0.2089 -0.0822
  985TIP3    H124446   5.424   6.464   4.851  0.0943 -0.1224 -0.3950
  985TIP3    H224447   5.415   6.599   4.919 -0.5205 -0.0582 -0.6012
  986TIP3   OH224448   4.271   4.487  14.399 -0.4494 -0.4851  0.3466
  986TIP3    H124449   4.307   4.406  14.362  1.6481  0.9227 -0.8438
  986TIP3    H224450   4.261   4.469  14.492  1.8826 -1.5004  0.4368
  987TIP3   OH224451   2.695   1.666   5.305 -0.3036  0.4699 -0.2958
  987TIP3    H124452   2.679   1.584   5.354 -2.2648  0.9130 -0.1408
  987TIP3    H224453   2.650   1.653   5.222  0.6640  0.8143 -0.8771
  988TIP3   OH224454   4.179   1.727   1.943  0.4902  0.0731  0.7842
  988TIP3    H124455   4.123   1.756   2.016 -0.9295 -0.4989 -0.0553
  988TIP3    H224456   4.147   1.776   1.868  0.6116 -0.8375  0.1340
  989TIP3   OH224457   2.270   5.980  13.202 -0.3775 -0.1110  0.5518
  989TIP3    H124458   2.250   6.069  13.232 -0.6707 -0.1459  0.4694
  989TIP3    H224459   2.276   5.929  13.282  2.8126  0.5587  0.8069
  990TIP3   OH224460   6.596   3.928   5.915  0.1002  0.5095 -0.4753
  990TIP3    H124461   6.551   3.860   5.865  0.4054  0.7262 -1.0544
  990TIP3    H224462   6.606   3.892   6.003  0.4003 -0.2442 -0.8250
  991TIP3   OH224463   3.704   6.106   4.667 -0.3362  0.1861  0.9380
  991TIP3    H124464   3.619   6.137   4.698 -0.4227  0.6795  0.2250
  991TIP3    H224465   3.723   6.161   4.591 -0.2977 -1.2349 -0.1004
  992TIP3   OH224466   2.656   3.275  17.040 -0.5079 -0.6535  0.4406
  992TIP3    H124467   2.664   3.360  17.084 -0.4986 -1.0544  1.2228
  992TIP3    H224468   2.607   3.221  17.101 -2.6211 -0.5107 -1.0745
  993TIP3   OH224469   5.195   0.025  14.167  0.3529 -0.2969 -0.0686
  993TIP3    H124470   5.171  -0.039  14.234  2.6413 -0.9312  0.1633
  993TIP3    H224471   5.203  -0.025  14.087  0.9930 -0.0966 -0.1293
  994TIP3   OH224472   5.439   5.128  16.965  0.1629 -0.2647 -0.8216
  994TIP3    H124473   5.461   5.220  16.982 -1.1873 -0.6032  3.4485
  994TIP3    H224474   5.343   5.128  16.957  0.2533 -1.1710 -2.0374
  995TIP3   OH224475   5.165   0.035  15.217 -0.1853  0.1213  0.0510
  995TIP3    H124476   5.122   0.110  15.176 -0.8454  0.6027  1.5970
  995TIP3    H224477   5.190   0.066  15.304  0.5056 -1.1229  0.3060
  996TIP3   OH224478   6.745   5.535  16.180  0.4156  0.2798 -0.1101
  996TIP3    H124479   6.724   5.471  16.248 -2.4332  0.8892 -0.3704
  996TIP3    H224480   6.754   5.618  16.227 -2.0230  0.7895 -0.4804
  997TIP3   OH224481   1.973   0.565  10.695  0.0661  0.3661 -0.2643
  997TIP3    H124482   2.067   0.575  10.706  0.2791 -2.4672  1.0068
  997TIP3    H224483   1.962   0.504  10.622 -0.7315 -0.2868  0.3805
  998TIP3   OH224484   0.410   4.645  15.847 -0.2942 -0.3042 -0.4169
  998TIP3    H124485   0.432   4.715  15.784 -0.5321  0.6023  0.4901
  998TIP3    H224486   0.483   4.584  15.841  0.7077  0.8319 -0.0936
  999TIP3   OH224487   6.700   0.105  11.761 -0.9075  0.4785  0.5445
  999TIP3    H124488   6.668   0.024  11.723 -1.1113  0.6703  0.3091
  999TIP3    H224489   6.738   0.079  11.845  2.2829 -0.3987 -1.0886
 1000TIP3   OH224490   6.036   5.740  16.423 -0.3905 -0.2539  0.4027
 1000TIP3    H124491   5.952   5.767  16.460  0.0975  0.4949  0.9747
 1000TIP3    H224492   6.073   5.679  16.487 -1.1852 -1.8186 -0.5692
 1001TIP3   OH224493   4.152   5.698   4.979 -0.2512  0.2762 -0.5418
 1001TIP3    H124494   4.126   5.611   4.949 -0.3794  0.0654  0.1655
 1001TIP3    H224495   4.144   5.694   5.075 -1.6352  1.4919 -0.5767
 1002TIP3   OH224496   0.214   3.588   0.314 -0.1247 -0.3657  0.1255
 1002TIP3    H124497   0.281   3.581   0.382 -0.1287 -0.8438  0.0875
 1002TIP3    H224498   0.260   3.569   0.233 -0.2955 -0.6766  0.0965
 1003TIP3   OH224499   1.232   5.384   0.921  0.2005  0.3899 -0.2598
 1003TIP3    H124500   1.255   5.342   0.837 -1.0676 -1.4041  0.2648
 1003TIP3    H224501   1.302   5.358   0.981  0.5203  0.7611 -0.4682
 1004TIP3   OH224502   2.373   0.444  16.063  0.4164 -0.0546 -0.2254
 1004TIP3    H124503   2.431   0.465  16.137 -0.4479  3.2225 -0.4165
 1004TIP3    H224504   2.428   0.457  15.986 -0.4573  2.9537 -0.4016
 1005TIP3   OH224505   6.064   3.655   6.703 -0.2596 -0.1296  0.2869
 1005TIP3    H124506   6.123   3.706   6.759  2.4252 -0.5502 -2.0568
 1005TIP3    H224507   6.014   3.721   6.655  2.1811  0.3405 -1.6802
 1006TIP3   OH224508   5.825   2.682  15.632 -0.1468  0.2036  0.2573
 1006TIP3    H124509   5.830   2.777  15.621 -0.9537  0.0214 -2.1138
 1006TIP3    H224510   5.741   2.658  15.593  0.7585 -1.6487 -0.6545
 1007TIP3   OH224511   6.485   0.646  12.100 -0.0780  0.1982  0.3948
 1007TIP3    H124512   6.421   0.579  12.075  1.3848 -0.5973 -1.3024
 1007TIP3    H224513   6.489   0.640  12.195 -3.1597  0.8769  0.6336
 1008TIP3   OH224514   1.296   6.542  14.587 -0.2359  0.2946  0.2218
 1008TIP3    H124515   1.227   6.604  14.611 -0.1507  0.5429 -0.1715
 1008TIP3    H224516   1.345   6.529  14.668  0.6998  1.9511 -0.0477
 1009TIP3   OH224517   0.993   4.035   5.842  0.0453  0.1968 -0.0160
 1009TIP3    H124518   1.003   3.954   5.792  0.1771 -0.2536  0.7161
 1009TIP3    H224519   1.079   4.077   5.836  0.4503 -0.4730  0.8569
 1010TIP3   OH224520   2.424   6.615  12.206  0.5891  0.4853 -0.7147
 1010TIP3    H124521   2.417   6.709  12.189 -1.6724  0.5754  0.5819
 1010TIP3    H224522   2.441   6.576  12.120 -1.3191  1.8146 -1.7312
 1011TIP3   OH224523   4.848   0.451  14.567  0.0804  0.4187  0.1789
 1011TIP3    H124524   4.773   0.499  14.604  0.5476  0.2005  1.4496
 1011TIP3    H224525   4.839   0.462  14.473 -1.7913  0.0570  0.2853
 1012TIP3   OH224526   1.246   3.425   0.140 -0.1847 -0.2668 -0.1856
 1012TIP3    H124527   1.186   3.406   0.068  1.6039 -0.4915 -1.6716
 1012TIP3    H224528   1.279   3.339   0.167 -2.3637 -0.3801  2.3136
 1013TIP3   OH224529   2.821   6.497   6.070 -0.3850 -0.2913 -0.0891
 1013TIP3    H124530   2.782   6.568   6.121  1.1884  1.0371 -0.6917
 1013TIP3    H224531   2.753   6.471   6.008 -1.1261  0.3732  0.4423
 1014TIP3   OH224532   2.287   5.537  12.866  0.0715 -0.6210  0.4810
 1014TIP3    H124533   2.371   5.505  12.833  0.6317 -1.3478  2.5091
 1014TIP3    H224534   2.306   5.564  12.956 -1.4934  0.8556  0.3837
 1015TIP3   OH224535   4.913   3.352  13.834 -0.0270 -0.1992 -0.6120
 1015TIP3    H124536   4.964   3.316  13.762  2.1028  1.0400  0.2274
 1015TIP3    H224537   4.972   3.415  13.877 -2.5064  1.8619 -0.0656
 1016TIP3   OH224538   4.897   4.196  11.211  0.2707 -0.0758  0.2579
 1016TIP3    H124539   4.925   4.252  11.283 -1.3528  2.9535 -1.3594
 1016TIP3    H224540   4.803   4.211  11.204  0.2667 -0.9106 -1.9805
 1017TIP3   OH224541   4.920   3.653   5.925  0.3277  0.0705 -0.2046
 1017TIP3    H124542   4.893   3.744   5.940  1.7843  0.3362  0.9315
 1017TIP3    H224543   4.885   3.605   6.000 -1.5476 -0.5681 -1.4544
 1018TIP3   OH224544   5.660   5.654   2.316 -0.8772  0.3070  0.0236
 1018TIP3    H124545   5.603   5.602   2.372 -1.3409  0.5571 -0.2156
 1018TIP3    H224546   5.695   5.722   2.374  0.5381 -0.8706  0.5890
 1019TIP3   OH224547   5.922   6.246   2.791 -0.7437 -0.4288  0.2688
 1019TIP3    H124548   5.987   6.265   2.723 -0.1497 -1.5077  0.5319
 1019TIP3    H224549   5.845   6.216   2.743 -1.4955  2.0150 -0.1215
 1020TIP3   OH224550   2.765   3.107  14.543  0.5171  0.2050  0.1309
 1020TIP3    H124551   2.737   3.066  14.625  0.5015 -0.4057 -0.1798
 1020TIP3    H224552   2.775   3.200  14.565  0.2727  0.0840  0.7616
 1021TIP3   OH224553   0.673   5.219  12.212 -0.7937 -0.2819 -0.0667
 1021TIP3    H124554   0.688   5.127  12.191  0.5493  0.0719 -0.6891
 1021TIP3    H224555   0.742   5.243  12.273 -0.4934  0.5935 -0.7306
 1022TIP3   OH224556   1.659   1.133  15.118  0.2498  0.5157 -0.2085
 1022TIP3    H124557   1.668   1.039  15.128 -2.5011  0.3561  1.3037
 1022TIP3    H224558   1.706   1.170  15.193 -0.7891  0.2216  0.5995
 1023TIP3   OH224559   1.593   4.303  16.970  0.0252  0.3161 -0.0525
 1023TIP3    H124560   1.623   4.319  17.059 -0.8773  0.1425  0.2851
 1023TIP3    H224561   1.668   4.263  16.927  0.5253  0.5647  0.5792
 1024TIP3   OH224562   1.075   5.778   4.533  0.3282 -0.5072 -0.1624
 1024TIP3    H124563   1.171   5.776   4.533  0.3210 -1.0105 -0.2979
 1024TIP3    H224564   1.052   5.791   4.624  0.5198 -0.8701 -0.0613
 1025TIP3   OH224565   1.288   1.465  14.854 -0.2470  0.4801 -0.2917
 1025TIP3    H124566   1.377   1.477  14.886  0.0096  1.6516 -1.3848
 1025TIP3    H224567   1.235   1.460  14.933  0.8207 -0.6168  0.3750
 1026TIP3   OH224568   0.124   1.275  13.321 -0.0177 -0.3528 -0.1232
 1026TIP3    H124569   0.071   1.282  13.401  0.1463 -1.4479  0.0883
 1026TIP3    H224570   0.075   1.323  13.255 -1.1137 -1.0554  0.1617
 1027TIP3   OH224571   0.790   4.364   0.712 -0.2943 -0.3997  0.1341
 1027TIP3    H124572   0.841   4.442   0.691  0.2220 -0.8225 -0.2157
 1027TIP3    H224573   0.819   4.339   0.800  1.1637 -1.4479 -0.6103
 1028TIP3   OH224574   2.570   3.476  12.690  0.0300 -0.9966 -0.4638
 1028TIP3    H124575   2.656   3.438  12.710 -0.0356 -0.6076  0.6318
 1028TIP3    H224576   2.507   3.414  12.726 -0.0967 -0.3904  0.3897
 1029TIP3   OH224577   0.814   5.188   4.086 -0.2686 -0.6225 -0.4943
 1029TIP3    H124578   0.800   5.096   4.109  0.5302 -0.5041  0.4668
 1029TIP3    H224579   0.901   5.190   4.046 -0.3266 -0.2920 -0.6016
 1030TIP3   OH224580   3.929   4.345  11.460  0.6530 -0.0783 -0.0556
 1030TIP3    H124581   3.952   4.398  11.536  0.4194 -0.0038 -0.0385
 1030TIP3    H224582   4.010   4.298  11.439  1.4500  1.7535 -1.2656
 1031TIP3   OH224583   1.174   4.952   2.444 -0.5403  0.2807 -0.2287
 1031TIP3    H124584   1.193   4.876   2.389  1.7660  0.9963 -0.4694
 1031TIP3    H224585   1.256   5.001   2.446 -0.7758  0.6595  3.2514
 1032TIP3   OH224586   1.315   5.504   4.456  0.1162  0.2406  0.2026
 1032TIP3    H124587   1.362   5.453   4.523 -0.8476  0.1099  0.7928
 1032TIP3    H224588   1.225   5.471   4.460 -0.4237  1.7187  0.3200
 1033TIP3   OH224589   3.111   4.672  15.980  0.6329 -0.3633 -0.7561
 1033TIP3    H124590   3.079   4.605  15.920 -1.0074 -0.0174 -0.2977
 1033TIP3    H224591   3.201   4.688  15.952  1.0812 -2.8014 -0.8088
 1034TIP3   OH224592   4.203   1.566   3.796  0.8610  0.4775  0.2422
 1034TIP3    H124593   4.212   1.480   3.755 -0.1805  0.0030  0.9752
 1034TIP3    H224594   4.165   1.547   3.882  0.2898  1.7072  0.2711
 1035TIP3   OH224595   3.923   4.042  12.905 -0.1925 -0.4478  0.6095
 1035TIP3    H124596   4.011   4.004  12.913 -0.1453 -0.5106 -0.1800
 1035TIP3    H224597   3.895   4.057  12.996  0.6408 -0.4036  0.8619
 1036TIP3   OH224598   6.686   3.105  15.235 -0.5099 -0.0302 -0.2480
 1036TIP3    H124599   6.720   3.194  15.223 -1.4921  0.4913  0.7589
 1036TIP3    H224600   6.736   3.069  15.308 -0.9209  0.1278  0.1169
 1037TIP3   OH224601   1.200   6.158  16.623 -0.0176  0.0562 -0.1760
 1037TIP3    H124602   1.114   6.163  16.581 -0.0305  0.1589 -0.1364
 1037TIP3    H224603   1.237   6.075  16.592  0.4903  0.7265 -1.3951
 1038TIP3   OH224604   6.422   6.703   1.582 -0.1759 -0.0337 -0.1178
 1038TIP3    H124605   6.422   6.797   1.600 -1.4535  0.0351 -0.4342
 1038TIP3    H224606   6.343   6.670   1.625 -0.6504 -0.6714 -1.4534
 1039TIP3   OH224607   4.448   5.856   3.426 -0.4175  0.4257 -0.0882
 1039TIP3    H124608   4.458   5.859   3.521  1.2622  0.0938 -0.2481
 1039TIP3    H224609   4.362   5.815   3.413  0.0436 -1.0328  1.2606
 1040TIP3   OH224610   0.239   0.269  14.366 -0.1828 -0.0295  0.2472
 1040TIP3    H124611   0.250   0.175  14.376 -1.5566 -0.0190  2.0260
 1040TIP3    H224612   0.165   0.279  14.306  0.6206 -0.0577 -0.7748
 1041TIP3   OH224613   3.299   0.493  13.315 -0.5891  0.4499 -0.1310
 1041TIP3    H124614   3.359   0.471  13.387 -1.5410  0.9152  0.8268
 1041TIP3    H224615   3.349   0.551  13.258 -0.3651  1.4584  1.0761
 1042TIP3   OH224616   0.100   5.557   4.206 -0.4160 -0.0568  0.0323
 1042TIP3    H124617   0.126   5.646   4.184  1.2457 -0.2437  1.2168
 1042TIP3    H224618   0.130   5.505   4.131  0.9562  0.0012  0.5343
 1043TIP3   OH224619   0.309   4.285  13.591 -0.7134  0.6323 -0.0901
 1043TIP3    H124620   0.219   4.283  13.624 -0.7665 -0.8290 -0.3086
 1043TIP3    H224621   0.316   4.208  13.534  1.0005  0.1013  0.7925
 1044TIP3   OH224622   2.070   3.009  15.910 -0.5390 -0.0581  0.2693
 1044TIP3    H124623   2.055   2.915  15.923 -0.3611 -0.0370  0.6408
 1044TIP3    H224624   1.984   3.045  15.890 -0.0014 -0.9813 -4.1533
 1045TIP3   OH224625   0.784   5.038  13.744  0.5894 -0.1900 -0.2795
 1045TIP3    H124626   0.794   4.991  13.661  1.3184 -1.8340  0.7127
 1045TIP3    H224627   0.840   4.990  13.805 -1.6975 -0.3952  1.7178
 1046TIP3   OH224628   6.370   2.676  13.920 -0.1484  0.3831 -0.2907
 1046TIP3    H124629   6.318   2.602  13.950 -0.8163  0.7503 -0.5268
 1046TIP3    H224630   6.311   2.726  13.864 -1.0100  3.2337  2.9510
 1047TIP3   OH224631   4.922   5.925   6.016 -0.3816 -0.1407 -0.0205
 1047TIP3    H124632   4.883   5.885   5.938 -0.0950 -1.5590  0.5452
 1047TIP3    H224633   4.902   6.018   6.008 -0.8742 -0.3596 -1.4839
 1048TIP3   OH224634   2.110   5.608   3.521  0.1028 -0.3145 -0.0549
 1048TIP3    H124635   2.196   5.607   3.561  0.0790  1.8301  0.1131
 1048TIP3    H224636   2.057   5.549   3.574  0.4498  1.3774  2.2288
 1049TIP3   OH224637   0.825   0.898  13.036 -0.2059 -0.0096 -0.0919
 1049TIP3    H124638   0.777   0.817  13.020 -0.1727  0.0849 -0.6618
 1049TIP3    H224639   0.820   0.910  13.131  0.2373 -0.9642  0.0607
 1050TIP3   OH224640   4.314   1.387  11.061 -0.0610  0.3939  0.7100
 1050TIP3    H124641   4.298   1.346  10.976 -2.0796  0.4882  1.0106
 1050TIP3    H224642   4.404   1.362  11.083 -0.6428 -2.5236  0.0978
 1051TIP3   OH224643   4.276   2.290   3.227 -0.8135  0.1579  0.0768
 1051TIP3    H124644   4.192   2.276   3.271  0.6385 -1.3551  2.4845
 1051TIP3    H224645   4.287   2.213   3.171 -0.0075 -0.8230  1.5333
 1052TIP3   OH224646   1.653   5.766   4.314 -0.3587  0.4621  0.2749
 1052TIP3    H124647   1.655   5.840   4.253 -0.9113  0.3398  0.1088
 1052TIP3    H224648   1.654   5.688   4.257 -1.1150  0.3504  0.4186
 1053TIP3   OH224649   3.107   1.796  13.456  0.1109  0.0084 -0.4615
 1053TIP3    H124650   3.063   1.712  13.447  0.1247 -0.2054  1.3185
 1053TIP3    H224651   3.049   1.858  13.412 -1.9045 -0.2934  1.7118
 1054TIP3   OH224652   3.510   2.088   4.552  0.0691  0.3656 -0.3102
 1054TIP3    H124653   3.551   2.082   4.466 -0.7182  3.6975 -0.9969
 1054TIP3    H224654   3.416   2.089   4.534 -0.1059  0.9800  0.5847
 1055TIP3   OH224655   5.263   5.533  17.052  0.1405  0.2228  0.1425
 1055TIP3    H124656   5.229   5.623  17.052  1.0683  0.5780 -1.0108
 1055TIP3    H224657   5.256   5.505  17.143  1.3059  2.0197  0.8077
 1056TIP3   OH224658   2.387   0.063  13.762  0.3769 -0.0192  0.8360
 1056TIP3    H124659   2.340   0.132  13.808 -0.6030  0.0903 -0.3117
 1056TIP3    H224660   2.349  -0.018  13.796 -0.2401  0.0589  0.3396
 1057TIP3   OH224661   1.762   0.211  14.152 -0.1919  0.3031 -0.0358
 1057TIP3    H124662   1.668   0.206  14.135 -0.6114  1.6602  1.7635
 1057TIP3    H224663   1.784   0.126  14.190 -0.4435 -0.4400 -1.5061
 1058TIP3   OH224664   4.190   1.916  11.836 -0.0729 -0.0758 -0.5774
 1058TIP3    H124665   4.120   1.978  11.815 -0.2430 -0.3887 -0.9350
 1058TIP3    H224666   4.210   1.933  11.928 -1.0721 -0.4344 -0.2884
 1059TIP3   OH224667   1.455   1.698   0.919  0.2265 -0.4732  0.3538
 1059TIP3    H124668   1.363   1.716   0.938  0.5413 -1.7961  3.4593
 1059TIP3    H224669   1.453   1.630   0.852 -1.0896 -0.5062  0.4060
 1060TIP3   OH224670   3.812   2.767  11.390  0.1990 -0.1661 -0.8623
 1060TIP3    H124671   3.733   2.753  11.339 -0.2030 -1.2475  0.0253
 1060TIP3    H224672   3.883   2.735  11.335 -0.1948 -0.9852 -0.8965
 1061TIP3   OH224673   6.610   2.683  15.229  0.0417  0.6043 -0.1009
 1061TIP3    H124674   6.522   2.653  15.254 -0.3674  3.4204  2.1055
 1061TIP3    H224675   6.594   2.767  15.185  1.6800  1.5544  1.0875
 1062TIP3   OH224676   3.399   6.135   4.716 -0.0293  0.0875 -0.6219
 1062TIP3    H124677   3.348   6.054   4.721  0.9273 -0.4979  0.0441
 1062TIP3    H224678   3.342   6.201   4.755 -0.8114 -0.2685 -1.1407
 1063TIP3   OH224679   1.993   4.058  11.054  0.4318  0.3619 -0.2352
 1063TIP3    H124680   2.056   4.120  11.018  0.0300  0.5485 -0.6158
 1063TIP3    H224681   1.920   4.059  10.992  1.0634 -1.6015 -1.0499
 1064TIP3   OH224682   6.322   4.855  11.027 -0.0735 -0.0173 -0.4185
 1064TIP3    H124683   6.260   4.847  10.956  2.6921  0.4872 -2.9781
 1064TIP3    H224684   6.329   4.949  11.043  1.3570  0.0749 -1.4295
 1065TIP3   OH224685   5.148   1.794  15.865  0.0964  0.4515 -0.5489
 1065TIP3    H124686   5.141   1.854  15.791 -1.0515  0.7629 -0.1988
 1065TIP3    H224687   5.059   1.759  15.876  0.3153  0.2015  0.5035
 1066TIP3   OH224688   4.396   3.998  15.127 -0.0511 -0.0428  0.1477
 1066TIP3    H124689   4.313   3.988  15.080  0.4742  0.3109 -0.8513
 1066TIP3    H224690   4.375   3.973  15.217 -1.2745  0.1709 -0.0709
 1067TIP3   OH224691   1.962   2.309   0.090 -0.5192  0.0364 -0.3342
 1067TIP3    H124692   2.018   2.334   0.016  0.8963  0.4080  0.8303
 1067TIP3    H224693   1.995   2.361   0.163 -1.0961 -1.2266  0.8387
 1068TIP3   OH224694   3.371   2.649  12.481  0.6492 -0.4630  0.1211
 1068TIP3    H124695   3.356   2.585  12.411 -1.1796  1.2813 -1.1377
 1068TIP3    H224696   3.429   2.714  12.441  1.3475 -0.5946  0.9253
 1069TIP3   OH224697   3.035   5.246  16.392 -0.1038  0.4070  0.3092
 1069TIP3    H124698   2.993   5.326  16.360 -0.5024  0.4525  0.9398
 1069TIP3    H224699   3.049   5.262  16.485  0.2251 -0.0858  0.3451
 1070TIP3   OH224700   4.629   3.000   3.981 -0.4725  0.2741  0.8432
 1070TIP3    H124701   4.573   2.994   3.904 -0.0448 -2.5786  0.7014
 1070TIP3    H224702   4.716   2.975   3.950 -0.8486 -3.8261  2.7546
 1071TIP3   OH224703   5.767   0.216  15.711 -0.3606 -0.1727 -0.1371
 1071TIP3    H124704   5.704   0.202  15.783 -0.5544  1.5848  0.0596
 1071TIP3    H224705   5.729   0.288  15.660  0.5290 -0.4036 -1.1361
 1072TIP3   OH224706   0.601   6.588   6.183  0.1276  0.3601 -0.0383
 1072TIP3    H124707   0.506   6.573   6.188  0.2700  0.2710  3.4995
 1072TIP3    H224708   0.632   6.517   6.126 -1.6797 -0.9109  0.4846
 1073TIP3   OH224709   6.262   0.652   3.637 -0.0567  0.1368 -0.4352
 1073TIP3    H124710   6.328   0.582   3.632  1.5220  1.5622 -0.1236
 1073TIP3    H224711   6.270   0.685   3.727 -3.0181 -1.3729  0.4377
 1074TIP3   OH224712   2.152   2.322  13.272 -0.4411 -0.6971  0.1625
 1074TIP3    H124713   2.240   2.356  13.256  0.1617 -2.5255 -0.5363
 1074TIP3    H224714   2.095   2.381  13.223  0.6006 -0.7250 -1.1457
 1075TIP3   OH224715   6.804   2.802   5.412  0.0615  0.2231  0.1527
 1075TIP3    H124716   6.713   2.776   5.395  0.6400 -1.6594 -0.2110
 1075TIP3    H224717   6.833   2.843   5.331 -0.2560  0.2314  0.0397
 1076TIP3   OH224718   4.508   1.114  14.747 -0.4855  0.0757 -0.4089
 1076TIP3    H124719   4.482   1.132  14.657 -1.5881 -0.6469 -0.2446
 1076TIP3    H224720   4.548   1.027  14.744 -2.0676 -0.6853  0.0755
 1077TIP3   OH224721   1.878   2.010   3.410 -0.3330  0.0149 -0.5302
 1077TIP3    H124722   1.909   2.070   3.342  0.8830 -1.8824 -1.7050
 1077TIP3    H224723   1.790   1.985   3.381 -0.5686  0.6922 -0.3989
 1078TIP3   OH224724   0.746   6.601  13.059 -0.5308  0.1406  0.2157
 1078TIP3    H124725   0.735   6.665  12.988 -0.9675 -0.0780  0.0873
 1078TIP3    H224726   0.689   6.529  13.035 -0.0201 -0.3126  0.3550
 1079TIP3   OH224727   1.908   5.825   2.211  0.8809  0.0929  0.0048
 1079TIP3    H124728   1.993   5.861   2.187  0.8197  1.5547  1.9154
 1079TIP3    H224729   1.917   5.801   2.303 -1.1159  1.3236  0.5574
 1080TIP3   OH224730   0.695   5.191   2.760 -0.9227 -0.7163 -1.1964
 1080TIP3    H124731   0.725   5.258   2.821 -0.1991 -1.7406 -0.4048
 1080TIP3    H224732   0.616   5.154   2.800  1.3518 -3.6329  0.7971
 1081TIP3   OH224733   3.292   5.051  12.696  0.0154  0.1606 -0.0017
 1081TIP3    H124734   3.350   4.983  12.729 -0.2182  0.1960  0.4891
 1081TIP3    H224735   3.207   5.007  12.686 -0.2208  0.4576  0.6455
 1082TIP3   OH224736   5.951   0.257  15.030 -0.2470  0.5235  0.4275
 1082TIP3    H124737   5.916   0.172  15.057  1.5185 -0.5947 -0.6427
 1082TIP3    H224738   6.042   0.256  15.062  1.3362 -0.0964 -3.7447
 1083TIP3   OH224739   0.929   2.184  13.887  0.0653  0.1829  0.1883
 1083TIP3    H124740   0.997   2.117  13.883 -0.7570 -0.6439 -0.2179
 1083TIP3    H224741   0.976   2.266  13.877  1.0082 -0.3720 -0.0473
 1084TIP3   OH224742   0.363   0.676   3.171 -0.5637  0.4387 -0.6707
 1084TIP3    H124743   0.367   0.731   3.093 -0.9246  4.1327  1.8469
 1084TIP3    H224744   0.453   0.676   3.205 -0.5868 -0.4741 -0.5870
 1085TIP3   OH224745   4.750   0.654   4.797 -0.3532  0.5030 -0.1817
 1085TIP3    H124746   4.762   0.670   4.703  0.6036  1.9680  0.1740
 1085TIP3    H224747   4.689   0.722   4.825 -1.4613 -0.5766  0.0723
 1086TIP3   OH224748   2.490   4.987  14.181  0.3130  0.0180 -0.1235
 1086TIP3    H124749   2.396   4.995  14.165  0.2515 -0.5957 -0.0936
 1086TIP3    H224750   2.498   4.912  14.240  0.7319  0.7571  0.7666
 1087TIP3   OH224751   5.391   4.451  15.355  0.1404  0.3214 -0.7926
 1087TIP3    H124752   5.314   4.426  15.406  0.7003 -0.5593 -0.3716
 1087TIP3    H224753   5.452   4.485  15.420  1.3275 -1.9367 -0.6894
 1088TIP3   OH224754   6.595   5.699   2.724  0.3723  0.3551  0.0039
 1088TIP3    H124755   6.584   5.668   2.814  1.2303  1.6256  0.5777
 1088TIP3    H224756   6.536   5.774   2.717  0.8355  0.7002 -0.2554
 1089TIP3   OH224757   5.498   0.547  11.545 -0.2413 -0.5318 -0.0829
 1089TIP3    H124758   5.585   0.510  11.559  0.5875  0.1989 -3.0152
 1089TIP3    H224759   5.443   0.471  11.527  0.7087 -0.7261 -2.4254
 1090TIP3   OH224760   0.827   1.822   3.472  0.0839 -0.7324 -0.5965
 1090TIP3    H124761   0.741   1.815   3.514  0.1248 -0.6297 -0.4980
 1090TIP3    H224762   0.813   1.881   3.399 -0.1161 -1.3412 -1.0578
 1091TIP3   OH224763   5.283   1.866   4.081  0.0231 -0.2832  0.4916
 1091TIP3    H124764   5.281   1.921   4.002  1.1115 -1.6973 -0.5465
 1091TIP3    H224765   5.368   1.883   4.120 -0.6082  0.5965  1.5345
 1092TIP3   OH224766   5.048   2.067   5.922  0.2633  0.0581  0.1268
 1092TIP3    H124767   5.058   1.990   5.977  1.5778 -0.8533 -1.3494
 1092TIP3    H224768   4.960   2.099   5.942  1.2275  0.6629  3.8628
 1093TIP3   OH224769   5.858   4.152   1.667  0.3787  0.1697 -0.0317
 1093TIP3    H124770   5.935   4.189   1.624  1.4166 -0.3321  1.3758
 1093TIP3    H224771   5.836   4.075   1.614  0.5704  0.5546 -0.6817
 1094TIP3   OH224772   4.383   3.376   0.359  0.3515  0.2769  0.2447
 1094TIP3    H124773   4.364   3.372   0.265 -1.6017  1.7300  0.5516
 1094TIP3    H224774   4.342   3.297   0.395  0.1568  0.2840  0.0387
 1095TIP3   OH224775   5.560   4.169   2.155 -0.2172 -0.3075  0.6322
 1095TIP3    H124776   5.492   4.184   2.220 -0.9471  0.8248 -0.3562
 1095TIP3    H224777   5.543   4.235   2.088 -0.5793 -2.5849 -1.5861
 1096TIP3   OH224778   2.917   3.601   0.619 -0.1821  0.0407  0.1507
 1096TIP3    H124779   3.000   3.599   0.570 -0.0846 -0.8593  0.3375
 1096TIP3    H224780   2.914   3.688   0.658  1.2348 -0.2991  1.0767
 1097TIP3   OH224781   5.142   3.409   1.160  0.5252 -1.0784  0.2629
 1097TIP3    H124782   5.051   3.380   1.158 -0.2397  1.2235 -0.2173
 1097TIP3    H224783   5.157   3.447   1.073  1.6756 -0.6303  0.6389
 1098TIP3   OH224784   2.057   6.526  12.752 -0.0092 -0.3832  0.0052
 1098TIP3    H124785   2.020   6.529  12.664  1.2105  0.0702 -0.5027
 1098TIP3    H224786   2.136   6.580  12.747  1.0515 -1.7990  0.9030
 1099TIP3   OH224787   5.830   2.421   3.992 -0.3427 -0.4019  0.3021
 1099TIP3    H124788   5.738   2.397   3.983 -0.7991  1.3446  0.0525
 1099TIP3    H224789   5.866   2.412   3.904 -0.5275 -0.1375  0.1971
 1100TIP3   OH224790   1.307   2.955  15.151  0.3285 -0.0020 -0.2208
 1100TIP3    H124791   1.265   3.031  15.109  0.4967  0.3209  0.1852
 1100TIP3    H224792   1.241   2.922  15.212 -0.0673 -0.7230 -1.0274
 1101TIP3   OH224793   3.054   5.609  11.191  0.0172  0.3968 -0.1019
 1101TIP3    H124794   3.138   5.563  11.182 -1.0530 -1.2690 -2.0238
 1101TIP3    H224795   2.994   5.543  11.225 -0.9968  0.9990 -0.6952
 1102TIP3   OH224796   4.294   2.678  13.452 -0.0247  0.1004  0.1309
 1102TIP3    H124797   4.388   2.689  13.467  0.0800  0.9848 -1.0731
 1102TIP3    H224798   4.265   2.620  13.522  1.8390 -2.0110 -0.7758
 1103TIP3   OH224799   2.354   6.630   2.139  0.1407 -0.1424  1.0153
 1103TIP3    H124800   2.392   6.559   2.087  0.4278  0.4492  0.4201
 1103TIP3    H224801   2.354   6.706   2.081 -0.2095  0.3401  1.6371
 1104TIP3   OH224802   4.600   2.819   6.623  0.3749  0.4429 -0.1648
 1104TIP3    H124803   4.694   2.825   6.606  0.3654  0.0417 -0.3405
 1104TIP3    H224804   4.591   2.748   6.687  0.3647  1.6139  1.1702
 1105TIP3   OH224805   0.204   2.085   4.652 -1.0572  0.2508 -0.6527
 1105TIP3    H124806   0.146   2.136   4.595 -0.1606  2.2881  0.1809
 1105TIP3    H224807   0.238   2.150   4.714 -0.7097 -1.5989  1.1410
 1106TIP3   OH224808   2.118   0.660   6.322 -0.6259 -0.1457  0.4088
 1106TIP3    H124809   2.065   0.734   6.355  0.6352  1.8073 -1.7775
 1106TIP3    H224810   2.157   0.693   6.242  1.1631 -2.7542  0.1531
 1107TIP3   OH224811   6.205   4.981   1.526 -0.6820 -0.0901 -0.0947
 1107TIP3    H124812   6.235   4.941   1.608 -2.5344  0.1453  0.7257
 1107TIP3    H224813   6.206   5.075   1.543 -0.4679 -0.0046 -0.5625
 1108TIP3   OH224814   1.733   6.676   4.430 -0.0448 -0.3802 -0.0457
 1108TIP3    H124815   1.762   6.720   4.510  0.5049 -0.9237  0.0614
 1108TIP3    H224816   1.805   6.617   4.408  1.1002  1.8790 -2.6138
 1109TIP3   OH224817   5.797   1.985  12.135  0.5524 -0.0270 -0.4561
 1109TIP3    H124818   5.813   1.915  12.072 -2.4473  0.2088 -1.5908
 1109TIP3    H224819   5.740   2.047  12.088  0.3152  1.4167  1.6576
 1110TIP3   OH224820   1.828   4.287   0.865 -0.2518  0.2006  0.1173
 1110TIP3    H124821   1.887   4.268   0.792 -0.9908 -1.0670 -0.1596
 1110TIP3    H224822   1.752   4.231   0.851 -0.7762  0.5546  1.4107
 1111TIP3   OH224823   2.981   6.560  16.352  0.1684  0.1766 -0.0752
 1111TIP3    H124824   2.976   6.570  16.447 -0.5609  3.9004 -0.4466
 1111TIP3    H224825   2.907   6.505  16.329 -0.6927  0.7258  1.3531
 1112TIP3   OH224826   2.499   6.329  16.888 -0.4727 -0.3154 -0.4344
 1112TIP3    H124827   2.429   6.380  16.847  0.2826 -0.1076 -1.5000
 1112TIP3    H224828   2.484   6.239  16.859  0.1065 -0.1563 -1.2296
 1113TIP3   OH224829   1.311   3.600  16.091  0.0617  0.4902 -0.9780
 1113TIP3    H124830   1.316   3.531  16.024 -1.0880  0.3856 -0.9554
 1113TIP3    H224831   1.401   3.634  16.096  0.8915 -1.7511 -0.1858
 1114TIP3   OH224832   2.286   4.728  15.208  0.0663  0.0592 -0.0527
 1114TIP3    H124833   2.274   4.666  15.280 -0.1310 -0.5019 -0.5678
 1114TIP3    H224834   2.325   4.805  15.249  0.4505 -0.4621  0.5684
 1115TIP3   OH224835   6.589   4.854   2.181  0.3552  0.2008 -0.1197
 1115TIP3    H124836   6.496   4.877   2.183  0.6583  1.4805 -0.5371
 1115TIP3    H224837   6.606   4.818   2.268 -0.3910  0.5329  0.1700
 1116TIP3   OH224838   3.819   0.925  15.061  0.4446  0.3486  0.0514
 1116TIP3    H124839   3.888   0.865  15.032 -0.8428 -0.6022 -1.1040
 1116TIP3    H224840   3.738   0.874  15.055 -0.9553  2.7212 -2.7703
 1117TIP3   OH224841   6.281   4.008  11.748 -0.6751  0.0563  0.2375
 1117TIP3    H124842   6.320   3.921  11.758 -3.0279 -0.9907  0.5976
 1117TIP3    H224843   6.349   4.069  11.778  1.9163 -1.4744 -2.2674
 1118TIP3   OH224844   0.719   6.600   4.545 -0.3848 -0.5889  0.4148
 1118TIP3    H124845   0.702   6.693   4.533 -0.3101 -0.8217 -1.7474
 1118TIP3    H224846   0.752   6.570   4.460  2.0855 -2.0603  1.8143
 1119TIP3   OH224847   4.040   0.440   3.970 -0.2568 -0.3764  0.1384
 1119TIP3    H124848   4.012   0.494   3.895 -0.0931 -1.2368 -0.5450
 1119TIP3    H224849   3.973   0.373   3.978  1.6078 -2.5124 -1.5661
 1120TIP3   OH224850   4.364   4.647   2.819  0.2262  0.8498 -0.2776
 1120TIP3    H124851   4.305   4.677   2.889  1.8507  0.8838  1.0915
 1120TIP3    H224852   4.354   4.552   2.820  1.1319  0.7544  0.8151
 1121TIP3   OH224853   4.552   3.227   0.729 -0.3738  0.1053  0.6050
 1121TIP3    H124854   4.572   3.218   0.636 -0.6876 -2.5110  0.7406
 1121TIP3    H224855   4.637   3.240   0.771 -0.3689  2.8730 -0.1583
 1122TIP3   OH224856   5.337   0.592   6.082 -0.8448 -0.1112 -0.1832
 1122TIP3    H124857   5.298   0.675   6.055 -0.8036 -0.4339 -1.2207
 1122TIP3    H224858   5.324   0.533   6.008 -0.2617 -0.8358  0.2800
 1123TIP3   OH224859   4.762   6.578   4.900  0.6970 -0.1592 -0.1437
 1123TIP3    H124860   4.695   6.628   4.946  0.1875 -0.0434 -1.0075
 1123TIP3    H224861   4.763   6.615   4.811  2.0240 -0.0280 -0.0916
 1124TIP3   OH224862   3.947   2.862  15.832  0.0371  0.2493  0.5682
 1124TIP3    H124863   3.964   2.843  15.924  0.3167  0.6601  0.6031
 1124TIP3    H224864   4.027   2.904  15.801 -0.2181  0.5034  0.2502
 1125TIP3   OH224865   0.581   3.393  16.608  0.0579 -0.2071 -0.7704
 1125TIP3    H124866   0.531   3.469  16.638 -0.1624 -1.3254  1.8477
 1125TIP3    H224867   0.528   3.355  16.538 -1.7683 -0.2105  0.5915
 1126TIP3   OH224868   2.268   1.630   2.446 -0.0993 -0.3114 -0.2949
 1126TIP3    H124869   2.290   1.634   2.539  0.2879 -0.8817 -0.3606
 1126TIP3    H224870   2.272   1.721   2.416  1.7425 -0.3554 -0.2087
 1127TIP3   OH224871   6.561   5.056  14.908 -0.2066  0.7672  0.2416
 1127TIP3    H124872   6.504   5.014  14.973 -0.0980 -0.0614 -0.1870
 1127TIP3    H224873   6.501   5.106  14.853 -0.2239  1.9982  1.3719
 1128TIP3   OH224874   5.143   4.817   5.566 -0.3687  0.2254 -0.3059
 1128TIP3    H124875   5.126   4.910   5.577  1.8871  0.3395  2.5507
 1128TIP3    H224876   5.056   4.776   5.566 -1.2096  1.9206  2.4861
 1129TIP3   OH224877   3.958   3.211  11.416 -0.7112 -0.4618  0.8250
 1129TIP3    H124878   3.933   3.152  11.344 -4.7537  1.2247  0.7153
 1129TIP3    H224879   3.891   3.196  11.483  0.8427  0.7612  2.7064
 1130TIP3   OH224880   2.681   0.839   2.609 -0.0961  0.0629 -0.4002
 1130TIP3    H124881   2.652   0.761   2.655  0.7389  0.9924  1.7910
 1130TIP3    H224882   2.634   0.838   2.526 -3.0864 -0.6921  1.2568
 1131TIP3   OH224883   6.460   5.645  15.831 -0.3745 -0.8139  0.1784
 1131TIP3    H124884   6.376   5.620  15.791  0.2944 -1.8373 -0.6140
 1131TIP3    H224885   6.435   5.701  15.904 -1.7816 -1.4470  0.2118
 1132TIP3   OH224886   3.806   2.735  16.456  0.8004  0.1256 -0.3016
 1132TIP3    H124887   3.839   2.688  16.532 -0.9065 -0.5657  0.0444
 1132TIP3    H224888   3.759   2.669  16.405 -0.4776  1.1588 -0.5079
 1133TIP3   OH224889   2.557   4.105   0.764 -0.0901  0.0754 -0.4966
 1133TIP3    H124890   2.509   4.180   0.799 -1.3801 -1.4731  1.1055
 1133TIP3    H224891   2.565   4.044   0.837 -0.0850 -1.8748 -2.0652
 1134TIP3   OH224892   0.182   0.798   2.779 -0.3901  0.0645 -0.5073
 1134TIP3    H124893   0.109   0.853   2.806 -0.1953  0.3772 -0.6171
 1134TIP3    H224894   0.141   0.718   2.746 -0.6215 -0.3624  0.7854
 1135TIP3   OH224895   1.779   3.362   1.843  0.0919 -0.1335 -0.5221
 1135TIP3    H124896   1.809   3.300   1.777 -0.3961  0.1999 -1.0724
 1135TIP3    H224897   1.805   3.447   1.809  1.1298 -0.0679  0.4364
 1136TIP3   OH224898   5.108   3.861  16.203  0.5221 -0.0898  0.2760
 1136TIP3    H124899   5.134   3.778  16.162  2.2491  0.9635 -0.8700
 1136TIP3    H224900   5.186   3.889  16.250 -0.0759  0.8517  0.7093
 1137TIP3   OH224901   3.529   6.147   5.680  0.1841 -0.2744  0.1781
 1137TIP3    H124902   3.564   6.225   5.637  0.4722  0.9088  2.5128
 1137TIP3    H224903   3.446   6.175   5.719 -0.7654 -1.7006 -0.7478
 1138TIP3   OH224904   4.559   6.111  15.391 -0.0760 -0.8209 -0.1938
 1138TIP3    H124905   4.585   6.180  15.329 -0.1557  1.9276  2.6881
 1138TIP3    H224906   4.636   6.098  15.446 -0.9567 -1.0736  0.9993
 1139TIP3   OH224907   6.280   5.094   4.247  0.0205  0.2045 -0.1890
 1139TIP3    H124908   6.355   5.139   4.286 -0.2151  0.9066 -0.5280
 1139TIP3    H224909   6.271   5.135   4.161 -1.0519  0.4518  0.0417
 1140TIP3   OH224910   1.788   2.893  17.022 -0.5425 -0.1699  0.7133
 1140TIP3    H124911   1.735   2.816  17.004 -0.7926  0.2534 -0.4082
 1140TIP3    H224912   1.777   2.949  16.945  1.1838  0.1270  0.6577
 1141TIP3   OH224913   6.778   2.216  11.917  0.0242  0.4516 -0.6199
 1141TIP3    H124914   6.737   2.130  11.908  0.0557  0.5524 -1.9126
 1141TIP3    H224915   6.716   2.276  11.875  0.2553  0.9774 -0.2062
 1142TIP3   OH224916   0.433   4.543  13.614 -0.1449  0.3367 -0.2735
 1142TIP3    H124917   0.489   4.540  13.536  1.5602 -0.6311  0.9509
 1142TIP3    H224918   0.400   4.454  13.623 -1.4384  0.7697 -0.6546
 1143TIP3   OH224919   2.271   2.579   4.723 -0.7887 -0.3856  0.4380
 1143TIP3    H124920   2.195   2.521   4.712 -0.1104 -1.0469 -0.9234
 1143TIP3    H224921   2.262   2.643   4.653 -1.7999  1.5020  2.2362
 1144TIP3   OH224922   4.581   1.798   1.433  0.1940  0.6341 -0.0607
 1144TIP3    H124923   4.651   1.792   1.498  1.2059 -1.7013 -1.3024
 1144TIP3    H224924   4.501   1.800   1.484  1.1240  2.9275  1.3738
 1145TIP3   OH224925   5.680   6.455   1.001 -0.3824  0.2595  0.2354
 1145TIP3    H124926   5.646   6.543   0.985 -1.3124 -0.2903 -0.9086
 1145TIP3    H224927   5.715   6.459   1.090 -1.4376  1.4733  0.6178
 1146TIP3   OH224928   4.983   2.568  12.244  0.4036  0.0638 -0.3478
 1146TIP3    H124929   4.899   2.572  12.289 -0.3245 -0.8452 -1.5922
 1146TIP3    H224930   4.990   2.478  12.214  2.8372 -0.4562  1.5961
 1147TIP3   OH224931   6.252   4.557  14.441  0.9682 -0.2722  0.0007
 1147TIP3    H124932   6.332   4.580  14.394  0.6729  1.6805  0.4064
 1147TIP3    H224933   6.267   4.587  14.530 -0.4115  0.5731 -0.0466
 1148TIP3   OH224934   6.477   0.514  11.211 -0.1763 -0.5153  0.5658
 1148TIP3    H124935   6.471   0.545  11.302  0.8259 -0.9410  0.7781
 1148TIP3    H224936   6.518   0.587  11.164  2.2017 -1.5061  1.0710
 1149TIP3   OH224937   4.358   3.752  12.520  0.8780 -0.0541  0.2440
 1149TIP3    H124938   4.356   3.812  12.446  0.3581  0.8075  0.9595
 1149TIP3    H224939   4.351   3.665  12.480 -2.1403  0.5095 -0.5655
 1150TIP3   OH224940   5.871   0.030   3.301  0.2202  0.6191  0.5434
 1150TIP3    H124941   5.915  -0.056   3.302 -0.7074  0.1364  0.2098
 1150TIP3    H224942   5.889   0.064   3.213 -0.7426  0.0674  0.1278
 1151TIP3   OH224943   2.161   5.957   4.935 -0.2196 -1.2573  0.2906
 1151TIP3    H124944   2.092   5.908   4.891 -1.0910  0.0310  0.1960
 1151TIP3    H224945   2.123   5.982   5.020  0.4278 -1.2664  0.5872
 1152TIP3   OH224946   6.234   2.330  16.474  0.1811 -0.6010  0.1132
 1152TIP3    H124947   6.227   2.245  16.431  1.3797  0.0625 -1.4746
 1152TIP3    H224948   6.320   2.363  16.447 -0.6820  1.5566 -0.1372
 1153TIP3   OH224949   3.961   3.095   1.585 -0.3246  0.0914  0.3590
 1153TIP3    H124950   3.897   3.091   1.657 -0.8092 -3.8615 -0.1899
 1153TIP3    H224951   3.907   3.099   1.506  0.0543 -2.5305 -0.0705
 1154TIP3   OH224952   4.443   1.549  10.710  0.4825 -0.0852  0.0971
 1154TIP3    H124953   4.497   1.485  10.664  1.1319 -0.2246  1.0254
 1154TIP3    H224954   4.354   1.530  10.681  1.0819  1.3252 -2.8599
 1155TIP3   OH224955   4.535   4.266  10.823 -0.2446  0.2518  1.1538
 1155TIP3    H124956   4.527   4.316  10.904 -0.9968 -0.8404  1.7789
 1155TIP3    H224957   4.616   4.297  10.783 -0.1183  1.1478  2.0842
 1156TIP3   OH224958   5.744   4.502  10.636  0.4590 -0.2012  0.1665
 1156TIP3    H124959   5.742   4.548  10.720 -0.6887  0.8923 -0.4466
 1156TIP3    H224960   5.656   4.512  10.600  0.3097 -2.4852 -0.2148
 1157TIP3   OH224961   3.249   5.635  15.608  0.2292 -0.1814  0.2690
 1157TIP3    H124962   3.172   5.600  15.562 -0.6827  0.9690  0.8932
 1157TIP3    H224963   3.323   5.613  15.551 -0.5384 -1.4028 -0.2844
 1158TIP3   OH224964   4.311   5.484   4.206  0.8324  0.3488 -0.2541
 1158TIP3    H124965   4.275   5.559   4.252  1.3566  1.9364 -2.3874
 1158TIP3    H224966   4.337   5.517   4.120 -0.6069 -2.6428 -1.9343
 1159TIP3   OH224967   3.856   2.806  12.616  0.2753  0.7212  0.4570
 1159TIP3    H124968   3.928   2.850  12.661 -1.0278  1.3919  1.9425
 1159TIP3    H224969   3.784   2.869  12.618 -0.5700 -0.2006 -0.3975
 1160TIP3   OH224970   5.601   2.830   0.312  0.3300 -0.0936 -0.4119
 1160TIP3    H124971   5.530   2.874   0.266  1.0042  0.9016 -0.5311
 1160TIP3    H224972   5.670   2.897   0.318  0.6171 -0.5061  1.1742
 1161TIP3   OH224973   3.382   3.965  12.231  0.4681 -0.3345  0.2112
 1161TIP3    H124974   3.378   4.044  12.285  0.0396 -0.1672 -0.0611
 1161TIP3    H224975   3.304   3.970  12.175  1.2552 -0.1524 -0.9046
 1162TIP3   OH224976   2.683   2.137   2.493  0.2472  0.6474  0.0674
 1162TIP3    H124977   2.739   2.198   2.540  0.6210  1.4844 -1.4164
 1162TIP3    H224978   2.603   2.187   2.474  0.9445  1.0249 -2.0031
 1163TIP3   OH224979   1.801   1.341  13.375  0.0054  0.3185 -0.1198
 1163TIP3    H124980   1.741   1.411  13.400 -0.8400  0.0194 -1.2605
 1163TIP3    H224981   1.746   1.263  13.369  0.7798 -0.2671  0.2635
 1164TIP3   OH224982   3.169   0.161   5.719 -0.5130 -0.4065 -0.5236
 1164TIP3    H124983   3.124   0.141   5.801  0.6278 -2.4463 -0.3511
 1164TIP3    H224984   3.103   0.202   5.664 -1.2868  1.0682  1.4347
 1165TIP3   OH224985   4.446   2.921   6.412  0.0905  0.3053  0.3139
 1165TIP3    H124986   4.499   2.979   6.356 -0.9939 -0.2103 -1.2844
 1165TIP3    H224987   4.507   2.892   6.480  0.8491  2.7296  0.7319
 1166TIP3   OH224988   5.093   0.021  12.627  0.5274 -0.7344 -0.2580
 1166TIP3    H124989   5.104   0.043  12.535  0.7243  0.2770  0.0031
 1166TIP3    H224990   5.012   0.064  12.653 -1.4467 -3.8778 -0.8257
 1167TIP3   OH224991   4.174   4.363  12.518 -0.0363  0.2086 -0.3345
 1167TIP3    H124992   4.253   4.350  12.570 -0.1232  2.0749  0.2802
 1167TIP3    H224993   4.112   4.299  12.553  0.6789 -0.1819  0.2433
 1168TIP3   OH224994   0.985   5.996   3.021  0.2878  0.1082 -0.7933
 1168TIP3    H124995   1.056   6.048   3.060  1.3282 -0.1224 -2.3444
 1168TIP3    H224996   1.027   5.913   2.997 -0.3447  0.2286 -2.3480
 1169TIP3   OH224997   1.563   2.743  16.850  0.8292 -0.3653 -0.0007
 1169TIP3    H124998   1.476   2.762  16.817  0.4961 -1.1081  0.4380
 1169TIP3    H224999   1.567   2.647  16.854  2.1870 -0.4013 -1.4190
 1170TIP3   OH225000   1.676   3.804  13.850  0.3833  0.6087 -0.3924
 1170TIP3    H125001   1.739   3.737  13.823  1.4529  1.5368 -0.2780
 1170TIP3    H225002   1.592   3.759  13.854  0.7445 -0.2580 -2.2295
 1171TIP3   OH225003   5.592   0.482  17.280 -0.2687  0.2310 -0.0855
 1171TIP3    H125004   5.667   0.510  17.333 -0.3949  0.5233 -0.0619
 1171TIP3    H225005   5.516   0.506  17.333 -0.4499  1.9675 -1.0998
 1172TIP3   OH225006   3.237   0.705  12.325 -0.3156 -0.0069 -0.4945
 1172TIP3    H125007   3.148   0.674  12.344 -0.5117  0.7651 -0.1649
 1172TIP3    H225008   3.226   0.796  12.296  0.2228 -0.3445 -1.8380
 1173TIP3   OH225009   3.358   5.030  15.113  0.0441 -0.3303 -0.1305
 1173TIP3    H125010   3.419   5.101  15.136  0.9444 -0.9296 -0.6461
 1173TIP3    H225011   3.369   5.019  15.018  0.3347 -1.5560  0.0430
 1174TIP3   OH225012   5.933   4.019   2.209  0.0480 -0.5957  0.0175
 1174TIP3    H125013   5.901   4.041   2.122 -0.5055  2.1959  0.8781
 1174TIP3    H225014   6.002   4.083   2.227  0.1953 -1.1674  1.6095
 1175TIP3   OH225015   1.971   4.018  11.455 -0.2583 -0.4851  0.6468
 1175TIP3    H125016   1.990   3.938  11.504 -1.8288 -0.1812  1.7729
 1175TIP3    H225017   1.946   3.987  11.368  3.0732 -1.0047 -0.1935
 1176TIP3   OH225018   1.936   1.208  11.656 -0.2472 -0.3198 -0.0739
 1176TIP3    H125019   1.915   1.299  11.635 -0.5530 -0.3776 -0.0168
 1176TIP3    H225020   2.008   1.213  11.719  0.5515 -0.1372 -0.9820
 1177TIP3   OH225021   2.224   0.576   0.022 -0.5101 -0.7266 -0.6264
 1177TIP3    H125022   2.229   0.662  -0.020  0.7675 -0.0697  0.8307
 1177TIP3    H225023   2.233   0.514  -0.051  2.3351  0.3980 -1.3063
 1178TIP3   OH225024   5.561   5.901   0.659  0.4449  0.0805  0.1607
 1178TIP3    H125025   5.636   5.879   0.716  0.2342 -2.9829 -0.6302
 1178TIP3    H225026   5.491   5.843   0.689 -0.6374  0.6713 -1.1785
 1179TIP3   OH225027   4.310   0.567  11.082  0.1625 -0.8163 -0.5103
 1179TIP3    H125028   4.330   0.528  11.167  0.2100  1.3512  0.4962
 1179TIP3    H225029   4.371   0.525  11.021  0.5856 -1.8920  0.6385
 1180TIP3   OH225030   6.152   5.966   1.024  0.1987 -0.8452  0.3488
 1180TIP3    H125031   6.171   5.958   0.931  0.9667 -2.2104  0.6168
 1180TIP3    H225032   6.133   6.059   1.036  1.7811 -0.3343 -0.8560
 1181TIP3   OH225033   1.284   3.003   2.588 -0.6807 -0.4744 -0.0667
 1181TIP3    H125034   1.376   2.984   2.573 -0.0265 -0.1158  3.0974
 1181TIP3    H225035   1.256   3.050   2.510  2.2094  0.6856 -0.4614
 1182TIP3   OH225036   3.984   0.094   4.214 -0.0245  0.0538  0.2568
 1182TIP3    H125037   4.021   0.060   4.133 -1.4899  1.0577 -0.8770
 1182TIP3    H225038   4.059   0.128   4.263  0.9055 -0.7992 -0.5680
 1183TIP3   OH225039   1.959   6.810   1.197  0.1813  0.2310 -0.0050
 1183TIP3    H125040   1.915   6.894   1.210  1.0834  0.9243 -1.3274
 1183TIP3    H225041   2.040   6.816   1.247  0.2922  0.1781 -0.1782
 1184TIP3   OH225042   0.616   1.332  14.022 -0.0299 -0.6826  0.6730
 1184TIP3    H125043   0.649   1.399  13.961 -0.3449  0.5810  1.8562
 1184TIP3    H225044   0.693   1.281  14.045  1.1254  1.9816  3.0810
 1185TIP3   OH225045   0.139   0.470  15.264 -0.4516 -0.0924  0.0630
 1185TIP3    H125046   0.157   0.486  15.171 -0.9751 -0.1138 -0.0402
 1185TIP3    H225047   0.059   0.418  15.264 -1.8903  2.0633  0.6381
 1186TIP3   OH225048   5.897   5.030   0.879 -0.0992 -0.0224 -0.0001
 1186TIP3    H125049   5.840   5.102   0.907  0.2090  0.1316  0.2302
 1186TIP3    H225050   5.961   5.022   0.950  0.2693 -0.0811 -0.3432
 1187TIP3   OH225051   2.051   3.068   0.417 -0.1030  0.3839 -0.0642
 1187TIP3    H125052   1.985   3.007   0.386 -0.8025  1.7502 -1.2751
 1187TIP3    H225053   2.089   3.025   0.494 -0.0504 -1.9026 -1.3488
 1188TIP3   OH225054   3.628   6.673   3.500 -0.2994  0.2172  0.4767
 1188TIP3    H125055   3.539   6.658   3.466 -0.1861  0.1095  0.2293
 1188TIP3    H225056   3.653   6.758   3.464 -0.4944  0.4763  0.9484
 1189TIP3   OH225057   5.996   5.056  14.736  0.2906  0.4684  0.5663
 1189TIP3    H125058   5.911   5.100  14.742  0.2825  0.4162  0.8351
 1189TIP3    H225059   6.059   5.127  14.723  0.2451  0.5349  0.7122
 1190TIP3   OH225060   4.555   3.811   1.232  0.0288  0.1622  0.1565
 1190TIP3    H125061   4.546   3.897   1.273 -1.3018  0.3642 -0.5298
 1190TIP3    H225062   4.544   3.749   1.304  1.9262  0.5575  0.8225
 1191TIP3   OH225063   4.679   6.738   3.645 -0.4478  0.0289 -0.2249
 1191TIP3    H125064   4.675   6.766   3.737 -1.6089 -0.9661  0.0476
 1191TIP3    H225065   4.714   6.648   3.649 -1.6609 -0.4673 -0.6472
 1192TIP3   OH225066   3.296   0.896  15.862  0.0615  0.1601 -0.1776
 1192TIP3    H125067   3.315   0.849  15.944  1.4849  1.0434  0.0168
 1192TIP3    H225068   3.328   0.837  15.794  1.9942  0.8865  0.0743
 1193TIP3   OH225069   6.552   3.051   6.735  0.2101 -0.1127  0.3456
 1193TIP3    H125070   6.465   3.021   6.705 -0.0239 -0.1045  1.0099
 1193TIP3    H225071   6.607   2.973   6.729  0.0831 -0.1920  0.2030
 1194TIP3   OH225072   1.545   5.755   1.130  0.0200 -0.6695 -0.5423
 1194TIP3    H125073   1.640   5.752   1.142  0.0667  1.8179 -0.1251
 1194TIP3    H225074   1.513   5.676   1.173  1.7398 -0.6542  0.8121
 1195TIP3   OH225075   1.705   5.427   0.840  0.4358 -0.6223  0.2346
 1195TIP3    H125076   1.686   5.449   0.932  1.6688  0.3148  0.2715
 1195TIP3    H225077   1.729   5.510   0.800 -1.8455 -0.7032 -1.4117
 1196TIP3   OH225078   5.822   1.024  14.086 -0.4587  0.0641 -0.2549
 1196TIP3    H125079   5.906   1.007  14.128  0.1084  0.6005 -1.1537
 1196TIP3    H225080   5.812   1.119  14.091 -1.6107 -0.1072  0.9655
 1197TIP3   OH225081   4.629   1.621   6.129 -1.1549  0.0794  0.3311
 1197TIP3    H125082   4.705   1.563   6.136 -2.5586 -1.8456  0.3343
 1197TIP3    H225083   4.655   1.701   6.174  1.2990 -0.0407 -0.7693
 1198TIP3   OH225084   2.182   3.693  10.920 -0.1979  0.3350  0.4494
 1198TIP3    H125085   2.092   3.672  10.894  0.3881  0.0097 -1.4509
 1198TIP3    H225086   2.208   3.620  10.976 -0.4452 -0.6334 -0.6662
 1199TIP3   OH225087   4.302   3.713  12.034  0.4952 -0.1226 -0.1878
 1199TIP3    H125088   4.368   3.777  12.060 -0.3852  1.0789 -0.8660
 1199TIP3    H225089   4.338   3.672  11.955  0.5963  0.2398 -0.3271
 1200TIP3   OH225090   5.844   0.506  12.952 -0.1640 -0.3014 -0.3236
 1200TIP3    H125091   5.929   0.521  12.994 -0.4396 -0.6691  0.3798
 1200TIP3    H225092   5.862   0.515  12.859  0.6957 -0.6058 -0.1967
 1201TIP3   OH225093   5.992   5.532  15.534 -0.0001  0.3745  0.1662
 1201TIP3    H125094   5.977   5.557  15.443 -0.6975  1.4974  0.5816
 1201TIP3    H225095   5.938   5.453  15.546 -2.0977  1.7980  0.3595
 1202TIP3   OH225096   1.482   6.478   1.869  0.0209  0.2439  0.6332
 1202TIP3    H125097   1.495   6.572   1.878  1.3675  0.2305 -0.9721
 1202TIP3    H225098   1.566   6.440   1.897 -0.6797 -0.5028  1.7287
 1203TIP3   OH225099   1.221   3.051  15.818 -0.3480  0.1572 -0.1019
 1203TIP3    H125100   1.185   3.114  15.882  1.4975  0.3073  0.8242
 1203TIP3    H225101   1.235   3.103  15.739 -0.2488  0.5611  0.1796
 1204TIP3   OH225102   1.560   2.491  12.490  0.0201 -0.5683  0.0935
 1204TIP3    H125103   1.538   2.528  12.576  0.0371 -0.8063  0.2006
 1204TIP3    H225104   1.501   2.536  12.429  0.3569 -0.0328  0.1578
 1205TIP3   OH225105   4.364   1.928  12.112 -0.1546  0.1897  0.3036
 1205TIP3    H125106   4.446   1.922  12.063  1.4069 -1.8128  3.0372
 1205TIP3    H225107   4.378   2.003  12.171 -0.3044 -0.1446  0.7613
 1206TIP3   OH225108   2.466   3.177   4.214 -0.2301 -0.3095  0.0109
 1206TIP3    H125109   2.379   3.207   4.188 -0.1287  0.6788  0.7994
 1206TIP3    H225110   2.519   3.188   4.135 -0.9622 -1.5799 -0.6884
 1207TIP3   OH225111   6.544   0.803  10.732  0.1233  0.5258 -0.1027
 1207TIP3    H125112   6.561   0.712  10.706  1.4124  0.5753  0.5175
 1207TIP3    H225113   6.450   0.806  10.747  0.1301 -0.8422  0.3242
 1208TIP3   OH225114   1.473   5.500  17.156  0.5879  0.1272 -0.2533
 1208TIP3    H125115   1.444   5.413  17.182 -0.2402  0.5085  0.1273
 1208TIP3    H225116   1.490   5.545  17.239  1.5251  0.1656 -0.4579
 1209TIP3   OH225117   5.758   2.580  11.471  0.0695  0.7595  0.7235
 1209TIP3    H125118   5.724   2.610  11.386  1.6356 -1.8057 -0.8893
 1209TIP3    H225119   5.683   2.537  11.513 -0.1106 -0.1315 -0.4666
 1210TIP3   OH225120   1.240   5.090   5.523  0.0346 -0.1924 -0.3354
 1210TIP3    H125121   1.151   5.064   5.548 -0.5258 -1.0605 -3.0322
 1210TIP3    H225122   1.297   5.024   5.564 -0.6820 -0.4362  0.2684
 1211TIP3   OH225123   0.941   3.162  15.492 -0.1680  0.7429 -0.0425
 1211TIP3    H125124   0.961   3.186  15.583  0.2369  0.8789 -0.1682
 1211TIP3    H225125   0.863   3.107  15.499 -0.8257  1.6931  0.2966
 1212TIP3   OH225126   1.141   0.051   5.473  0.3741  0.3024 -0.0931
 1212TIP3    H125127   1.128   0.011   5.559  0.1891  0.2216 -0.1563
 1212TIP3    H225128   1.150  -0.023   5.413  3.4310  0.3299  0.2524
 1213TIP3   OH225129   6.296   1.900   5.404 -0.0136 -0.0986 -0.1796
 1213TIP3    H125130   6.230   1.835   5.378  0.0463 -0.1375 -0.2344
 1213TIP3    H225131   6.367   1.888   5.341 -0.5287  0.8499 -0.9650
 1214TIP3   OH225132   4.150   4.828  12.797  0.1199 -0.1660  0.4690
 1214TIP3    H125133   4.071   4.779  12.819 -0.2539  0.0962 -0.2826
 1214TIP3    H225134   4.158   4.819  12.702 -1.6976  3.8303 -0.1571
 1215TIP3   OH225135   2.966   1.103   2.920 -0.0099  0.5467  0.9363
 1215TIP3    H125136   2.895   1.079   2.980  1.1315  0.5348  2.3092
 1215TIP3    H225137   2.974   1.028   2.861 -1.5524  0.8138  0.3769
 1216TIP3   OH225138   5.974   3.645  11.664  0.1703 -0.2403  0.6566
 1216TIP3    H125139   6.056   3.617  11.623 -0.1083 -0.9980  0.6019
 1216TIP3    H225140   5.936   3.564  11.698 -1.3337 -0.1355 -0.7169
 1217TIP3   OH225141   5.267   2.043  14.453 -0.3442 -0.7439 -0.0804
 1217TIP3    H125142   5.288   2.096  14.530  0.8399 -1.0311 -0.2012
 1217TIP3    H225143   5.207   1.976  14.486 -0.6352 -0.2656  0.3810
 1218TIP3   OH225144   4.247   5.993  11.631  0.1562  0.2615 -0.6491
 1218TIP3    H125145   4.240   5.902  11.605 -0.4679  0.3408 -0.7730
 1218TIP3    H225146   4.167   6.010  11.681 -1.3852  1.6549 -3.4417
 1219TIP3   OH225147   1.848   5.426  14.573  0.1964  0.3596 -0.2155
 1219TIP3    H125148   1.924   5.456  14.623  1.1462 -1.1073 -0.7663
 1219TIP3    H225149   1.773   5.444  14.630  1.0263  1.0374  0.6756
 1220TIP3   OH225150   0.133   1.360   0.522  0.2817 -0.1430 -0.0936
 1220TIP3    H125151   0.088   1.276   0.532  0.3674 -0.0411  1.1886
 1220TIP3    H225152   0.137   1.396   0.610  1.8307  0.4047 -0.3825
 1221TIP3   OH225153   5.172   2.609  13.898 -0.5076 -0.4436  0.3238
 1221TIP3    H125154   5.233   2.632  13.827 -1.0484 -2.3183 -0.7885
 1221TIP3    H225155   5.217   2.539  13.946 -1.5868 -1.5781 -0.2837
 1222TIP3   OH225156   4.411   0.454  11.313 -0.2708  0.0169  0.3825
 1222TIP3    H125157   4.390   0.408  11.395 -0.2616 -0.9070 -0.1199
 1222TIP3    H225158   4.492   0.500  11.331 -0.3525 -0.0595  0.9504
 1223TIP3   OH225159   2.980   0.055  16.482 -0.2222 -0.1183  0.7260
 1223TIP3    H125160   3.019   0.137  16.451  0.2912 -0.7840 -0.4095
 1223TIP3    H225161   2.889   0.058  16.451 -0.3912  0.3357  1.2752
 1224TIP3   OH225162   2.653   1.405  14.834 -0.4334  0.0730 -0.7331
 1224TIP3    H125163   2.661   1.501  14.835 -0.9836  0.1162 -0.2613
 1224TIP3    H225164   2.726   1.375  14.889  0.0918  0.1935 -1.3623
 1225TIP3   OH225165   1.824   3.366   4.150 -0.0447 -0.0719 -0.7005
 1225TIP3    H125166   1.835   3.442   4.093 -0.7274 -0.7653 -1.7607
 1225TIP3    H225167   1.737   3.377   4.188 -0.2238 -0.4186 -1.0050
 1226TIP3   OH225168   2.357   1.201  17.107  0.6643 -0.4959 -0.1761
 1226TIP3    H125169   2.430   1.184  17.047  1.8832 -1.2235  1.4764
 1226TIP3    H225170   2.286   1.145  17.074  0.3588  1.2330 -2.6007
 1227TIP3   OH225171   3.572   0.738   0.719 -0.1497  0.5821  0.7148
 1227TIP3    H125172   3.593   0.830   0.730 -0.1752  0.6876 -0.0714
 1227TIP3    H225173   3.479   0.737   0.697  0.4551  0.6027 -2.0989
 1228TIP3   OH225174   2.772   6.137   0.798  0.0841 -0.4787 -0.3526
 1228TIP3    H125175   2.761   6.194   0.874 -0.9607 -1.4320  0.2167
 1228TIP3    H225176   2.856   6.163   0.761 -0.4615  1.5762 -0.2168
 1229TIP3   OH225177   4.300   5.940   5.099  0.2241 -0.2006  0.7343
 1229TIP3    H125178   4.236   5.901   5.039 -0.9307  0.1884  1.7017
 1229TIP3    H225179   4.356   5.993   5.043  1.2810 -2.5195 -0.4953
 1230TIP3   OH225180   5.079   2.822   1.866 -0.0685  0.3226  0.2778
 1230TIP3    H125181   5.105   2.873   1.943 -1.3884  1.4841 -0.0167
 1230TIP3    H225182   4.992   2.789   1.888 -0.2848  0.3295 -0.5704
 1231TIP3   OH225183   4.476   4.431   4.481  0.1222  0.4069  0.2278
 1231TIP3    H125184   4.521   4.348   4.465 -1.6507 -0.5498  0.1035
 1231TIP3    H225185   4.524   4.471   4.553  0.4191 -1.1626  0.9136
 1232TIP3   OH225186   5.403   5.568   3.353  0.0664 -0.8511  0.3522
 1232TIP3    H125187   5.444   5.631   3.412 -0.8152  0.5302 -0.4901
 1232TIP3    H225188   5.476   5.515   3.320  1.4429  2.4547 -2.1758
 1233TIP3   OH225189   1.106   5.927   5.093  0.4098 -0.3470 -0.4400
 1233TIP3    H125190   1.058   5.954   5.171  0.0308 -0.0615 -0.7705
 1233TIP3    H225191   1.069   5.980   5.022 -1.3431 -2.7498 -1.3820
 1234TIP3   OH225192   0.018   4.872  11.361 -0.1866  0.3018 -0.7047
 1234TIP3    H125193  -0.068   4.894  11.397  1.3428  1.3733  2.4650
 1234TIP3    H225194   0.034   4.782  11.388  0.4697  0.7237  0.3427
 1235TIP3   OH225195   4.721   2.688   1.150 -0.2305 -0.3661  0.6455
 1235TIP3    H125196   4.685   2.764   1.195  0.1367 -0.8059  1.7107
 1235TIP3    H225197   4.699   2.613   1.206 -1.7350 -1.2236 -1.0505
 1236TIP3   OH225198   1.947   2.809   3.879  0.0700  0.2565  0.1179
 1236TIP3    H125199   1.867   2.835   3.832 -0.1318  1.8747  1.3169
 1236TIP3    H225200   1.918   2.739   3.938 -0.6335  1.3210  1.0598
 1237TIP3   OH225201   2.756   4.981   5.321 -0.7547 -0.4463 -0.2937
 1237TIP3    H125202   2.676   4.978   5.373 -0.0273 -0.0819  0.8542
 1237TIP3    H225203   2.787   4.891   5.319  0.9340  0.0195  2.6271
 1238TIP3   OH225204   6.709   3.656   0.067 -0.3478  0.1265 -0.4160
 1238TIP3    H125205   6.803   3.673   0.058 -0.2847 -0.0545 -0.1249
 1238TIP3    H225206   6.699   3.622   0.156 -0.3698 -1.9363 -1.1650
 1239TIP3   OH225207   6.360   6.016  16.554 -0.3255 -0.7681 -0.3049
 1239TIP3    H125208   6.362   5.963  16.474 -0.6561 -1.7732  0.3388
 1239TIP3    H225209   6.327   6.101  16.526  0.7456 -0.7227 -1.4602
 1240TIP3   OH225210   1.724   0.288   5.618 -0.0077  0.2993  0.2922
 1240TIP3    H125211   1.631   0.275   5.633 -0.6359  2.0874 -1.8428
 1240TIP3    H225212   1.746   0.369   5.665  0.8857 -1.0070  2.2085
 1241TIP3   OH225213   5.519   6.059   6.019 -0.0670 -0.6176  0.3614
 1241TIP3    H125214   5.508   6.014   6.103 -0.6508 -0.2112  0.5140
 1241TIP3    H225215   5.513   5.990   5.954 -1.1997 -0.7412  0.5824
 1242TIP3   OH225216   3.392   6.679  11.152 -0.4186  0.5740 -0.4549
 1242TIP3    H125217   3.468   6.650  11.103  0.0274  0.6438  0.1918
 1242TIP3    H225218   3.424   6.748  11.209 -0.4932 -0.8198  1.3548
 1243TIP3   OH225219   1.272   1.475   2.669 -0.3030  0.2342  0.1971
 1243TIP3    H125220   1.256   1.520   2.586 -1.5544  0.4541  0.5423
 1243TIP3    H225221   1.206   1.405   2.671 -0.1171  0.0816  0.8888
 1244TIP3   OH225222   1.136   1.639   5.825 -0.1219 -0.6361  0.7723
 1244TIP3    H125223   1.178   1.682   5.750 -0.1632 -0.4691  0.8450
 1244TIP3    H225224   1.196   1.655   5.898  0.3936 -1.6257  0.5681
 1245TIP3   OH225225   4.333   3.366   2.983  0.2043 -0.1496  0.2705
 1245TIP3    H125226   4.304   3.281   2.948  0.6875  0.0328 -0.5877
 1245TIP3    H225227   4.319   3.359   3.077  0.1654 -1.1605  0.1964
 1246TIP3   OH225228   2.974   6.365  12.700 -0.4504  0.7768  0.6804
 1246TIP3    H125229   2.924   6.350  12.780  2.1584 -0.7957  2.1010
 1246TIP3    H225230   3.033   6.438  12.723 -0.1043  0.7049  0.0118
 1247TIP3   OH225231   0.834   0.612   3.472 -0.0067 -0.2348 -0.4278
 1247TIP3    H125232   0.921   0.576   3.451  0.3435 -1.7029  3.1465
 1247TIP3    H225233   0.852   0.682   3.535 -1.2923  0.8394 -1.2447
 1248TIP3   OH225234   0.059   6.008  15.622  0.1561 -0.7740  0.1645
 1248TIP3    H125235   0.050   5.920  15.583  0.8239 -1.4922  1.5930
 1248TIP3    H225236   0.082   5.991  15.713 -0.0418  0.9054  0.5325
 1249TIP3   OH225237   1.310   5.102  10.608 -0.2979 -0.1584 -0.2739
 1249TIP3    H125238   1.257   5.045  10.553  1.0634 -1.6730 -0.0535
 1249TIP3    H225239   1.397   5.099  10.569  0.5755 -0.8954  1.6495
 1250TIP3   OH225240   4.524   3.738   2.888 -0.5325 -0.0028 -0.0043
 1250TIP3    H125241   4.430   3.733   2.905 -0.3849  3.2489  2.1917
 1250TIP3    H225242   4.557   3.651   2.909 -2.9496 -1.0051 -0.1782
 1251TIP3   OH225243   4.150   3.342  14.729  0.0676 -0.1913 -0.1973
 1251TIP3    H125244   4.162   3.417  14.670  1.8464  1.2719  1.9283
 1251TIP3    H225245   4.056   3.339  14.746 -0.2125  0.5776 -1.5192
 1252TIP3   OH225246   2.792   5.379  15.631  0.1880 -0.1048  0.2047
 1252TIP3    H125247   2.812   5.469  15.657 -1.2084 -0.8737  4.3012
 1252TIP3    H225248   2.871   5.330  15.655 -0.4054 -0.5290  1.3065
 1253TIP3   OH225249   1.353   4.405  16.537 -0.1166  0.0524 -0.0758
 1253TIP3    H125250   1.318   4.483  16.494  0.0043  0.3134  0.3077
 1253TIP3    H225251   1.281   4.371  16.588 -0.0978  0.0450 -0.0539
 1254TIP3   OH225252   3.292   2.851   5.433 -0.0526 -0.0822 -0.2218
 1254TIP3    H125253   3.344   2.868   5.354 -1.9605  0.5098 -1.3895
 1254TIP3    H225254   3.301   2.757   5.447  0.5119 -0.1554 -0.9849
 1255TIP3   OH225255   2.003   6.348  13.771  0.2235  0.0858  0.4547
 1255TIP3    H125256   1.996   6.317  13.861 -1.5109  0.0085  0.3070
 1255TIP3    H225257   1.989   6.270  13.717  2.9206 -0.2006  0.0930
 1256TIP3   OH225258   0.806   1.989  12.452  0.1145  0.5293 -0.8372
 1256TIP3    H125259   0.755   2.059  12.412 -0.5718 -0.3109 -1.4447
 1256TIP3    H225260   0.772   1.909  12.413 -0.2738 -0.2868  1.0969
 1257TIP3   OH225261   6.366   1.639  16.052  0.5742  0.1116  0.6120
 1257TIP3    H125262   6.443   1.667  16.101  2.5230  0.7136 -2.6491
 1257TIP3    H225263   6.386   1.549  16.025 -0.8315 -0.5029  1.5279
 1258TIP3   OH225264   5.296   3.830   3.058 -0.1765 -0.5269  0.0612
 1258TIP3    H125265   5.334   3.744   3.042 -2.0027 -1.1118 -1.2259
 1258TIP3    H225266   5.282   3.868   2.971 -0.2385  0.6914  0.5829
 1259TIP3   OH225267   4.867   1.622   3.124  0.2390  0.0871  0.0478
 1259TIP3    H125268   4.811   1.601   3.050  0.6069 -0.2697 -0.1325
 1259TIP3    H225269   4.944   1.664   3.085 -0.6595  2.1308  0.4387
 1260TIP3   OH225270   5.909   0.401   4.651  0.0009  0.4224  0.5526
 1260TIP3    H125271   5.911   0.417   4.556  0.8654 -1.3803  0.2357
 1260TIP3    H225272   5.926   0.307   4.659 -0.6960  0.4506  2.4792
 1261TIP3   OH225273   6.381   5.468   4.898  0.1442 -0.1205  0.0601
 1261TIP3    H125274   6.347   5.476   4.809  0.9077  1.4644 -0.0960
 1261TIP3    H225275   6.476   5.466   4.887  0.2970  1.6943  0.9502
 1262TIP3   OH225276   3.139   0.601  15.839  0.1089  0.4523  0.2725
 1262TIP3    H125277   3.179   0.632  15.758 -0.7152  1.2553  0.1750
 1262TIP3    H225278   3.046   0.592  15.819  0.4233 -2.8198  0.0806
 1263TIP3   OH225279   4.688   4.106   2.079 -0.5209 -0.1678  0.1978
 1263TIP3    H125280   4.636   4.049   2.023 -0.6114 -2.6826  2.7211
 1263TIP3    H225281   4.773   4.062   2.085 -0.9233 -0.6854  3.0030
 1264TIP3   OH225282   6.006   1.874  12.322  0.5836 -0.0213 -0.2018
 1264TIP3    H125283   5.946   1.938  12.360 -2.2800 -2.0750 -1.1179
 1264TIP3    H225284   5.993   1.882  12.228 -0.5680 -2.5996 -0.2925
 1265TIP3   OH225285   4.090   4.089   1.900  0.6455 -0.5961  0.0384
 1265TIP3    H125286   4.161   4.068   1.960 -0.7792 -0.1998  1.8916
 1265TIP3    H225287   4.086   4.014   1.840  1.4395 -1.4423  1.0376
 1266TIP3   OH225288   5.197   5.087   5.781  0.1028 -0.1421 -0.0415
 1266TIP3    H125289   5.273   5.030   5.771  0.1670  0.1861 -1.5948
 1266TIP3    H225290   5.233   5.168   5.817  1.1818  1.4277 -4.3515
 1267TIP3   OH225291   2.787   4.295  11.236 -0.1789 -0.0270  0.4616
 1267TIP3    H125292   2.846   4.322  11.306 -1.0535  0.3234  1.0698
 1267TIP3    H225293   2.795   4.200  11.233 -0.3126 -0.0624  1.1862
 1268TIP3   OH225294   1.515   2.022  12.819  0.3715  0.3659  0.3117
 1268TIP3    H125295   1.505   1.992  12.910  1.1810 -0.4942  0.1380
 1268TIP3    H225296   1.483   1.949  12.767  0.9919  0.3960 -0.1094
 1269TIP3   OH225297   6.156   1.774  15.446  0.4548  0.7906  0.2058
 1269TIP3    H125298   6.094   1.725  15.392  1.3187 -2.0084  1.6538
 1269TIP3    H225299   6.239   1.769  15.398  1.2378 -1.7523  1.7418
 1270TIP3   OH225300   5.707   5.449   2.673  0.0487 -0.0375  0.2862
 1270TIP3    H125301   5.757   5.530   2.665 -0.6161  0.3198 -0.3643
 1270TIP3    H225302   5.773   5.380   2.674  0.6128  0.4979  0.6976
 1271TIP3   OH225303   5.917   2.680  17.095  0.2068  0.5066  0.0328
 1271TIP3    H125304   5.981   2.714  17.158  0.5925  1.2266 -0.7452
 1271TIP3    H225305   5.970   2.645  17.023 -0.1759 -1.8318  0.8414
 1272TIP3   OH225306   1.450   3.373   4.179  0.3431 -0.3659 -0.3036
 1272TIP3    H125307   1.457   3.374   4.275  0.1555 -0.0437 -0.2941
 1272TIP3    H225308   1.504   3.299   4.152  2.6064  1.1590 -0.1097
 1273TIP3   OH225309   4.267   2.354   1.891 -0.1440  0.5683 -0.4296
 1273TIP3    H125310   4.326   2.280   1.876 -0.6743  0.3575 -1.4930
 1273TIP3    H225311   4.281   2.411   1.816 -1.2556  0.5533 -0.6521
 1274TIP3   OH225312   3.115   3.000   1.457  0.5788  0.1331  0.4283
 1274TIP3    H125313   3.173   2.924   1.453  0.3912  0.0447 -0.9449
 1274TIP3    H225314   3.045   2.973   1.517  0.4209 -0.8663 -0.1759
 1275TIP3   OH225315   3.222   5.260   3.132 -0.4223  0.1064  0.0800
 1275TIP3    H125316   3.280   5.335   3.139 -0.8764  0.3303  1.5129
 1275TIP3    H225317   3.263   5.192   3.184  0.0588 -0.7012 -1.3253
 1276TIP3   OH225318   1.569   5.397   4.323 -1.0021 -0.1156 -0.0754
 1276TIP3    H125319   1.604   5.309   4.312 -0.6603 -0.0901  0.7521
 1276TIP3    H225320   1.478   5.383   4.351 -0.8657 -0.2161  0.3286
 1277TIP3   OH225321   1.954   6.806  16.422  0.7237  0.0923  0.3863
 1277TIP3    H125322   1.998   6.868  16.480 -0.3852  0.3412  0.9795
 1277TIP3    H225323   1.963   6.722  16.466  0.1725  0.2272  0.7648
 1278TIP3   OH225324   3.951   1.804   1.485  0.1410 -0.1346 -0.6296
 1278TIP3    H125325   4.025   1.865   1.488  0.0910 -0.1097  0.5836
 1278TIP3    H225326   3.875   1.860   1.472  0.2208 -0.0460 -0.7169
 1279TIP3   OH225327   3.768   3.880   5.597 -0.1074  0.4859 -1.0812
 1279TIP3    H125328   3.732   3.951   5.650  1.3205  1.3047 -1.1750
 1279TIP3    H225329   3.863   3.890   5.604  0.1341 -1.8925 -0.4751
 1280TIP3   OH225330   3.126   5.642   5.438 -0.4560 -0.2032  0.0376
 1280TIP3    H125331   3.209   5.671   5.477 -0.3714  1.2975 -1.2218
 1280TIP3    H225332   3.152   5.592   5.361 -0.7244  0.5974 -0.5776
 1281TIP3   OH225333   2.987   5.842   4.683  0.6416  0.0467  0.1924
 1281TIP3    H125334   3.032   5.927   4.675  0.5451  0.0130 -0.7844
 1281TIP3    H225335   2.967   5.834   4.776 -0.2575  1.5778  0.1477
 1282TIP3   OH225336   0.120   6.276  15.677 -0.4807  0.1623 -0.0795
 1282TIP3    H125337   0.086   6.188  15.697 -1.2243  0.1110 -1.5271
 1282TIP3    H225338   0.201   6.282  15.728  0.5432 -2.0571 -1.3630
 1283TIP3   OH225339   5.878   5.309  12.387  0.0754  0.1160 -0.1984
 1283TIP3    H125340   5.940   5.286  12.455  0.3675 -1.9478 -1.1332
 1283TIP3    H225341   5.932   5.352  12.320  0.3453 -0.7855 -0.5683
 1284TIP3   OH225342   0.892   0.444   2.375 -0.1101  0.5435 -0.7608
 1284TIP3    H125343   0.857   0.364   2.334 -0.7575 -0.5796  1.8834
 1284TIP3    H225344   0.978   0.455   2.336 -0.0145 -1.4697 -1.1918
 1285TIP3   OH225345   5.891   6.128  16.077  0.0413 -1.2894  0.1229
 1285TIP3    H125346   5.865   6.115  16.168 -0.1550 -2.2959 -0.0640
 1285TIP3    H225347   5.862   6.216  16.056 -0.5548 -1.3107  0.8202
 1286TIP3   OH225348   0.731   2.018   2.904  0.3011  0.1877  0.1109
 1286TIP3    H125349   0.801   1.953   2.892  1.3000  0.7280  2.5126
 1286TIP3    H225350   0.650   1.967   2.897  0.9624 -0.6936 -1.4020
 1287TIP3   OH225351   1.419   5.579   3.502  0.3281 -0.5009 -0.5363
 1287TIP3    H125352   1.441   5.654   3.557  0.3371 -2.3136  2.0569
 1287TIP3    H225353   1.329   5.557   3.527  0.9289 -2.3976  0.0443
 1288TIP3   OH225354   3.760   0.811  12.059  0.2968  0.2298 -0.0044
 1288TIP3    H125355   3.805   0.734  12.095  0.0625  0.3676  0.5924
 1288TIP3    H225356   3.757   0.795  11.965  1.1408 -0.0207  0.0082
 1289TIP3   OH225357   0.115   4.918   2.104  0.3522 -0.0141 -0.0232
 1289TIP3    H125358   0.054   4.986   2.077  1.1443  0.0064 -1.7905
 1289TIP3    H225359   0.104   4.912   2.199 -1.0230  1.2990 -0.0906
 1290TIP3   OH225360   5.364   6.382   1.066 -0.0848 -0.2052  0.0286
 1290TIP3    H125361   5.456   6.376   1.040  0.5581  1.5903  1.7474
 1290TIP3    H225362   5.363   6.363   1.159 -1.2103  1.3225  0.3639
 1291TIP3   OH225363   3.891   3.242  13.389  0.1040  0.3548  0.2200
 1291TIP3    H125364   3.894   3.332  13.355 -0.0598  0.9348  1.6948
 1291TIP3    H225365   3.810   3.206  13.354  0.6050  0.4832 -1.0986
 1292TIP3   OH225366   2.617   2.022   3.953 -0.2272 -0.1751 -0.1015
 1292TIP3    H125367   2.532   1.980   3.968 -0.0693 -1.0286 -1.5450
 1292TIP3    H225368   2.595   2.103   3.907 -0.2848 -0.2919 -0.2831
 1293TIP3   OH225369   5.692   2.815   2.067  0.7124  0.3146  0.2193
 1293TIP3    H125370   5.623   2.767   2.021 -0.4086  0.9144  1.2544
 1293TIP3    H225371   5.748   2.747   2.104  0.2396 -0.1746  0.0379
 1294TIP3   OH225372   3.982   0.185   5.590  0.0762  0.6278  0.1561
 1294TIP3    H125373   4.030   0.263   5.563  1.4975 -0.5436 -0.7530
 1294TIP3    H225374   4.025   0.113   5.544 -0.6983 -0.7982  1.6107
 1295TIP3   OH225375   5.254   2.971  17.034 -0.0986  0.2400 -0.1435
 1295TIP3    H125376   5.304   3.050  17.015 -0.9318  1.0979  1.1064
 1295TIP3    H225377   5.319   2.901  17.036  0.5495  0.7504 -2.0141
 1296TIP3   OH225378   0.284   5.678  14.234  0.1046  0.1190 -0.2304
 1296TIP3    H125379   0.365   5.686  14.182  1.4891 -1.5775  1.5996
 1296TIP3    H225380   0.238   5.603  14.195 -0.1737  0.5499 -0.7311
 1297TIP3   OH225381   2.686   0.760  13.433  0.2636  0.6387  0.0236
 1297TIP3    H125382   2.781   0.752  13.435  0.4741  2.7207  0.2653
 1297TIP3    H225383   2.657   0.695  13.369  2.0208  1.3509 -1.5516
 1298TIP3   OH225384   3.180   5.281   1.856  0.0331  0.1676  0.1967
 1298TIP3    H125385   3.191   5.286   1.761  0.7156  1.1539  0.3121
 1298TIP3    H225386   3.270   5.276   1.890 -0.1224  1.6152  0.8649
 1299TIP3   OH225387   3.697   6.689  15.170  0.2871  0.0813 -0.1186
 1299TIP3    H125388   3.620   6.746  15.176  0.4476  0.2132  0.7384
 1299TIP3    H225389   3.683   6.640  15.090  0.0163  1.1504 -0.7468
 1300TIP3   OH225390   5.781   4.405   2.851  0.1299 -0.1511 -0.7853
 1300TIP3    H125391   5.801   4.312   2.841 -1.6010 -0.7010  0.6572
 1300TIP3    H225392   5.697   4.416   2.807  0.8746  0.9699 -1.9389
 1301TIP3   OH225393   5.796   2.781   1.004 -0.3041 -0.2251  0.0589
 1301TIP3    H125394   5.793   2.731   0.923 -0.9172  0.6067 -0.4522
 1301TIP3    H225395   5.850   2.858   0.983 -1.7892  0.8143 -0.0637
 1302TIP3   OH225396   1.575   6.469  11.930 -0.4476 -0.2957 -0.2812
 1302TIP3    H125397   1.651   6.521  11.957  1.0119 -2.2390 -0.5195
 1302TIP3    H225398   1.505   6.495  11.990  1.8828 -2.3994  3.5254
 1303TIP3   OH225399   6.289   3.079   4.577  0.4578  0.2121 -0.1754
 1303TIP3    H125400   6.364   3.132   4.606  1.0165 -0.0829 -1.0942
 1303TIP3    H225401   6.328   3.005   4.532 -0.3265 -1.1413  1.3377
 1304TIP3   OH225402   5.415   3.752  13.185  0.3227 -0.7272  0.0400
 1304TIP3    H125403   5.472   3.711  13.251  0.1956  1.5992  1.6452
 1304TIP3    H225404   5.472   3.813  13.140 -0.4016  0.0916  0.2354
 1305TIP3   OH225405   1.342   3.190  14.663 -0.0858  0.0349  0.0374
 1305TIP3    H125406   1.406   3.252  14.698  0.1377  0.0553 -0.4062
 1305TIP3    H225407   1.365   3.107  14.704 -0.6432  0.3241  0.9553
 1306TIP3   OH225408   4.147   1.321   6.039  0.2866  0.0993  0.1839
 1306TIP3    H125409   4.061   1.290   6.066  0.6504 -1.6190 -0.5941
 1306TIP3    H225410   4.197   1.328   6.121 -0.4839  0.8080  0.5998
 1307TIP3   OH225411   5.422   1.937  12.513  0.2183  0.5229 -0.1933
 1307TIP3    H125412   5.467   2.022  12.503  2.8178 -0.7114  0.4643
 1307TIP3    H225413   5.410   1.906  12.423  0.8066  0.8159 -0.3788
 1308TIP3   OH225414   5.706   4.455   1.527  0.2822  0.1919  0.2162
 1308TIP3    H125415   5.726   4.379   1.472  1.9226  0.8544 -0.1161
 1308TIP3    H225416   5.670   4.519   1.466 -0.7665 -0.1673  0.4392
 1309TIP3   OH225417   4.788   6.113  17.074 -0.1639  0.1638 -0.2988
 1309TIP3    H125418   4.731   6.090  17.148 -2.6904 -1.1919 -2.5703
 1309TIP3    H225419   4.816   6.028  17.038  0.3940  0.7877 -1.3671
 1310TIP3   OH225420   1.141   0.051  10.846 -0.2296  1.0100 -0.4625
 1310TIP3    H125421   1.222   0.077  10.802 -0.7799  1.1178 -1.4152
 1310TIP3    H225422   1.074   0.052  10.777 -1.2054  1.6991  0.4714
 1311TIP3   OH225423   3.671   4.727   5.432 -0.0701 -0.0736 -0.4422
 1311TIP3    H125424   3.596   4.745   5.490 -1.0983 -0.0500 -1.7566
 1311TIP3    H225425   3.718   4.810   5.429 -1.1489  0.5282 -1.2356
 1312TIP3   OH225426   2.944   5.717   1.843 -0.0536 -0.4095 -0.6244
 1312TIP3    H125427   2.873   5.762   1.890 -0.4926 -1.9218  0.1817
 1312TIP3    H225428   2.900   5.664   1.776  0.1339 -2.8229  1.0948
 1313TIP3   OH225429   2.611   4.196   1.156 -0.3970 -0.0820 -0.3725
 1313TIP3    H125430   2.692   4.180   1.107 -1.1393 -1.1594 -1.2589
 1313TIP3    H225431   2.552   4.235   1.092  0.0800  2.6662  0.7863
 1314TIP3   OH225432   4.172   6.717   5.013 -0.1286 -0.0750  0.1020
 1314TIP3    H125433   4.220   6.777   5.069  0.5940 -0.0634 -0.5196
 1314TIP3    H225434   4.083   6.719   5.047  0.6387 -1.3050  2.2664
 1315TIP3   OH225435   6.346   2.475  12.584 -0.3483  0.0645 -0.2723
 1315TIP3    H125436   6.323   2.452  12.493  0.9300  0.5402 -0.7254
 1315TIP3    H225437   6.372   2.567  12.579  0.0336  0.0004  0.5334
 1316TIP3   OH225438   5.679   5.002   2.464  0.0559  0.4584 -0.4214
 1316TIP3    H125439   5.658   5.060   2.391  0.0167  0.1181 -0.6842
 1316TIP3    H225440   5.594   4.969   2.494  0.0999  0.2866 -0.4835
 1317TIP3   OH225441   3.451   2.790  16.621  0.1050 -0.0718  0.2302
 1317TIP3    H125442   3.542   2.781  16.650  0.0454 -1.5275  0.0198
 1317TIP3    H225443   3.401   2.802  16.702  0.1506 -2.2941  0.6091
 1318TIP3   OH225444   3.593   1.989   1.678  0.2934 -0.2838  0.2382
 1318TIP3    H125445   3.512   2.037   1.664  1.1631  0.8938 -0.8297
 1318TIP3    H225446   3.571   1.925   1.746 -1.5632 -0.0991 -0.1532
 1319TIP3   OH225447   6.160   5.721  15.713  0.3800  0.3529  0.1138
 1319TIP3    H125448   6.079   5.770  15.709  0.4153  0.3529 -0.5116
 1319TIP3    H225449   6.154   5.673  15.796  0.1071  0.9819  0.4636
 1320TIP3   OH225450   5.958   6.208   5.012 -0.1259 -0.1821  0.0019
 1320TIP3    H125451   5.977   6.137   5.073 -0.8640 -0.0137  0.4360
 1320TIP3    H225452   5.863   6.222   5.019 -0.0968  0.3883 -0.5792
 1321TIP3   OH225453   6.071   0.269  16.326 -0.3251  0.2595  0.3465
 1321TIP3    H125454   5.979   0.269  16.301 -0.3682  0.5671  0.5006
 1321TIP3    H225455   6.074   0.221  16.409 -0.3127  0.0505  0.2238
 1322TIP3   OH225456   0.381   4.977  13.078 -0.2238  0.1536  0.0791
 1322TIP3    H125457   0.341   4.899  13.115 -1.0208  0.7014  0.3860
 1322TIP3    H225458   0.475   4.958  13.076 -0.5071 -1.1597 -0.6991
 1323TIP3   OH225459   1.829   2.880  12.313 -0.1350  0.3460  0.0537
 1323TIP3    H125460   1.890   2.954  12.320  0.2877 -0.0041  0.0830
 1323TIP3    H225461   1.745   2.921  12.293 -0.4307  1.0348  2.5174
 1324TIP3   OH225462   6.263   2.869   1.659  1.0285 -0.4474 -0.3397
 1324TIP3    H125463   6.171   2.892   1.647  1.1346 -0.0821 -0.4389
 1324TIP3    H225464   6.272   2.852   1.753  0.9487 -0.1069 -0.2715
 1325TIP3   OH225465   4.579   2.584  13.424 -0.3274  0.3982  1.1316
 1325TIP3    H125466   4.552   2.495  13.447  1.5498 -0.7210 -0.7813
 1325TIP3    H225467   4.667   2.574  13.388 -0.9300  2.7418 -1.2002
 1326TIP3   OH225468   1.890   5.455  11.272 -0.0689 -0.5363  0.7555
 1326TIP3    H125469   1.796   5.446  11.288  0.0128 -2.3964  0.3363
 1326TIP3    H225470   1.928   5.463  11.360 -0.7335  1.7102  0.8585
 1327TIP3   OH225471   2.745   5.036  16.758  0.3093  0.5143  0.0224
 1327TIP3    H125472   2.659   5.004  16.784  0.4304  2.3751  2.9398
 1327TIP3    H225473   2.727   5.100  16.689 -0.6151  0.6191  0.3477
 1328TIP3   OH225474   6.092   1.431  13.926 -0.5978 -0.4047  0.5014
 1328TIP3    H125475   6.075   1.452  14.018  1.3838  1.1301  0.5546
 1328TIP3    H225476   6.012   1.455  13.881 -0.3877  2.0629  1.3794
 1329TIP3   OH225477   6.246   1.373  13.598 -0.3272 -0.0486  0.7327
 1329TIP3    H125478   6.230   1.350  13.507  0.9050  1.8175  0.0176
 1329TIP3    H225479   6.193   1.312  13.648  0.2988 -2.2109 -1.1790
 1330TIP3   OH225480   6.798   6.627  11.687 -0.1749  0.3208  0.0307
 1330TIP3    H125481   6.725   6.643  11.627 -0.0801 -0.0713 -0.1878
 1330TIP3    H225482   6.796   6.533  11.704 -0.2480  0.4433  0.7085
 1331TIP3   OH225483   5.104   3.445   5.381 -0.2722 -0.0089 -0.1907
 1331TIP3    H125484   5.024   3.393   5.370  0.8066 -1.9110  0.6228
 1331TIP3    H225485   5.073   3.535   5.391 -2.4188 -0.8749  1.5410
 1332TIP3   OH225486   1.246   0.124   1.680 -0.3832 -0.1618  0.0181
 1332TIP3    H125487   1.315   0.061   1.659  0.6305  1.1478 -0.6698
 1332TIP3    H225488   1.187   0.120   1.604 -2.5979 -3.2713  1.8140
 1333TIP3   OH225489   6.180   0.364  12.343  0.6350  0.3175 -0.8868
 1333TIP3    H125490   6.102   0.318  12.312  2.7793 -1.3786 -3.9707
 1333TIP3    H225491   6.223   0.302  12.401 -0.8411  1.6946  1.7747
 1334TIP3   OH225492   1.007   0.780  11.177  0.0059 -0.2269 -0.1240
 1334TIP3    H125493   1.097   0.806  11.161  0.5396 -1.3075  1.0184
 1334TIP3    H225494   0.984   0.822  11.261  0.1279 -1.5490  0.5876
 1335TIP3   OH225495   3.527   5.214  14.065  0.2071  0.1897  0.2405
 1335TIP3    H125496   3.618   5.242  14.076 -0.2549  2.0922 -0.4647
 1335TIP3    H225497   3.475   5.284  14.105 -0.9571 -1.0872  1.0404
 1336TIP3   OH225498   2.740   1.792  17.070 -0.3928  0.1010 -0.3270
 1336TIP3    H125499   2.804   1.808  17.000 -0.2873  0.8118 -0.0694
 1336TIP3    H225500   2.660   1.769  17.023 -0.1983  0.1086 -0.6735
 1337TIP3   OH225501   3.183   2.470   1.244  0.5950 -0.1719  0.2279
 1337TIP3    H125502   3.247   2.515   1.299 -0.2855 -1.3117  2.2553
 1337TIP3    H225503   3.098   2.496   1.279  0.0082 -0.7509 -0.7356
 1338TIP3   OH225504   5.680   1.034   1.816  0.1696 -0.0153  0.2251
 1338TIP3    H125505   5.705   1.012   1.726 -0.8727 -1.3259  0.2367
 1338TIP3    H225506   5.586   1.051   1.811 -0.4521 -2.8735  1.5538
 1339TIP3   OH225507   5.906   4.912   4.449 -0.7360 -0.0800  0.0273
 1339TIP3    H125508   6.000   4.924   4.462 -0.3460 -3.1645  0.4901
 1339TIP3    H225509   5.880   4.987   4.396  2.1438  0.4471 -0.7722
 1340TIP3   OH225510   5.345   2.217  14.052  0.2777 -0.0799  0.0461
 1340TIP3    H125511   5.428   2.174  14.031 -0.3159 -1.4960  0.5139
 1340TIP3    H225512   5.370   2.303  14.086  1.4781  0.0680 -1.1531
 1341TIP3   OH225513   6.791   6.584  13.508 -0.2386 -0.0616  0.5901
 1341TIP3    H125514   6.776   6.678  13.500 -1.1637 -0.0304  2.2947
 1341TIP3    H225515   6.878   6.577  13.546  0.1470  0.0806 -0.2648
 1342TIP3   OH225516   1.069   1.748   4.311  0.1198 -0.0074  0.2658
 1342TIP3    H125517   1.027   1.716   4.391  0.5147 -0.2204  0.3854
 1342TIP3    H225518   1.152   1.702   4.307  0.4770  0.6341  0.1766
 1343TIP3   OH225519   4.874   6.709  15.201 -0.1873 -0.2233 -0.0118
 1343TIP3    H125520   4.953   6.764  15.198 -0.9092  0.7841 -0.8940
 1343TIP3    H225521   4.891   6.647  15.272  1.4093 -0.0279 -0.2080
 1344TIP3   OH225522   1.502   3.425   4.447  0.4202 -0.0345  0.4891
 1344TIP3    H125523   1.517   3.518   4.431  1.7263 -0.5637 -1.5291
 1344TIP3    H225524   1.472   3.421   4.538 -2.1339  2.6086 -0.1471
 1345TIP3   OH225525   1.750   2.012  11.800 -0.2884 -0.1790  0.0866
 1345TIP3    H125526   1.694   1.975  11.732  0.3030 -1.0352  0.0569
 1345TIP3    H225527   1.703   2.090  11.830 -2.4293 -1.9237  1.3802
 1346TIP3   OH225528   6.175   2.090  12.088  0.2782 -0.0565  0.0233
 1346TIP3    H125529   6.129   2.007  12.103 -0.2693 -0.4401 -3.3898
 1346TIP3    H225530   6.106   2.154  12.072  0.7761  0.5595  0.2895
 1347TIP3   OH225531   2.204   0.758  11.621 -0.0192 -0.9529  0.3080
 1347TIP3    H125532   2.271   0.757  11.552  0.0833 -1.5279  0.4123
 1347TIP3    H225533   2.151   0.835  11.601 -0.0655 -1.1828 -0.4974
 1348TIP3   OH225534   1.440   0.338   0.451  0.2901  0.2732 -0.0744
 1348TIP3    H125535   1.380   0.299   0.515 -1.3067  2.4163 -0.2270
 1348TIP3    H225536   1.408   0.307   0.367 -0.0287  0.6358 -0.0892
 1349TIP3   OH225537   4.015   0.426   2.848  1.1311 -0.1097  0.9444
 1349TIP3    H125538   4.059   0.341   2.841 -1.4158 -1.3953 -0.0999
 1349TIP3    H225539   3.951   0.415   2.918 -2.8601 -0.8202 -2.6487
 1350TIP3   OH225540   5.033   0.264  11.828  0.5895 -0.5086  0.0986
 1350TIP3    H125541   5.093   0.202  11.786  0.5775 -0.6276  0.2568
 1350TIP3    H225542   4.946   0.230  11.809  0.5423  0.2947 -1.0984
 1351TIP3   OH225543   0.529   4.854  13.516  0.4475  0.1976 -0.2611
 1351TIP3    H125544   0.534   4.796  13.591 -0.4683  2.4128  1.5682
 1351TIP3    H225545   0.620   4.862  13.486  0.8869 -0.2950  0.9284
 1352TIP3   OH225546   5.741   3.220   5.270 -0.9067 -0.7635 -0.0360
 1352TIP3    H125547   5.739   3.136   5.316 -2.6165 -0.4837  0.4233
 1352TIP3    H225548   5.658   3.262   5.293 -0.2414  0.8821 -0.5866
 1353TIP3   OH225549   6.273   1.115  13.445  0.3367  0.0856  0.6569
 1353TIP3    H125550   6.299   1.049  13.380  0.9021  1.9568 -1.0656
 1353TIP3    H225551   6.178   1.119  13.437  0.2527 -0.8504  1.1071
 1354TIP3   OH225552   0.108   0.553  13.113  0.6769 -0.1931 -0.8696
 1354TIP3    H125553   0.074   0.605  13.041 -1.3784  1.0014  0.9053
 1354TIP3    H225554   0.058   0.582  13.190  2.3017 -1.9246  0.9076
 1355TIP3   OH225555   2.504   1.969   2.263 -0.5268  0.5531  0.2957
 1355TIP3    H125556   2.414   1.969   2.294 -0.7993 -0.3713 -0.4885
 1355TIP3    H225557   2.534   2.059   2.276 -1.8858  1.1144 -0.4279
 1356TIP3   OH225558   3.341   2.505  11.975 -0.0616 -0.0112  0.8878
 1356TIP3    H125559   3.369   2.596  11.976  0.5151 -0.1765  0.1907
 1356TIP3    H225560   3.409   2.459  11.927 -0.6339 -0.7190  0.7330
 1357TIP3   OH225561   5.837   4.051   5.402 -0.2116 -0.3464 -0.0829
 1357TIP3    H125562   5.746   4.023   5.393 -0.1908 -0.2632 -0.5386
 1357TIP3    H225563   5.861   4.024   5.491 -0.7914 -0.0462  0.1667
 1358TIP3   OH225564   1.745   6.693   0.497 -0.1452 -0.0741 -0.5472
 1358TIP3    H125565   1.752   6.612   0.547  0.6148  0.1045 -0.3474
 1358TIP3    H225566   1.820   6.745   0.526 -0.7920  0.8234 -0.4410
 1359TIP3   OH225567   1.370   6.779   5.247  0.1677  0.0972  0.1528
 1359TIP3    H125568   1.292   6.742   5.205  0.3536  0.2145 -0.3075
 1359TIP3    H225569   1.359   6.874   5.239 -1.0855  0.2038  2.7770
 1360TIP3   OH225570   1.726   4.599   3.336 -0.4900  0.1488 -0.1649
 1360TIP3    H125571   1.681   4.588   3.252 -0.5322  2.4868 -0.4721
 1360TIP3    H225572   1.817   4.617   3.313 -0.3154 -0.1118  0.3121
 1361TIP3   OH225573   1.463   5.141   2.275 -0.2471  0.4352  0.4332
 1361TIP3    H125574   1.386   5.196   2.290  0.4702  1.5094  0.1861
 1361TIP3    H225575   1.490   5.114   2.363 -0.9881 -0.0623  0.5107
 1362TIP3   OH225576   5.243   6.761   6.011 -0.0598 -0.1116 -0.1958
 1362TIP3    H125577   5.271   6.843   6.053  0.0118 -0.6460  0.8300
 1362TIP3    H225578   5.320   6.730   5.965 -0.8281  1.7524 -2.8323
 1363TIP3   OH225579   6.743   3.832   1.622 -0.0612 -0.1621  0.6742
 1363TIP3    H125580   6.772   3.923   1.623  2.1458 -0.8345  2.1287
 1363TIP3    H225581   6.791   3.792   1.550 -0.3463 -0.3776  0.6029
 1364TIP3   OH225582   4.310   6.349   1.531 -0.1867  0.1151 -0.1805
 1364TIP3    H125583   4.266   6.314   1.609  0.2629 -2.5754 -1.0531
 1364TIP3    H225584   4.391   6.387   1.564 -1.1437  1.2412  0.9314
 1365TIP3   OH225585   4.139   3.082   1.997  0.2749  0.0147  0.1531
 1365TIP3    H125586   4.144   3.036   1.913 -0.1053  1.2645 -0.5645
 1365TIP3    H225587   4.229   3.109   2.014  0.2364  0.4044 -0.2329
 1366TIP3   OH225588   4.950   6.677   0.223 -0.8863  0.2893  0.1691
 1366TIP3    H125589   4.984   6.699   0.310  0.8873  1.1324 -0.7285
 1366TIP3    H225590   4.855   6.688   0.231 -0.6549  1.2710  1.7358
 1367TIP3   OH225591   0.584   4.766   5.986  0.1563  0.4117 -0.8257
 1367TIP3    H125592   0.574   4.856   6.018  2.1014  0.2822  0.2264
 1367TIP3    H225593   0.573   4.773   5.891  0.9037  1.8512 -0.8132
 1368TIP3   OH225594   2.247   3.326   5.066 -0.2419  0.0266 -0.4218
 1368TIP3    H125595   2.277   3.295   5.151 -0.6663 -2.2095 -1.0445
 1368TIP3    H225596   2.153   3.309   5.066 -0.6468  2.1430 -0.4811
 1369TIP3   OH225597   6.193   2.403   0.107 -0.1926  0.2091 -0.5999
 1369TIP3    H125598   6.247   2.371   0.179  1.8363 -0.0184 -2.1665
 1369TIP3    H225599   6.210   2.497   0.104 -0.7556  0.3183 -0.3883
 1370TIP3   OH225600   6.769   6.637  16.268 -0.0695 -0.1165 -0.1085
 1370TIP3    H125601   6.686   6.589  16.269  0.0406 -0.2935  2.0268
 1370TIP3    H225602   6.753   6.715  16.320  0.6801  0.5979 -0.9261
 1371TIP3   OH225603   1.054   2.252   1.600  0.0946  0.3031 -0.1743
 1371TIP3    H125604   1.137   2.210   1.574  0.5913 -0.7669  2.8933
 1371TIP3    H225605   0.987   2.191   1.571  0.5017  0.1302 -0.7742
 1372TIP3   OH225606   5.110   6.816  12.374  0.4278  0.1373 -0.0944
 1372TIP3    H125607   5.123   6.902  12.335 -0.7992  0.2014 -0.3912
 1372TIP3    H225608   5.127   6.754  12.303  1.6988  0.1159  0.2241
 1373TIP3   OH225609   5.051   1.227   0.789 -0.5257 -0.1285  0.2485
 1373TIP3    H125610   5.054   1.146   0.740 -2.5541  0.1067 -0.2917
 1373TIP3    H225611   5.064   1.201   0.880 -1.4230 -1.0806  0.1031
 1374TIP3   OH225612   4.511   6.210   3.832  0.0081 -0.2417  0.7885
 1374TIP3    H125613   4.535   6.214   3.924 -0.0858  0.1047  0.8000
 1374TIP3    H225614   4.578   6.155   3.792 -0.2162 -0.7732  1.1466
 1375TIP3   OH225615   6.030   3.074   1.984 -0.3907 -0.5119 -0.7123
 1375TIP3    H125616   5.998   3.141   1.924  0.5395  0.0777 -0.5675
 1375TIP3    H225617   6.072   3.009   1.927 -2.4959 -1.6935 -0.9714
 1376TIP3   OH225618   3.433   1.300   1.002  0.4071 -0.2365  0.1937
 1376TIP3    H125619   3.430   1.332   0.912  2.3925 -0.3609  0.0570
 1376TIP3    H225620   3.440   1.379   1.055 -1.5074 -0.1231  0.3041
 1377TIP3   OH225621   3.675   5.520   5.575  0.0065 -0.9360 -0.2221
 1377TIP3    H125622   3.602   5.474   5.534 -1.5746 -0.1614  1.6140
 1377TIP3    H225623   3.683   5.601   5.524 -0.3613 -1.0698 -0.4964
 1378TIP3   OH225624   0.579   3.515  11.192 -0.4049  0.4643 -0.1268
 1378TIP3    H125625   0.633   3.476  11.123  1.6890  1.7196  0.7386
 1378TIP3    H225626   0.502   3.549  11.147 -1.4455 -3.0686 -1.1218
 1379TIP3   OH225627   1.265   5.664   0.844  0.1498  0.3309  0.1661
 1379TIP3    H125628   1.270   5.578   0.887  0.5296  0.7673  1.0120
 1379TIP3    H225629   1.244   5.644   0.753  1.5784 -0.7295  0.0511
 1380TIP3   OH225630   2.088   4.458   3.259 -0.2279 -0.1495 -0.3473
 1380TIP3    H125631   2.173   4.496   3.237 -0.0091 -1.8459 -2.5895
 1380TIP3    H225632   2.024   4.518   3.220 -0.0044 -0.1078 -0.6463
 1381TIP3   OH225633   3.177   1.674  11.775  0.4800 -0.1474  0.1541
 1381TIP3    H125634   3.181   1.591  11.824  1.2489 -0.2130 -0.0180
 1381TIP3    H225635   3.170   1.741  11.843  0.7167 -0.2936  0.3246
 1382TIP3   OH225636   3.216   4.542  14.571  0.0818  0.1582 -0.4683
 1382TIP3    H125637   3.301   4.568  14.607 -0.5443  0.3475  0.9020
 1382TIP3    H225638   3.218   4.446  14.572 -0.6761  0.1246  1.9665
 1383TIP3   OH225639   0.279   0.215   0.891 -0.1429 -0.0805  0.1126
 1383TIP3    H125640   0.186   0.202   0.910 -0.3616  2.4072  0.8738
 1383TIP3    H225641   0.322   0.197   0.974  0.0331 -0.7970 -0.1280
 1384TIP3   OH225642   6.232   0.085   2.897 -0.1450 -0.1577 -0.5772
 1384TIP3    H125643   6.177   0.010   2.874 -0.5011 -0.0504 -0.0772
 1384TIP3    H225644   6.322   0.052   2.887 -0.2364  0.4601 -4.0543
 1385TIP3   OH225645   0.857   1.793   2.865  0.5258  0.2745 -0.0762
 1385TIP3    H125646   0.953   1.796   2.863  0.4908  2.4764 -0.4455
 1385TIP3    H225647   0.835   1.771   2.955  1.3873  0.1047  0.0938
 1386TIP3   OH225648   2.109   2.535  16.500  0.0225  0.6097 -0.7007
 1386TIP3    H125649   2.094   2.571  16.412 -0.5670  1.1980 -0.3656
 1386TIP3    H225650   2.040   2.574  16.554  0.0051 -0.2350 -0.1043
 1387TIP3   OH225651   4.302   2.785   1.358  0.4560 -0.7558  0.1356
 1387TIP3    H125652   4.305   2.815   1.449  0.3481  1.8514 -0.6960
 1387TIP3    H225653   4.374   2.831   1.315 -0.3827 -0.8784 -1.4197
 1388TIP3   OH225654   2.901   5.683   4.454  0.3217  0.5124 -0.4421
 1388TIP3    H125655   2.815   5.725   4.447 -0.3041 -0.8539 -1.0653
 1388TIP3    H225656   2.953   5.745   4.505 -1.0842  1.2759  0.1167
 1389TIP3   OH225657   5.254   5.926   2.057  0.5151  0.1539 -0.1370
 1389TIP3    H125658   5.268   5.911   1.963 -1.2892 -0.8285 -0.2880
 1389TIP3    H225659   5.335   5.898   2.098  1.8440  1.8597 -1.4960
 1390TIP3   OH225660   2.783   5.188   1.129 -0.0173  0.5640  0.9477
 1390TIP3    H125661   2.812   5.265   1.178  0.5347 -0.1135  1.6809
 1390TIP3    H225662   2.815   5.113   1.179  0.9990 -0.1331 -0.7251
 1391TIP3   OH225663   3.720   5.852   1.302 -0.0424  0.0925 -0.1612
 1391TIP3    H125664   3.633   5.811   1.296  0.9603 -2.1626  0.2871
 1391TIP3    H225665   3.748   5.860   1.211 -0.2683 -0.1782 -0.2573
 1392TIP3   OH225666   2.867   6.220   3.701  0.4867  0.2654  0.5358
 1392TIP3    H125667   2.844   6.209   3.608 -0.4628  1.9605  0.5486
 1392TIP3    H225668   2.783   6.213   3.747  0.8209  0.4091  1.1627
 1393TIP3   OH225669   4.037   6.754  15.164 -0.1293 -0.6622 -0.4830
 1393TIP3    H125670   4.016   6.661  15.153  1.5178 -1.0373 -0.5168
 1393TIP3    H225671   4.070   6.781  15.078 -1.4905  0.2088 -0.7531
 1394TIP3   OH225672   6.731   0.235  12.165  0.7470  0.3088  0.0513
 1394TIP3    H125673   6.679   0.261  12.088 -0.0475 -1.2934  0.0302
 1394TIP3    H225674   6.739   0.315  12.217 -1.2813  0.7075 -0.2206
 1395TIP3   OH225675   2.537   3.460   0.789  0.1109  0.5406 -0.6413
 1395TIP3    H125676   2.474   3.510   0.840  0.9326  1.1414 -0.1911
 1395TIP3    H225677   2.611   3.447   0.848  0.3347 -0.3243 -1.0940
 1396TIP3   OH225678   1.836   1.771  12.549  0.0494 -0.1288  0.0930
 1396TIP3    H125679   1.878   1.813  12.474  1.1595  1.0477  1.3490
 1396TIP3    H225680   1.762   1.723  12.512 -0.7987  2.3138 -1.4694
 1397TIP3   OH225681   4.276   5.371  16.532  0.5135 -0.0377 -0.2197
 1397TIP3    H125682   4.232   5.294  16.569  0.9445 -0.7962 -1.2351
 1397TIP3    H225683   4.324   5.336  16.457  0.7304  1.2352 -0.6773
 1398TIP3   OH225684   6.075   5.081  13.758  0.1561  0.2397  0.9999
 1398TIP3    H125685   6.073   5.105  13.665 -3.1986  0.3180  1.0312
 1398TIP3    H225686   6.088   5.164  13.804  1.2360  0.2740  0.6578
 1399TIP3   OH225687   5.247   2.906   6.461  0.1245 -0.7712  0.2848
 1399TIP3    H125688   5.303   2.828   6.466 -1.0836 -1.6252  0.5996
 1399TIP3    H225689   5.162   2.877   6.494  0.1138  1.1037  2.0112
 1400TIP3   OH225690   3.733   3.148  13.868 -0.4248 -0.3993  0.1953
 1400TIP3    H125691   3.827   3.134  13.857 -0.7663 -1.5157 -1.4796
 1400TIP3    H225692   3.702   3.067  13.910 -0.7102 -0.2112  0.3472
 1401TIP3   OH225693   2.493   3.877  15.313  0.2990 -0.5745 -0.0469
 1401TIP3    H125694   2.413   3.850  15.268 -0.7256  0.3007  1.2170
 1401TIP3    H225695   2.496   3.823  15.392 -0.6718  1.4614  1.4358
 1402TIP3   OH225696   3.009   1.035   0.842  0.2566 -0.2381 -0.6478
 1402TIP3    H125697   3.055   0.960   0.881 -0.3497  0.4279  1.3897
 1402TIP3    H225698   3.054   1.112   0.878  0.3778  0.4185 -2.1311
 1403TIP3   OH225699   5.524   4.494   3.716 -0.1022  0.1088  0.2714
 1403TIP3    H125700   5.521   4.544   3.798 -3.5631  1.8132 -0.7798
 1403TIP3    H225701   5.559   4.555   3.652  2.1085 -1.0585  0.3521
 1404TIP3   OH225702   0.293   4.397  16.788 -0.1268  0.4115  0.2413
 1404TIP3    H125703   0.351   4.358  16.853 -0.1433  1.7297  1.0663
 1404TIP3    H225704   0.212   4.348  16.796  0.9370 -1.6875 -1.1652
 1405TIP3   OH225705   5.008   4.375   5.284  0.2620  0.5171  0.3796
 1405TIP3    H125706   5.037   4.400   5.196 -0.4625  1.4634  0.4002
 1405TIP3    H225707   4.916   4.402   5.287  0.0312 -0.3316  1.1194
 1406TIP3   OH225708   2.245   6.528   3.065  0.3927 -0.3128  0.6304
 1406TIP3    H125709   2.156   6.515   3.033  0.4775 -2.0595  1.0499
 1406TIP3    H225710   2.235   6.554   3.156  0.2310  2.5352 -0.1417
 1407TIP3   OH225711   1.071   2.957  16.621  0.4416  0.2509 -0.7172
 1407TIP3    H125712   1.104   3.026  16.564  1.0654  0.4069 -0.1811
 1407TIP3    H225713   1.079   2.993  16.709 -0.6051  0.0551 -0.5274
 1408TIP3   OH225714   1.556   1.998   3.597 -0.4702  0.2007 -0.4715
 1408TIP3    H125715   1.597   1.979   3.512 -0.0253  0.0287 -0.2209
 1408TIP3    H225716   1.476   1.946   3.598  0.7522 -1.6992  0.2258
 1409TIP3   OH225717   2.989   1.506   0.805  0.2805 -0.0230 -0.2732
 1409TIP3    H125718   2.949   1.464   0.882 -0.9363  3.7282  1.2617
 1409TIP3    H225719   2.991   1.437   0.739 -0.1630 -2.9268  2.5816
 1410TIP3   OH225720   6.056   1.305  16.370  0.0060 -0.0676  0.3672
 1410TIP3    H125721   6.046   1.340  16.459  1.1211  3.4581 -0.7928
 1410TIP3    H225722   6.030   1.378  16.313 -0.8870 -2.3300 -2.2199
 1411TIP3   OH225723   2.504   6.056  13.392  1.2227 -0.4078  0.1276
 1411TIP3    H125724   2.550   6.050  13.309 -0.9302  2.3493 -1.3635
 1411TIP3    H225725   2.418   6.020  13.375 -0.6979  3.9605 -0.1393
 1412TIP3   OH225726   4.716   3.100  16.217 -0.1238  0.2227 -0.2317
 1412TIP3    H125727   4.777   3.057  16.156  0.8710  2.0125 -0.5533
 1412TIP3    H225728   4.655   3.146  16.160  0.3562  1.2902  0.0965
 1413TIP3   OH225729   2.788   3.794   1.923 -0.1645  0.3484  0.3134
 1413TIP3    H125730   2.762   3.731   1.990 -1.0911  0.4398  0.0395
 1413TIP3    H225731   2.707   3.816   1.878  0.3254  0.9320 -0.2867
 1414TIP3   OH225732   2.472   4.653  11.725 -0.3896 -0.0533  0.4006
 1414TIP3    H125733   2.496   4.561  11.736  1.4914  0.3854  0.1741
 1414TIP3    H225734   2.496   4.673  11.635  0.2327  0.9475  0.7788
 1415TIP3   OH225735   6.182   5.310  15.805  0.6788  0.5402 -0.2360
 1415TIP3    H125736   6.264   5.312  15.754 -0.0037 -0.4750 -1.3978
 1415TIP3    H225737   6.116   5.281  15.743 -0.1075 -1.1342  1.3397
 1416TIP3   OH225738   2.211   3.279   0.949  0.4946  0.1862 -0.4365
 1416TIP3    H125739   2.283   3.338   0.970  0.0830  1.0297 -1.3406
 1416TIP3    H225740   2.249   3.191   0.955  1.4017  0.5905 -0.1729
 1417TIP3   OH225741   5.687   1.572  11.651  0.3555  0.1185  0.3683
 1417TIP3    H125742   5.724   1.500  11.703  0.8305  0.4407  0.4866
 1417TIP3    H225743   5.764   1.619  11.619  0.0452  0.5456  0.2558
 1418TIP3   OH225744   1.300   6.114  13.100 -0.7327  0.4158  0.1222
 1418TIP3    H125745   1.317   6.091  13.008 -1.0148  0.3151  0.0933
 1418TIP3    H225746   1.261   6.202  13.096  0.5016  0.9692  0.2484
 1419TIP3   OH225747   2.343   1.120   0.170 -0.3483 -0.1217  0.0991
 1419TIP3    H125748   2.328   1.192   0.109 -1.1216  0.0654  0.5048
 1419TIP3    H225749   2.308   1.043   0.126  1.1908 -0.3999 -0.6714
 1420TIP3   OH225750   3.294   6.535   2.362 -0.1628  0.5509 -0.3867
 1420TIP3    H125751   3.295   6.607   2.299 -2.7291 -0.6647 -1.9025
 1420TIP3    H225752   3.320   6.458   2.311  2.4254  0.3233  1.1794
 1421TIP3   OH225753   3.580   6.455  12.134  0.1879 -0.1641  0.2084
 1421TIP3    H125754   3.647   6.473  12.069  0.7126 -2.2059  0.1498
 1421TIP3    H225755   3.610   6.502  12.212  0.8995  0.1527 -0.2446
 1422TIP3   OH225756   5.722   0.827  15.894 -0.3321 -0.2493 -0.0997
 1422TIP3    H125757   5.627   0.840  15.893 -0.2755  0.1670  0.0039
 1422TIP3    H225758   5.749   0.839  15.803 -0.7001 -2.7489 -0.5773
 1423TIP3   OH225759   5.325   0.285   6.602 -0.3376 -0.0951 -0.2543
 1423TIP3    H125760   5.325   0.211   6.663 -3.2636 -0.0884 -0.1764
 1423TIP3    H225761   5.413   0.285   6.565  0.0676 -2.9506  0.5398
 1424TIP3   OH225762   5.663   4.954   4.535  0.4153 -0.6796 -0.3181
 1424TIP3    H125763   5.649   4.868   4.574  2.3148 -0.8365  0.0510
 1424TIP3    H225764   5.757   4.970   4.543 -0.1606  2.2776  1.3989
 1425TIP3   OH225765   0.893   3.539  16.942 -0.1086  0.0405  0.0502
 1425TIP3    H125766   0.929   3.503  16.861  1.1822  0.6140  0.3568
 1425TIP3    H225767   0.809   3.495  16.952 -1.2642  1.5251 -2.7260
 1426TIP3   OH225768   1.063   0.035  13.181  0.2220 -0.4049 -0.3713
 1426TIP3    H125769   1.062   0.091  13.259 -0.1615 -0.5564 -0.2619
 1426TIP3    H225770   0.981   0.056  13.136 -0.2431 -1.3496  0.0166
 1427TIP3   OH225771   4.303   2.936   3.963 -0.2920 -0.8226  0.6568
 1427TIP3    H125772   4.313   3.007   3.899 -0.0565 -1.9252 -0.5519
 1427TIP3    H225773   4.276   2.980   4.044  0.9787  0.7609  0.2416
 1428TIP3   OH225774   5.309   1.097   3.085  0.1814 -0.0882  0.0342
 1428TIP3    H125775   5.324   1.137   2.999 -0.9352  1.1421  0.4076
 1428TIP3    H225776   5.344   1.008   3.076  4.9648  1.6339 -0.0845
 1429TIP3   OH225777   5.321   6.284  11.519  0.1692  1.1899 -0.0519
 1429TIP3    H125778   5.311   6.298  11.425 -0.6730  1.4348  0.0771
 1429TIP3    H225779   5.370   6.201  11.526 -0.7531  0.5862 -0.6788
 1430TIP3   OH225780   2.185   3.068  14.646  0.1295  0.2387 -0.0261
 1430TIP3    H125781   2.220   3.115  14.721  1.2404 -0.1917 -0.2765
 1430TIP3    H225782   2.174   3.136  14.579 -2.0945  0.8695  0.9103
 1431TIP3   OH225783   3.697   3.758  16.075 -0.3178  0.5567 -0.2573
 1431TIP3    H125784   3.748   3.678  16.067 -2.6549 -0.9555 -0.6988
 1431TIP3    H225785   3.618   3.741  16.024 -1.8317  2.3143  1.4086
 1432TIP3   OH225786   6.443   5.343   3.770  0.3083  0.3696  0.1849
 1432TIP3    H125787   6.514   5.333   3.832 -1.4079 -1.0010  1.9754
 1432TIP3    H225788   6.401   5.426   3.794  0.7812  0.7552 -0.3245
 1433TIP3   OH225789   6.087   2.017   0.601  0.4089  0.0516  0.3015
 1433TIP3    H125790   6.014   2.061   0.645  0.1737 -0.7758  0.7469
 1433TIP3    H225791   6.052   1.991   0.516  1.2166  2.7363 -0.9245
 1434TIP3   OH225792   6.322   6.667   5.376 -0.0802 -0.6718 -0.2223
 1434TIP3    H125793   6.283   6.662   5.463  0.9779 -3.6144  0.1486
 1434TIP3    H225794   6.396   6.606   5.379  0.2831 -0.4526 -3.0141
 1435TIP3   OH225795   5.889   0.699   2.804 -0.3723  0.8833 -0.6591
 1435TIP3    H125796   5.923   0.752   2.731 -0.2542  1.6656 -0.0491
 1435TIP3    H225797   5.965   0.650   2.835 -0.9570 -1.3480 -2.6381
 1436TIP3   OH225798   2.083   0.459  12.246  0.0670 -0.3865 -0.3005
 1436TIP3    H125799   2.058   0.421  12.162 -1.2507  0.0154 -0.0874
 1436TIP3    H225800   2.046   0.547  12.246  0.1501 -0.3402  0.6503
 1437TIP3   OH225801   2.730   3.562   3.106 -0.1290 -0.2927  0.0787
 1437TIP3    H125802   2.710   3.650   3.073  0.4816 -0.1100  0.1948
 1437TIP3    H225803   2.684   3.503   3.046 -1.2853  0.1333  0.5337
 1438TIP3   OH225804   5.785   1.075   6.616  0.1810 -0.2044 -0.3669
 1438TIP3    H125805   5.693   1.061   6.640 -0.3813  1.8515 -1.2212
 1438TIP3    H225806   5.805   1.001   6.558 -0.7278 -1.0393  0.3579
 1439TIP3   OH225807   0.049   5.090  12.067 -0.6744  0.0105 -0.4224
 1439TIP3    H125808   0.051   4.994  12.068 -3.0637 -0.0741 -0.0234
 1439TIP3    H225809   0.110   5.116  12.136 -4.1313 -1.4144  3.4182
 1440TIP3   OH225810   4.441   5.486  12.538 -0.1921  0.3626  0.0910
 1440TIP3    H125811   4.366   5.458  12.486  0.7830 -0.6742 -0.7845
 1440TIP3    H225812   4.450   5.579  12.517 -1.1560  0.4719  0.1222
 1441TIP3   OH225813   5.256   3.685   5.951 -0.8442  0.0850 -0.1818
 1441TIP3    H125814   5.215   3.647   6.029 -1.0876 -1.7059 -1.1480
 1441TIP3    H225815   5.350   3.670   5.963 -1.0302 -2.1080 -1.1714
 1442TIP3   OH225816   5.855   2.075  12.705  0.6904  0.6976 -0.2658
 1442TIP3    H125817   5.803   2.074  12.625  1.4462  0.2365 -0.7623
 1442TIP3    H225818   5.791   2.087  12.775 -0.3922 -2.4751 -0.6381
 1443TIP3   OH225819   4.396   2.922   4.480 -0.2258  0.4136 -0.4979
 1443TIP3    H125820   4.324   2.933   4.541 -1.5656 -0.0984 -1.9429
 1443TIP3    H225821   4.378   2.839   4.435  1.9188 -0.3508 -0.0454
 1444TIP3   OH225822   6.161   1.586  17.053  0.3207  0.5494  0.4721
 1444TIP3    H125823   6.204   1.668  17.027  0.6517  0.2324  0.0176
 1444TIP3    H225824   6.069   1.599  17.030  0.5087  0.4978 -0.2986
 1445TIP3   OH225825   2.276   3.920  14.914  0.0113 -0.1002 -0.1480
 1445TIP3    H125826   2.307   3.958  14.832 -1.8453 -1.9048 -1.7369
 1445TIP3    H225827   2.210   3.982  14.946  0.1178  0.1780 -0.4646
 1446TIP3   OH225828   0.337   0.281   3.674 -0.0029 -0.0705  0.1191
 1446TIP3    H125829   0.296   0.216   3.730 -0.5382 -1.8655 -2.2444
 1446TIP3    H225830   0.277   0.291   3.600  1.7057  0.5051 -1.2567
 1447TIP3   OH225831   1.873   4.312  13.662 -0.3782 -0.0691  0.0663
 1447TIP3    H125832   1.867   4.380  13.729  3.1781  0.6991 -0.3208
 1447TIP3    H225833   1.943   4.254  13.693 -0.0267 -0.7889 -2.0236
 1448TIP3   OH225834   6.218   4.341  15.081 -0.4519  0.1290 -0.1610
 1448TIP3    H125835   6.245   4.279  15.013  0.0858 -0.1177  0.2685
 1448TIP3    H225836   6.293   4.399  15.093 -1.3863  1.6162 -1.3945
 1449TIP3   OH225837   0.399   4.093   2.923  0.4553 -0.0891  0.5488
 1449TIP3    H125838   0.402   3.998   2.930 -1.6583 -0.3097 -1.0492
 1449TIP3    H225839   0.466   4.115   2.858  1.8771 -0.3303  1.8978
 1450TIP3   OH225840   5.475   3.307  15.816  0.3970 -0.3588 -0.3630
 1450TIP3    H125841   5.492   3.360  15.738  0.5977 -1.2089 -0.8968
 1450TIP3    H225842   5.386   3.332  15.842  0.4059  0.0830 -0.7437
 1451TIP3   OH225843   2.754   0.710   3.132  0.0512  0.0634  0.3003
 1451TIP3    H125844   2.841   0.727   3.098  0.2230  0.8454  1.1326
 1451TIP3    H225845   2.709   0.665   3.061  0.8525  0.4379 -0.4449
 1452TIP3   OH225846   1.520   3.773   1.370  0.0018  0.1365  0.2796
 1452TIP3    H125847   1.460   3.842   1.341 -0.9589 -0.0108  1.8642
 1452TIP3    H225848   1.465   3.696   1.381  0.7900 -0.4654  0.0767
 1453TIP3   OH225849   0.271   2.672  16.046  0.0156  0.3226  0.2861
 1453TIP3    H125850   0.318   2.619  15.981 -1.7022 -0.0529 -0.6996
 1453TIP3    H225851   0.269   2.760  16.008 -0.3860  0.2539  0.1398
 1454TIP3   OH225852   2.831   4.590   3.956  0.2762 -0.0687 -0.1336
 1454TIP3    H125853   2.784   4.662   3.914  1.4535  0.8161  0.0264
 1454TIP3    H225854   2.850   4.622   4.044  0.6322 -0.6430  0.0013
 1455TIP3   OH225855   2.516   2.641  12.135 -0.4208  0.2018  0.1939
 1455TIP3    H125856   2.422   2.637  12.148 -0.3448 -1.4407  0.3507
 1455TIP3    H225857   2.553   2.591  12.208  0.4982 -0.3778 -0.6551
 1456TIP3   OH225858   4.487   2.079  11.484  0.7584  0.0766 -0.1085
 1456TIP3    H125859   4.564   2.070  11.427  1.3533 -0.6262  0.7897
 1456TIP3    H225860   4.421   2.023  11.445  1.2046 -0.4949 -0.0562
 1457TIP3   OH225861   0.539   4.635   1.431  0.3497  0.1994 -0.1634
 1457TIP3    H125862   0.474   4.648   1.500 -1.6145 -1.6409 -1.6023
 1457TIP3    H225863   0.600   4.708   1.442  1.4238 -1.2300  4.9172
 1458TIP3   OH225864   3.457   6.170  15.676 -0.1815  0.2845  0.1801
 1458TIP3    H125865   3.435   6.248  15.625  1.0329 -0.2324 -1.1836
 1458TIP3    H225866   3.450   6.097  15.613 -2.1654 -0.8208  1.6573
 1459TIP3   OH225867   2.930   3.565   1.445  0.5197  0.2910  0.3561
 1459TIP3    H125868   3.014   3.520   1.450  0.4400  0.3352  2.3693
 1459TIP3    H225869   2.908   3.585   1.536 -1.6655  0.2711 -0.1472
 1460TIP3   OH225870   2.341   2.583  16.088 -0.3441 -0.5235 -0.6807
 1460TIP3    H125871   2.309   2.495  16.069  0.3000 -1.2078  1.3650
 1460TIP3    H225872   2.436   2.574  16.092 -0.2747  0.2598 -0.4203
 1461TIP3   OH225873   3.647   5.260   0.573 -0.2954  0.0004 -0.5662
 1461TIP3    H125874   3.687   5.334   0.620  0.0242 -2.2159  2.8464
 1461TIP3    H225875   3.709   5.188   0.584 -1.7486 -1.4656 -1.6402
 1462TIP3   OH225876   2.880   1.922   4.068  0.0441 -1.0747 -0.1189
 1462TIP3    H125877   2.923   2.008   4.069 -1.0481 -0.5237  0.2538
 1462TIP3    H225878   2.903   1.886   3.982  1.5692 -0.9638  0.2237
 1463TIP3   OH225879   3.275   5.368  15.318 -0.1655 -0.2890  0.2937
 1463TIP3    H125880   3.297   5.365  15.225  0.5878 -2.3244  0.5135
 1463TIP3    H225881   3.222   5.290  15.333 -1.9611  1.0693  1.1764
 1464TIP3   OH225882   3.592   1.723   1.844  0.4450 -0.0992 -0.3949
 1464TIP3    H125883   3.525   1.655   1.852  0.5572 -0.3278 -1.4008
 1464TIP3    H225884   3.672   1.676   1.819  0.2802  0.5031 -2.1296
 1465TIP3   OH225885   6.243   5.198  13.253  0.1441 -0.2722 -0.6603
 1465TIP3    H125886   6.311   5.167  13.192  0.1654 -2.4813  0.4294
 1465TIP3    H225887   6.162   5.159  13.220 -0.4273  1.4091 -1.2809
 1466TIP3   OH225888   3.768   1.278  17.038  0.7810  0.5584 -0.7975
 1466TIP3    H125889   3.810   1.199  17.070  1.7460  0.8786 -1.2699
 1466TIP3    H225890   3.674   1.257  17.036  0.8071  0.1697  1.1739
 1467TIP3   OH225891   4.378   3.276   4.993  0.7087 -0.3714  0.3328
 1467TIP3    H125892   4.377   3.336   5.067  2.1892  1.5211 -1.1391
 1467TIP3    H225893   4.458   3.225   5.005  1.4024  0.5294 -0.4053
 1468TIP3   OH225894   1.349   2.355   5.468 -0.0702 -0.2477  0.2161
 1468TIP3    H125895   1.289   2.284   5.442  0.2985 -0.7054  0.6135
 1468TIP3    H225896   1.397   2.320   5.543 -0.3079  0.6510  0.7955
 1469TIP3   OH225897   6.797   2.489  15.155  0.5030  0.2242  0.6770
 1469TIP3    H125898   6.746   2.560  15.194 -0.0824  0.1708  0.0254
 1469TIP3    H225899   6.848   2.532  15.085 -2.2010 -0.4760 -1.8270
 1470TIP3   OH225900   0.795   2.816   5.895 -0.5385  0.1544 -0.0761
 1470TIP3    H125901   0.767   2.867   5.971 -0.3936  0.1069  0.0105
 1470TIP3    H225902   0.719   2.814   5.837 -0.6039  0.3101  0.0044
 1471TIP3   OH225903   3.352   4.675   4.304  0.5555 -0.3567 -0.0392
 1471TIP3    H125904   3.288   4.606   4.320 -1.7243  1.8937  0.9527
 1471TIP3    H225905   3.391   4.654   4.220 -1.8538 -1.5453 -0.8838
 1472TIP3   OH225906   2.225   4.617   2.633  0.2765  0.2299 -0.5037
 1472TIP3    H125907   2.227   4.536   2.684  0.9861  0.1513 -0.6572
 1472TIP3    H225908   2.293   4.672   2.673 -0.9563  1.1887  0.3272
 1473TIP3   OH225909   6.673   5.588  11.438  0.1894 -0.2352 -0.4118
 1473TIP3    H125910   6.684   5.638  11.357  2.2093 -0.8546 -0.5604
 1473TIP3    H225911   6.747   5.616  11.493 -1.4093  0.5121  1.4000
 1474TIP3   OH225912   2.534   5.416   6.233  0.0362 -0.0910  0.1413
 1474TIP3    H125913   2.469   5.485   6.247  0.4704  0.3637 -0.0558
 1474TIP3    H225914   2.495   5.338   6.272 -0.9303  0.0107 -0.6034
 1475TIP3   OH225915   5.544   0.989   4.033  0.0366 -0.3174  0.4249
 1475TIP3    H125916   5.505   1.038   4.105  1.6465 -0.5800  1.5084
 1475TIP3    H225917   5.612   0.936   4.074  0.5882 -0.9069 -1.2062
 1476TIP3   OH225918   6.691   6.222   1.076  0.1885  0.1928 -0.2974
 1476TIP3    H125919   6.743   6.183   1.006 -0.5860 -1.6009  0.0946
 1476TIP3    H225920   6.665   6.148   1.131  1.6740  1.6877  2.5189
 1477TIP3   OH225921   2.740   4.331  12.173  0.2920  0.3819 -0.2418
 1477TIP3    H125922   2.808   4.298  12.114  1.5702  0.5812  1.0708
 1477TIP3    H225923   2.661   4.334  12.120  1.6958  1.8713 -2.3252
 1478TIP3   OH225924   6.585   6.785   5.917 -0.5000  0.1572  0.4630
 1478TIP3    H125925   6.652   6.725   5.883  1.5444  1.3453  2.2468
 1478TIP3    H225926   6.540   6.817   5.839  3.3429  2.0164 -1.1171
 1479TIP3   OH225927   4.522   2.245   4.768 -0.0859  0.1144 -0.3174
 1479TIP3    H125928   4.428   2.228   4.776 -0.0253  0.2496  0.8460
 1479TIP3    H225929   4.561   2.197   4.841  0.2659  3.6100  1.9673
 1480TIP3   OH225930   3.167   5.512  16.101 -0.5134 -0.6271  0.1124
 1480TIP3    H125931   3.202   5.571  16.033  1.1396 -0.2545  1.2425
 1480TIP3    H225932   3.130   5.571  16.167 -0.2261 -0.9070  0.5261
 1481TIP3   OH225933   4.680   0.861  14.472  0.4405 -0.2869  0.2480
 1481TIP3    H125934   4.746   0.819  14.416  2.8679  2.1068  1.2484
 1481TIP3    H225935   4.719   0.944  14.498 -2.1456  0.2724  2.5897
 1482TIP3   OH225936   5.995   5.709  11.403  0.0240 -0.3968  0.2629
 1482TIP3    H125937   6.027   5.700  11.492  1.9192 -1.0577 -0.4486
 1482TIP3    H225938   5.996   5.803  11.386 -2.1830 -0.1050  1.5507
 1483TIP3   OH225939   6.634   1.170  16.659 -0.0342 -0.3782 -0.0837
 1483TIP3    H125940   6.665   1.081  16.645 -1.2502 -0.6637 -1.1165
 1483TIP3    H225941   6.711   1.225  16.648  1.0131 -1.3925  1.9458
 1484TIP3   OH225942   3.665   0.339   4.777 -0.1875  0.3504  0.3520
 1484TIP3    H125943   3.572   0.318   4.782 -0.1008  0.1370  1.1433
 1484TIP3    H225944   3.682   0.352   4.684 -0.5661 -1.6496 -0.0268
 1485TIP3   OH225945   2.482   1.818   3.084 -0.0435 -0.4141  0.1839
 1485TIP3    H125946   2.449   1.827   3.174  0.8292  1.3302  0.3430
 1485TIP3    H225947   2.497   1.724   3.074 -2.0225 -0.8638  1.1884
 1486TIP3   OH225948   2.616   2.396   1.061 -0.1399 -0.2360  0.8350
 1486TIP3    H125949   2.618   2.477   1.111  0.9620  0.7533 -0.7895
 1486TIP3    H225950   2.635   2.327   1.125 -1.4262  0.7302  2.2836
 1487TIP3   OH225951   0.651   5.039   5.014  0.0475 -0.0719  0.6803
 1487TIP3    H125952   0.716   4.970   5.028 -0.2498 -0.2403  1.2730
 1487TIP3    H225953   0.599   5.039   5.095  1.5131  2.4613  1.6580
 1488TIP3   OH225954   1.798   2.808   1.690 -0.4984  0.3704  0.6871
 1488TIP3    H125955   1.792   2.855   1.773  0.7377  1.2458  0.2889
 1488TIP3    H225956   1.777   2.717   1.713  0.2506  0.5198  2.0371
 1489TIP3   OH225957   6.432   2.294   1.824 -0.2996  0.1885  0.2902
 1489TIP3    H125958   6.481   2.343   1.889 -1.1769 -0.9841  1.8507
 1489TIP3    H225959   6.372   2.239   1.874 -0.8329 -0.9077 -1.4881
 1490TIP3   OH225960   2.138   6.605  10.705 -0.0620 -0.3990  0.3722
 1490TIP3    H125961   2.202   6.540  10.735  1.3928  0.8224 -0.0318
 1490TIP3    H225962   2.146   6.678  10.766 -1.3501 -0.3737  0.5377
 1491TIP3   OH225963   4.112   0.737  12.477  0.7233 -1.0299  0.1992
 1491TIP3    H125964   4.022   0.715  12.499  0.0429 -0.6895 -2.0869
 1491TIP3    H225965   4.105   0.815  12.422  2.2799 -1.8789 -1.2459
 1492TIP3   OH225966   2.837   4.342  10.309 -1.1180 -0.1959 -0.1455
 1492TIP3    H125967   2.746   4.328  10.281 -1.3418 -0.7716  0.8306
 1492TIP3    H225968   2.861   4.427  10.272 -2.0825 -0.0107 -0.3658
 1493TIP3   OH225969   6.442   2.342   1.293 -0.0094 -0.1588  0.4216
 1493TIP3    H125970   6.404   2.371   1.376 -2.3760  2.2484 -1.4118
 1493TIP3    H225971   6.379   2.279   1.258  0.1937  0.0296 -0.2867
 1494TIP3   OH225972   6.589   2.009  10.741 -0.9924 -0.2312  0.0968
 1494TIP3    H125973   6.512   1.955  10.756 -0.6565 -0.5146  0.8022
 1494TIP3    H225974   6.655   1.975  10.800 -0.5624  0.5196  0.0665
 1495TIP3   OH225975   5.324   0.924  15.854  0.7363 -0.0669  0.2502
 1495TIP3    H125976   5.246   0.976  15.873  0.0170 -0.5753 -1.1984
 1495TIP3    H225977   5.365   0.969  15.780  0.4538 -1.1721 -0.6049
 1496TIP3   OH225978   5.644   1.275   4.003 -0.6098 -0.1780 -0.0002
 1496TIP3    H125979   5.643   1.184   4.035  0.1344 -0.3854 -0.5326
 1496TIP3    H225980   5.652   1.266   3.908  0.5017  0.4432  0.0211
 1497TIP3   OH225981   0.478   6.508   3.844 -0.3215  0.2290  0.6527
 1497TIP3    H125982   0.473   6.442   3.774 -0.5601  0.2200  0.6778
 1497TIP3    H225983   0.532   6.578   3.807  1.4577 -0.7824  1.2745
 1498TIP3   OH225984   3.832   1.981   4.838 -0.2837  0.1939 -0.2374
 1498TIP3    H125985   3.763   1.916   4.851 -0.7577  0.5956 -0.7286
 1498TIP3    H225986   3.859   2.005   4.927  0.8260 -1.6578 -0.0627
 1499TIP3   OH225987   6.309   4.891  15.407  0.3688  0.0046 -0.4157
 1499TIP3    H125988   6.356   4.830  15.463 -0.1465 -1.0252 -1.0887
 1499TIP3    H225989   6.327   4.977  15.445 -0.3536 -0.7048  1.5821
 1500TIP3   OH225990   4.425   1.900   5.253 -0.2747  0.4087 -0.1488
 1500TIP3    H125991   4.483   1.825   5.251 -0.3008  0.3916 -3.7220
 1500TIP3    H225992   4.345   1.870   5.210 -0.8124  2.0368 -0.3319
 1501TIP3   OH225993   0.800   3.141  16.806 -0.2360  0.1006  0.5273
 1501TIP3    H125994   0.838   3.210  16.861 -0.5121  0.3806  0.3688
 1501TIP3    H225995   0.802   3.179  16.717 -0.5048 -0.0433  0.4599
 1502TIP3   OH225996   0.187   1.719  11.394  0.4522  0.3401  0.2671
 1502TIP3    H125997   0.097   1.752  11.400  0.6389  0.6069  1.7698
 1502TIP3    H225998   0.177   1.626  11.376 -0.1511  0.0707  1.9138
 1503TIP3   OH225999   1.793   4.413   0.223 -0.2109  0.0746 -0.1662
 1503TIP3    H126000   1.736   4.361   0.279 -1.8177  1.9494 -0.0049
 1503TIP3    H226001   1.818   4.488   0.276 -0.8452  1.2957 -1.5590
 1504TIP3   OH226002   4.744   1.812  11.814  0.0655  0.0770  0.3777
 1504TIP3    H126003   4.652   1.832  11.799  0.2442  1.4982  1.0881
 1504TIP3    H226004   4.745   1.772  11.901  0.0645 -0.3268  0.1911
 1505TIP3   OH226005   0.745   4.527  17.097  0.0461 -0.0753 -0.2157
 1505TIP3    H126006   0.775   4.475  17.023  1.3979 -0.7783  0.7883
 1505TIP3    H226007   0.826   4.558  17.138 -0.6818  0.4386  0.8481
 1506TIP3   OH226008   0.876   6.304  14.030  0.2006 -0.1889  0.3119
 1506TIP3    H126009   0.869   6.399  14.024  0.1685 -0.2063  0.0533
 1506TIP3    H226010   0.928   6.288  14.108  1.1234  0.0707 -0.2437
 1507TIP3   OH226011   5.941   1.494   2.406  0.0016 -0.0905  0.0707
 1507TIP3    H126012   5.871   1.511   2.343  0.2551  0.7255  0.0042
 1507TIP3    H226013   6.013   1.460   2.354 -0.0239 -0.0511  0.0092
 1508TIP3   OH226014   2.127   4.228  16.115  0.4142  0.6056  0.0344
 1508TIP3    H126015   2.094   4.181  16.191 -0.0704  1.6841  0.5047
 1508TIP3    H226016   2.221   4.235  16.129  0.1581  1.9220  1.1732
 1509TIP3   OH226017   6.787   1.847  16.917  0.3666  0.3235 -0.1946
 1509TIP3    H126018   6.782   1.856  16.822 -1.4654  3.8468  0.1351
 1509TIP3    H226019   6.866   1.894  16.942  0.6853 -0.3430  0.0779
 1510TIP3   OH226020   4.162   5.222   3.730  0.1704 -0.5002  0.6742
 1510TIP3    H126021   4.161   5.150   3.793 -1.0950 -0.0120  1.2180
 1510TIP3    H226022   4.219   5.191   3.659  0.1292 -1.7810  1.1939
 1511TIP3   OH226023   1.759   1.493  14.096 -0.4821 -0.0756 -0.0115
 1511TIP3    H126024   1.830   1.438  14.130  0.4733  2.5820  2.5160
 1511TIP3    H226025   1.776   1.498  14.002  1.3434 -1.3458  0.2267
 1512TIP3   OH226026   4.814   1.954  17.279  0.0454 -0.2319  0.1716
 1512TIP3    H126027   4.747   2.023  17.275 -0.4903 -0.7887 -0.5904
 1512TIP3    H226028   4.850   1.961  17.367 -1.1671 -0.0627  0.6617
 1513TIP3   OH226029   3.213   0.577  16.483 -0.3285 -0.0496 -0.2649
 1513TIP3    H126030   3.285   0.599  16.543 -1.0080 -1.0662  0.9530
 1513TIP3    H226031   3.249   0.506  16.429 -0.7062 -1.2199  0.9827
 1514TIP3   OH226032   1.834   5.823   5.257  0.0725 -0.1754 -0.2972
 1514TIP3    H126033   1.859   5.772   5.180  0.8280 -0.9979  0.4665
 1514TIP3    H226034   1.859   5.913   5.236 -0.1974 -0.3143 -1.2107
 1515TIP3   OH226035   4.410   5.582   3.236 -0.2359  0.1772 -0.3158
 1515TIP3    H126036   4.399   5.487   3.236 -0.4438  0.1772  1.3183
 1515TIP3    H226037   4.398   5.609   3.145  2.4739 -1.6485 -1.2597
 1516TIP3   OH226038   0.605   3.474  15.736  0.1328  0.3798 -0.5093
 1516TIP3    H126039   0.610   3.387  15.774 -0.1480 -0.3882 -2.1849
 1516TIP3    H226040   0.516   3.504  15.755  0.9396  1.2625  2.0621
 1517TIP3   OH226041   5.343   2.454   0.312 -0.3549  0.1007 -0.2264
 1517TIP3    H126042   5.250   2.430   0.311 -0.0936 -0.9446  0.6570
 1517TIP3    H226043   5.389   2.373   0.332  0.8296  0.4104 -1.6304
 1518TIP3   OH226044   2.534   1.161  13.136 -0.7184  0.9163  0.2535
 1518TIP3    H126045   2.605   1.103  13.166 -0.1647  1.2057 -0.5066
 1518TIP3    H226046   2.545   1.166  13.041 -1.2836  1.5969  0.2224
 1519TIP3   OH226047   5.353   4.731  14.880 -1.0651 -0.7658 -1.0661
 1519TIP3    H126048   5.359   4.697  14.969  0.2504 -0.1744 -0.9256
 1519TIP3    H226049   5.400   4.666  14.827 -0.0057 -0.0244 -1.0313
 1520TIP3   OH226050   4.118   0.714  16.105 -0.2873 -0.0030  0.2296
 1520TIP3    H126051   4.057   0.717  16.030  0.8893 -1.2366 -0.7916
 1520TIP3    H226052   4.191   0.770  16.078  0.9825 -1.8979 -0.3027
 1521TIP3   OH226053   5.288   3.554   0.709 -0.0368  0.0122  0.0166
 1521TIP3    H126054   5.221   3.532   0.644  1.1033 -2.7901 -0.2717
 1521TIP3    H226055   5.240   3.558   0.792 -0.5223 -2.4380 -0.1117
 1522TIP3   OH226056   3.400   4.272   0.148 -0.6068  0.1714 -0.0845
 1522TIP3    H126057   3.331   4.216   0.113 -0.0442 -1.2259  1.0057
 1522TIP3    H226058   3.356   4.356   0.164 -1.4592  0.0555 -1.7088
 1523TIP3   OH226059   0.463   0.357   1.497 -0.0672  0.2676 -0.2908
 1523TIP3    H126060   0.413   0.400   1.427  1.1826  1.5926 -0.3878
 1523TIP3    H226061   0.524   0.424   1.528  0.2714 -0.7039  1.2071
 1524TIP3   OH226062   5.023   5.282   3.651 -0.6125 -0.0211 -0.4814
 1524TIP3    H126063   4.991   5.281   3.741  1.4541  0.3181  0.2878
 1524TIP3    H226064   4.986   5.362   3.613  0.7130  1.3030  0.9281
 1525TIP3   OH226065   5.814   5.316   2.203  0.3852 -0.1580 -0.1718
 1525TIP3    H126066   5.752   5.377   2.163 -1.6004 -2.2824 -0.5090
 1525TIP3    H226067   5.765   5.276   2.275  1.4834 -1.6010 -0.1883
 1526TIP3   OH226068   4.295   2.578   4.156 -0.2112  0.3592 -0.1329
 1526TIP3    H126069   4.335   2.529   4.228 -3.1730  1.0170  2.0551
 1526TIP3    H226070   4.327   2.667   4.167  0.2402  0.2237 -0.3312
 1527TIP3   OH226071   6.440   6.768  14.778  0.0966  0.4010 -0.7391
 1527TIP3    H126072   6.490   6.850  14.771 -1.8829  1.6915 -0.3011
 1527TIP3    H226073   6.381   6.771  14.703 -1.1224  0.1830  0.1975
 1528TIP3   OH226074   3.224   2.751   1.492  0.0113 -0.1463  0.5268
 1528TIP3    H126075   3.145   2.707   1.462 -0.3797 -0.5208  2.0999
 1528TIP3    H226076   3.294   2.710   1.441 -0.9271  1.2328 -1.9674
 1529TIP3   OH226077   4.237   0.760  14.513 -0.1542 -0.6031 -0.0136
 1529TIP3    H126078   4.151   0.766  14.471  0.0076  1.2457 -0.1516
 1529TIP3    H226079   4.218   0.740  14.605 -0.9353  2.6810  0.6120
 1530TIP3   OH226080   3.270   1.281   5.572  0.5147  0.0380 -0.2495
 1530TIP3    H126081   3.293   1.348   5.636  0.9125  0.1052 -0.4638
 1530TIP3    H226082   3.245   1.205   5.625  1.5916 -0.1631 -0.0211
 1531TIP3   OH226083   2.868   3.524  12.941  0.0272 -0.5417 -0.3366
 1531TIP3    H126084   2.817   3.475  13.005 -0.7865 -0.5862 -1.0181
 1531TIP3    H226085   2.817   3.602  12.923  0.6476 -0.1297 -0.3237
 1532TIP3   OH226086   2.444   0.743   5.438  0.1935 -0.2510 -0.3654
 1532TIP3    H126087   2.431   0.679   5.368  1.6547 -0.8834 -0.0795
 1532TIP3    H226088   2.370   0.803   5.430 -1.3798 -2.1399 -0.4559
 1533TIP3   OH226089   3.804   0.029  17.154 -0.0844  0.0828 -0.1027
 1533TIP3    H126090   3.720   0.074  17.159 -0.1866  0.0174 -1.0472
 1533TIP3    H226091   3.865   0.088  17.198 -0.2180  1.1584 -1.3174
 1534TIP3   OH226092   5.213   6.150  15.740 -1.0859 -0.2624 -0.3078
 1534TIP3    H126093   5.251   6.235  15.717 -1.3400 -0.3610 -1.1101
 1534TIP3    H226094   5.156   6.169  15.815 -0.2234  0.0567  0.2814
 1535TIP3   OH226095   2.217   3.370  14.854 -0.1825 -0.7778 -0.3546
 1535TIP3    H126096   2.165   3.447  14.833  1.3132  0.3308 -0.0881
 1535TIP3    H226097   2.225   3.371  14.949 -0.9553 -1.8123 -0.2629
 1536TIP3   OH226098   3.497   3.112   1.660 -0.0302 -0.0897  0.2629
 1536TIP3    H126099   3.462   3.131   1.573 -0.2503  0.5364  0.4836
 1536TIP3    H226100   3.422   3.080   1.710  0.1458 -0.6669  0.1549
 1537TIP3   OH226101   5.788   6.746  13.799  0.5320  0.8321 -0.4050
 1537TIP3    H126102   5.834   6.735  13.883 -1.7372 -0.2582  0.7467
 1537TIP3    H226103   5.782   6.657  13.764  0.3585  1.1267 -1.1213
 1538TIP3   OH226104   5.265   2.502  12.371  0.2412  0.1595  0.1404
 1538TIP3    H126105   5.339   2.536  12.421 -1.0814  0.9228  1.6368
 1538TIP3    H226106   5.196   2.490  12.437 -0.3338 -2.4160 -0.8781
 1539TIP3   OH226107   2.337   1.513  11.285  0.3492 -0.6090  0.1983
 1539TIP3    H126108   2.418   1.559  11.262  1.0051 -1.8603 -0.0200
 1539TIP3    H226109   2.359   1.463  11.363 -0.1227 -1.1800 -0.0292
 1540TIP3   OH226110   3.167   3.662  11.636  0.1742 -0.2025  0.1426
 1540TIP3    H126111   3.072   3.666  11.651 -0.3152 -3.2804 -1.7675
 1540TIP3    H226112   3.199   3.599  11.700  0.7240 -0.1401 -0.0670
 1541TIP3   OH226113   6.506   4.548   1.746 -0.1067 -0.0365  0.2914
 1541TIP3    H126114   6.545   4.523   1.663  0.4480  1.5340  0.0651
 1541TIP3    H226115   6.415   4.567   1.725  0.6292  2.8230 -0.4605
 1542TIP3   OH226116   5.771   3.076  13.283 -0.0408  0.4763  0.8927
 1542TIP3    H126117   5.783   3.166  13.314  0.5961  0.9647 -0.7410
 1542TIP3    H226118   5.840   3.027  13.326  0.6496  1.0905  0.4992
 1543TIP3   OH226119   4.752   3.307   4.021  0.6167 -0.1350 -0.4223
 1543TIP3    H126120   4.686   3.281   4.085  2.2655  0.7483  1.7079
 1543TIP3    H226121   4.804   3.373   4.067  1.6089  0.7912 -2.8271
 1544TIP3   OH226122   0.671   4.712   5.548  0.1820 -0.2776  0.4898
 1544TIP3    H126123   0.659   4.664   5.630 -0.2220 -0.6474  0.2181
 1544TIP3    H226124   0.645   4.649   5.480  1.6771 -0.3904  0.0036
 1545TIP3   OH226125   2.722   0.666   5.063  0.5778  0.0839  0.5765
 1545TIP3    H126126   2.627   0.672   5.077  0.4338 -0.9784  0.1137
 1545TIP3    H226127   2.734   0.582   5.020  1.4747  1.2844 -1.5773
 1546TIP3   OH226128   6.646   4.004   5.637  0.9773  0.4972  0.3676
 1546TIP3    H126129   6.672   3.913   5.621 -0.4356  0.1676 -0.0726
 1546TIP3    H226130   6.625   4.008   5.730 -0.3660  0.0076  0.0967
 1547TIP3   OH226131   1.534   3.943  14.781  0.1369  0.4345  0.0024
 1547TIP3    H126132   1.498   4.009  14.839 -1.6350  0.9629 -1.6541
 1547TIP3    H226133   1.614   3.983  14.746  0.9116  0.3263  1.6087
 1548TIP3   OH226134   5.819   3.029  17.232  0.0986 -0.7562  0.1953
 1548TIP3    H126135   5.894   3.087  17.249  0.2060 -1.3127  1.6937
 1548TIP3    H226136   5.852   2.965  17.169 -0.0038  0.7418 -1.4508
 1549TIP3   OH226137   0.379   4.613   0.079  0.2204 -0.1796 -0.1994
 1549TIP3    H126138   0.439   4.579   0.012 -1.0738 -1.2535 -0.8281
 1549TIP3    H226139   0.292   4.594   0.045 -0.4836  1.1637  0.8244
 1550TIP3   OH226140   4.126   5.749   3.375 -0.3845  0.2734  0.2981
 1550TIP3    H126141   4.058   5.766   3.440 -1.7044 -0.2961 -0.9111
 1550TIP3    H226142   4.149   5.656   3.387  0.6032  0.6080  1.0833
 1551TIP3   OH226143   1.656   0.255  12.582  0.5161 -0.0728 -0.4558
 1551TIP3    H126144   1.607   0.219  12.508 -1.8365 -1.7537  1.7852
 1551TIP3    H226145   1.687   0.177  12.630 -0.5875  0.8841  1.9148
 1552TIP3   OH226146   3.770   1.854   0.028  0.2551 -0.9275 -0.3016
 1552TIP3    H126147   3.849   1.849   0.082  2.0433 -1.6244 -2.8737
 1552TIP3    H226148   3.770   1.943  -0.007 -0.9059 -0.4665  0.8570
 1553TIP3   OH226149   5.605   1.969  11.753 -0.1434  0.1988  0.2868
 1553TIP3    H126150   5.515   1.994  11.774 -0.3112  0.3286 -0.5417
 1553TIP3    H226151   5.635   2.037  11.693  0.0380 -0.5625 -0.5104
 1554TIP3   OH226152   2.232   0.929  14.161 -0.5100 -0.3299  0.2455
 1554TIP3    H126153   2.235   0.975  14.245 -1.3097  0.2606 -0.0426
 1554TIP3    H226154   2.195   0.843  14.181  1.9114 -1.2555  0.9560
 1555TIP3   OH226155   3.694   4.908  15.926  0.2415 -0.7176 -0.0571
 1555TIP3    H126156   3.703   4.838  15.861  2.1209  0.7261 -1.4119
 1555TIP3    H226157   3.672   4.985  15.874 -0.1285  0.0628  1.2523
 1556TIP3   OH226158   1.298   4.159  15.907  0.2658 -0.2048  0.3043
 1556TIP3    H126159   1.355   4.083  15.923 -1.6057 -1.9681 -1.1211
 1556TIP3    H226160   1.239   4.162  15.983  1.6557  1.1071  1.3661
 1557TIP3   OH226161   5.820   0.489  16.496  0.1891  0.1834 -0.7038
 1557TIP3    H126162   5.733   0.525  16.477  0.7560  2.5367  0.9285
 1557TIP3    H226163   5.808   0.440  16.577  0.4921  1.0370 -0.1329
 1558TIP3   OH226164   3.231   0.767   2.524 -0.0686 -0.3489  0.4506
 1558TIP3    H126165   3.206   0.842   2.471  0.7434 -0.7265 -0.4682
 1558TIP3    H226166   3.318   0.788   2.557 -0.1318 -0.5848  0.7819
 1559TIP3   OH226167   1.693   4.252  12.243 -0.0663  0.1539 -0.0112
 1559TIP3    H126168   1.758   4.313  12.207  0.6826 -0.4715  0.2715
 1559TIP3    H226169   1.726   4.166  12.218 -1.7943 -0.0855 -1.5403
 1560TIP3   OH226170   1.651   2.099   1.155 -0.0858 -0.2753 -0.1167
 1560TIP3    H126171   1.616   2.153   1.226  0.5998 -2.6167  2.0620
 1560TIP3    H226172   1.580   2.038   1.133  0.6147 -1.2546  0.3380
 1561TIP3   OH226173   6.383   0.742  16.548  0.2018 -0.0671  0.3168
 1561TIP3    H126174   6.309   0.703  16.503 -0.7041 -0.1956  1.8870
 1561TIP3    H226175   6.351   0.760  16.637  2.1503 -0.5014  1.1433
 1562TIP3   OH226176   0.328   0.983   2.003  0.2292  0.0344  0.1215
 1562TIP3    H126177   0.328   0.937   1.919 -1.0573  0.1950  0.0216
 1562TIP3    H226178   0.341   1.075   1.980 -1.4067  0.2456 -0.0179
 1563TIP3   OH226179   4.561   3.415  16.343  0.5030 -0.0988 -0.6799
 1563TIP3    H126180   4.585   3.476  16.412 -0.1941 -0.8092  0.2037
 1563TIP3    H226181   4.614   3.337  16.361  1.2095  0.1346 -1.6604
 1564TIP3   OH226182   6.685   1.057   1.986  0.1898  0.4143  0.2709
 1564TIP3    H126183   6.764   1.008   2.011  2.7016  3.0719 -2.0935
 1564TIP3    H226184   6.664   1.026   1.898 -0.9260  0.3090  0.5731
 1565TIP3   OH226185   6.535   0.362  15.671 -0.3853 -0.4807  0.5013
 1565TIP3    H126186   6.444   0.372  15.644  0.0835 -0.1861 -1.0451
 1565TIP3    H226187   6.542   0.413  15.751 -2.1606 -2.4828  2.0093
 1566TIP3   OH226188   6.527   2.723   5.362  0.4078  1.0197  0.0371
 1566TIP3    H126189   6.565   2.650   5.411 -0.3151  0.7156  0.1454
 1566TIP3    H226190   6.470   2.682   5.297 -1.1515  1.5379  1.0658
 1567TIP3   OH226191   2.836   0.073  11.584  0.0894 -0.1388 -0.5242
 1567TIP3    H126192   2.766   0.124  11.541 -0.5615 -0.7681 -0.2160
 1567TIP3    H226193   2.795  -0.011  11.604  1.1764 -0.8067 -1.0662
 1568TIP3   OH226194   0.684   4.178  14.016  0.4267  0.3657  0.4315
 1568TIP3    H126195   0.753   4.187  13.950  1.2078 -0.2620  1.1384
 1568TIP3    H226196   0.607   4.150  13.967  0.5453  1.5365 -0.4357
 1569TIP3   OH226197   3.429   2.765  11.938  0.6425  0.4826 -0.0746
 1569TIP3    H126198   3.464   2.802  12.019  2.8032  0.7991 -1.1082
 1569TIP3    H226199   3.499   2.777  11.874 -0.5247 -0.9359 -1.6735
 1570TIP3   OH226200   3.966   4.974   1.057  0.1510  1.0589  0.2715
 1570TIP3    H126201   3.949   5.068   1.070  0.5544  1.1275  0.3135
 1570TIP3    H226202   4.039   4.955   1.115  0.8104  0.9656 -0.5883
 1571TIP3   OH226203   0.921   1.414   2.176 -0.1564  0.4955 -0.2405
 1571TIP3    H126204   0.956   1.371   2.254 -1.8374  1.0545  0.8380
 1571TIP3    H226205   0.997   1.459   2.138  0.7866 -0.2106  0.7637
 1572TIP3   OH226206   3.706   5.086  15.677 -0.0507  0.1697 -0.1544
 1572TIP3    H126207   3.731   5.145  15.607 -0.2052 -0.9953 -1.2164
 1572TIP3    H226208   3.670   5.009  15.632  1.6853 -1.4522  1.1240
 1573TIP3   OH226209   5.856   4.998  14.278 -0.0272 -0.3074 -0.3376
 1573TIP3    H126210   5.942   5.039  14.291  1.1639 -2.7672 -0.1365
 1573TIP3    H226211   5.843   4.946  14.357 -1.4672 -0.3751 -0.6159
 1574TIP3   OH226212   1.460   1.558   0.703  0.4981  0.0218  0.1132
 1574TIP3    H126213   1.545   1.516   0.717  0.1284 -0.6299  0.4211
 1574TIP3    H226214   1.451   1.562   0.608  0.1999 -1.3119  0.0670
 1575TIP3   OH226215   1.555   0.394   0.987  0.3006  0.1829 -0.4445
 1575TIP3    H126216   1.520   0.334   1.053  0.6157  0.0819 -0.3688
 1575TIP3    H226217   1.489   0.464   0.981 -0.0078 -0.1073 -0.4469
 1576TIP3   OH226218   1.358   6.199  12.661  0.1234  0.1855  0.0342
 1576TIP3    H126219   1.314   6.141  12.723 -0.2690 -1.4698 -1.7233
 1576TIP3    H226220   1.386   6.274  12.713 -1.8287 -0.2899  1.8471
 1577TIP3   OH226221   0.564   5.077  15.245 -0.3224 -0.0151  0.2606
 1577TIP3    H126222   0.643   5.088  15.191 -0.0487  1.4496  0.9229
 1577TIP3    H226223   0.582   4.999  15.297  1.6232  1.4591  1.8972
 1578TIP3   OH226224   2.213   0.256   0.929  0.3900  0.3256 -0.7669
 1578TIP3    H126225   2.152   0.314   0.974  0.2564  0.9922 -1.7894
 1578TIP3    H226226   2.157   0.201   0.875  0.3230 -2.3571  1.9246
 1579TIP3   OH226227   6.451   3.708  13.566 -0.0168  0.1698 -0.6127
 1579TIP3    H126228   6.521   3.680  13.625  0.8529 -2.1555 -2.6654
 1579TIP3    H226229   6.480   3.793  13.533  2.4872 -1.2896 -2.3567
 1580TIP3   OH226230   3.366   3.846  11.099 -0.2748  0.0736 -0.3262
 1580TIP3    H126231   3.437   3.809  11.046  0.3277 -0.5729  0.9083
 1580TIP3    H226232   3.411   3.896  11.167 -1.0577  1.6040 -0.9037
 1581TIP3   OH226233   3.893   5.118   1.642 -0.9790 -0.0587 -0.6160
 1581TIP3    H126234   3.865   5.186   1.581  1.7169 -0.3612 -2.2912
 1581TIP3    H226235   3.973   5.153   1.681 -0.5014 -1.5510 -0.2351
 1582TIP3   OH226236   3.913   5.020  16.130  0.0139  0.1272  0.0268
 1582TIP3    H126237   3.932   5.015  16.036  1.6515  1.7489  0.2319
 1582TIP3    H226238   3.850   5.092  16.138 -2.1016 -1.6852 -0.0790
 1583TIP3   OH226239   2.733   4.592  13.899 -0.2469 -0.1675  0.8980
 1583TIP3    H126240   2.710   4.639  13.980  1.2748  0.1050  1.1958
 1583TIP3    H226241   2.795   4.526  13.928  0.2926 -0.0772 -0.0569
 1584TIP3   OH226242   4.918   4.385  15.333  0.1411 -0.5041 -0.3900
 1584TIP3    H126243   4.840   4.440  15.343 -0.3715 -1.1401 -0.8414
 1584TIP3    H226244   4.884   4.296  15.335  0.5574 -0.7514 -3.0594
 1585TIP3   OH226245   1.518   3.768   3.833  1.2476  0.1587 -0.5474
 1585TIP3    H126246   1.470   3.850   3.820  0.1280 -0.4719 -0.4530
 1585TIP3    H226247   1.457   3.712   3.881  1.4738 -1.2359 -1.8472
 1586TIP3   OH226248   5.889   6.811   1.527  0.4011  0.3122  0.1092
 1586TIP3    H126249   5.954   6.747   1.498  1.1912  1.0877  0.1601
 1586TIP3    H226250   5.937   6.870   1.585 -0.9082 -0.5920  2.2192
 1587TIP3   OH226251   2.433   4.648   1.464 -0.0356 -0.0672  0.3645
 1587TIP3    H126252   2.396   4.736   1.463  0.0461 -0.0413 -0.3577
 1587TIP3    H226253   2.356   4.590   1.466 -0.0831  0.0258  1.5425
 1588TIP3   OH226254   4.411   3.632   3.623 -1.0558 -1.0589 -0.0455
 1588TIP3    H126255   4.332   3.614   3.572  1.4743 -2.1693 -3.7811
 1588TIP3    H226256   4.427   3.551   3.672 -3.1402 -0.2139  2.1173
 1589TIP3   OH226257   1.317   4.684   5.367  0.2559  0.0389 -0.3983
 1589TIP3    H126258   1.337   4.754   5.305  1.7258  0.2952  0.3313
 1589TIP3    H226259   1.308   4.730   5.451 -0.2134 -0.4877 -0.1577
 1590TIP3   OH226260   4.352   2.690   3.299  0.1196  0.0852  0.2071
 1590TIP3    H126261   4.371   2.626   3.368  1.2214 -0.4694 -0.5955
 1590TIP3    H226262   4.264   2.721   3.319  1.2786  1.6818  3.2657
 1591TIP3   OH226263   2.378   1.989   6.196  1.0517  0.4367 -0.3785
 1591TIP3    H126264   2.461   1.992   6.243  2.0015  0.4646 -1.9987
 1591TIP3    H226265   2.351   1.897   6.202  2.4940 -0.1187 -1.9677
 1592TIP3   OH226266   3.176   6.628  14.042 -0.4037  1.0256 -0.1719
 1592TIP3    H126267   3.104   6.682  14.010 -4.1355 -2.9322  1.0858
 1592TIP3    H226268   3.181   6.648  14.136 -1.3286 -0.2907  0.1619
 1593TIP3   OH226269   3.568   2.168  11.391  0.0044 -0.1719  0.5557
 1593TIP3    H126270   3.595   2.104  11.326 -0.3477 -1.4639  1.6622
 1593TIP3    H226271   3.647   2.184  11.443 -0.5856 -1.7826  1.9866
 1594TIP3   OH226272   5.258   1.005  16.944 -0.5358 -0.0837  0.2877
 1594TIP3    H126273   5.318   1.079  16.942 -2.0854  1.2633  2.1589
 1594TIP3    H226274   5.308   0.935  16.987  0.0343  0.7032  0.9071
 1595TIP3   OH226275   6.097   3.856  13.050  0.3262 -0.3925  0.3162
 1595TIP3    H126276   6.073   3.928  12.992 -0.1045 -0.3180  0.5827
 1595TIP3    H226277   6.126   3.898  13.131  0.5089 -0.5057  0.3101
 1596TIP3   OH226278   3.620   2.606   0.853 -0.0045 -0.0458  0.2705
 1596TIP3    H126279   3.601   2.542   0.784 -1.0461 -1.3224  1.6968
 1596TIP3    H226280   3.536   2.618   0.898  0.5870  0.9937  1.1238
 1597TIP3   OH226281   0.215   5.517   0.687  0.9763 -0.0057  0.3904
 1597TIP3    H126282   0.139   5.576   0.690  1.0502  0.1168 -0.0149
 1597TIP3    H226283   0.220   5.490   0.595  0.0368 -1.8610  0.8764
 1598TIP3   OH226284   2.203   1.257   1.196 -0.0014 -0.4983  0.7431
 1598TIP3    H126285   2.208   1.351   1.214  2.0952  0.2109 -2.8638
 1598TIP3    H226286   2.263   1.217   1.259  1.9749  1.0422 -0.0873
 1599TIP3   OH226287   1.585   2.766   2.721 -0.6127  0.3953 -1.0593
 1599TIP3    H126288   1.580   2.730   2.632  0.1505 -0.5172 -0.7424
 1599TIP3    H226289   1.659   2.826   2.718 -1.9840  2.1041 -1.6297
 1600TIP3   OH226290   0.060   4.661  14.943 -0.0556 -0.4389  0.5931
 1600TIP3    H126291   0.063   4.685  15.036  0.4530 -0.1271  0.4993
 1600TIP3    H226292   0.118   4.724  14.901  0.7719 -1.4389  0.2430
 1601TIP3   OH226293   3.838   6.796  12.402  0.2835 -0.2274 -0.0648
 1601TIP3    H126294   3.873   6.818  12.489 -1.9535  1.0829  0.5768
 1601TIP3    H226295   3.902   6.832  12.341  1.6615 -0.7443  1.0382
 1602TIP3   OH226296   5.113   2.292   3.982 -0.3706  0.3293 -0.2046
 1602TIP3    H126297   5.209   2.289   3.983 -0.3968 -1.0084 -0.4737
 1602TIP3    H226298   5.092   2.376   3.941  0.6817  0.6645 -0.0782
 1603TIP3   OH226299   2.263   6.686  12.754 -0.6202  0.1435 -0.4718
 1603TIP3    H126300   2.281   6.727  12.838 -1.1056 -0.1007 -0.2485
 1603TIP3    H226301   2.338   6.711  12.699  1.0158 -1.8171  0.7734
 1604TIP3   OH226302   1.605   3.971  16.663 -0.0288 -0.1484  0.0928
 1604TIP3    H126303   1.555   4.052  16.672  0.9256  0.4827 -0.1775
 1604TIP3    H226304   1.592   3.925  16.746 -2.7843 -1.0037 -0.7762
 1605TIP3   OH226305   5.795   0.449   1.013 -0.8442 -0.0387  0.9584
 1605TIP3    H126306   5.790   0.373   1.071 -1.8776 -0.0831  0.8265
 1605TIP3    H226307   5.842   0.515   1.064 -0.6121 -0.5160  1.3610
 1606TIP3   OH226308   5.813   4.324  10.942 -0.4207  0.1738 -0.1002
 1606TIP3    H126309   5.749   4.300  10.875 -0.0716  0.0534 -0.3932
 1606TIP3    H226310   5.890   4.269  10.923  0.6028  1.9216 -1.1386
 1607TIP3   OH226311   2.293   4.329   0.207 -0.1721  0.0783  0.2472
 1607TIP3    H126312   2.341   4.250   0.230 -0.1506  0.5182  1.7057
 1607TIP3    H226313   2.232   4.342   0.279 -0.2329  1.3489 -0.0286
 1608TIP3   OH226314   4.281   6.077   3.500  0.8167 -0.5574 -0.0150
 1608TIP3    H126315   4.262   6.057   3.591  1.3998  0.7159  0.4059
 1608TIP3    H226316   4.363   6.031   3.482  0.2248 -1.5593 -0.1822
 1609TIP3   OH226317   1.336   3.040  11.770 -0.3466  0.0897  0.5162
 1609TIP3    H126318   1.296   2.985  11.702  1.0379  0.6638 -0.7886
 1609TIP3    H226319   1.360   2.978  11.839  0.7299 -0.8804 -0.7094
 1610TIP3   OH226320   2.110   6.419   0.638 -0.4924 -0.1877  0.1951
 1610TIP3    H126321   2.175   6.394   0.703 -0.6832  1.3915  0.9952
 1610TIP3    H226322   2.159   6.465   0.571 -0.3145 -1.7133 -0.7527
 1611TIP3   OH226323   0.514   2.886  13.026  0.1233  0.5607 -0.0582
 1611TIP3    H126324   0.451   2.959  13.028 -2.0418 -1.2059 -1.6527
 1611TIP3    H226325   0.537   2.878  12.933 -1.2419 -2.0567 -0.2047
 1612TIP3   OH226326   5.682   5.439   0.584 -0.7824  0.0326 -0.5820
 1612TIP3    H126327   5.652   5.482   0.663  1.2678 -0.0490  0.2848
 1612TIP3    H226328   5.633   5.480   0.513 -2.3586  0.3685  0.6885
 1613TIP3   OH226329   4.969   4.989  13.735  0.5140  0.3254  0.1973
 1613TIP3    H126330   4.878   4.975  13.709  0.9313 -3.1975  0.4569
 1613TIP3    H226331   4.989   5.077  13.704 -2.4225  0.4848 -1.4476
 1614TIP3   OH226332   6.297   2.884  13.252 -0.1382 -0.3094  0.0518
 1614TIP3    H126333   6.275   2.847  13.166 -0.3685 -3.0116  1.2252
 1614TIP3    H226334   6.345   2.814  13.296  1.1592  1.5497  1.6396
 1615TIP3   OH226335   4.696   2.494   3.430 -0.4169  0.4212 -0.1358
 1615TIP3    H126336   4.709   2.584   3.458 -0.9062  0.3379  0.3707
 1615TIP3    H226337   4.765   2.445   3.474 -0.8080  0.3855  0.4400
 1616TIP3   OH226338   1.728   0.437   4.969 -0.4132  0.2305  0.0742
 1616TIP3    H126339   1.715   0.346   4.942 -0.3769  0.1264  0.4099
 1616TIP3    H226340   1.742   0.433   5.064  0.2562  0.5230 -0.0098
 1617TIP3   OH226341   3.108   1.727   3.429 -0.1197 -0.3387  0.0391
 1617TIP3    H126342   3.115   1.806   3.376  0.7991 -0.3129  0.1947
 1617TIP3    H226343   3.032   1.742   3.485 -0.4437  0.0839 -0.5122
 1618TIP3   OH226344   1.191   5.721  11.227 -0.4438  1.0068  0.3190
 1618TIP3    H126345   1.244   5.797  11.202 -0.4129  1.5715  2.0683
 1618TIP3    H226346   1.102   5.746  11.202 -0.3698  1.4258  0.4587
 1619TIP3   OH226347   3.765   5.767   0.603  0.3925 -0.1195  0.2598
 1619TIP3    H126348   3.754   5.753   0.509  0.7288 -0.6216  0.2913
 1619TIP3    H226349   3.676   5.781   0.636  0.2329 -0.3597 -0.0665
 1620TIP3   OH226350   3.147   3.591  14.347  0.4779 -0.4847 -0.5884
 1620TIP3    H126351   3.133   3.627  14.260  0.5607  1.9992  0.3835
 1620TIP3    H226352   3.180   3.665  14.399  0.1251 -1.8277  1.6314
 1621TIP3   OH226353   0.621   0.510  15.915 -0.1867 -0.3308  0.3973
 1621TIP3    H126354   0.651   0.582  15.860 -0.5652  0.1618  0.8278
 1621TIP3    H226355   0.615   0.435  15.856  1.8293 -0.4325  0.2882
 1622TIP3   OH226356   3.092   4.097  16.128 -0.4527 -0.6159 -0.2506
 1622TIP3    H126357   3.138   4.052  16.199 -1.1709 -2.5554 -0.9553
 1622TIP3    H226358   3.101   4.190  16.147  1.2752 -1.0606  1.1584
 1623TIP3   OH226359   0.891   5.561  12.837 -0.0430  0.0422 -0.8258
 1623TIP3    H126360   0.816   5.605  12.799  1.4723  3.0215 -0.5207
 1623TIP3    H226361   0.854   5.505  12.906 -1.9758  1.3650 -0.7557
 1624TIP3   OH226362   0.917   4.378   0.366 -0.8338  0.1398 -0.1380
 1624TIP3    H126363   0.934   4.465   0.402 -0.4955  0.0066  0.0240
 1624TIP3    H226364   0.987   4.364   0.303 -0.9675  0.0392 -0.2657
 1625TIP3   OH226365   0.430   3.456   1.414 -0.3513  0.3887  0.3925
 1625TIP3    H126366   0.352   3.511   1.410  0.4696  1.7297  2.0534
 1625TIP3    H226367   0.432   3.423   1.504  0.5005 -0.3353  0.1122
 1626TIP3   OH226368   0.980   3.255  15.743 -0.2500 -0.3988  0.3081
 1626TIP3    H126369   0.897   3.220  15.775 -0.0186 -1.1971  0.0436
 1626TIP3    H226370   1.007   3.319  15.809  0.2090 -2.0062  1.7041
 1627TIP3   OH226371   6.553   3.041  11.149  0.0253 -0.6312 -0.3599
 1627TIP3    H126372   6.466   3.009  11.125 -0.2860  0.2002 -0.3639
 1627TIP3    H226373   6.574   2.994  11.230 -1.4248  0.8421  0.9069
 1628TIP3   OH226374   1.541   1.555  12.714 -0.1022 -1.1830 -0.1706
 1628TIP3    H126375   1.615   1.512  12.756  1.6087  0.5870 -1.3266
 1628TIP3    H226376   1.574   1.585  12.630 -1.9640  0.1296 -0.4812
 1629TIP3   OH226377   0.497   0.741  12.269  0.4211  0.4015  0.0338
 1629TIP3    H126378   0.550   0.819  12.284 -0.4739  1.1107 -0.4404
 1629TIP3    H226379   0.444   0.733  12.348  1.0600 -0.1814  0.4119
 1630TIP3   OH226380   3.733   3.629   2.697  0.2961 -0.2657 -0.3131
 1630TIP3    H126381   3.659   3.612   2.756  0.1660  0.7632 -0.1647
 1630TIP3    H226382   3.766   3.542   2.674 -0.0906 -0.6952  0.7218
 1631TIP3   OH226383   6.706   6.389   4.702 -0.2401 -0.5435 -0.0678
 1631TIP3    H126384   6.623   6.425   4.732  1.2301  1.8282  1.3572
 1631TIP3    H226385   6.741   6.456   4.643  1.1638 -0.9466  0.2829
 1632TIP3   OH226386   6.019   1.604  14.294  0.1179  0.0999  0.2985
 1632TIP3    H126387   5.941   1.629  14.243  0.0365  0.3008  0.5258
 1632TIP3    H226388   6.093   1.629  14.239  0.0384 -3.4678 -1.6439
 1633TIP3   OH226389   2.602   5.623  17.276  0.1451  0.1297  0.5211
 1633TIP3    H126390   2.563   5.562  17.213  0.4703  0.1043  0.3414
 1633TIP3    H226391   2.693   5.594  17.283  0.1442  0.2173  0.9000
 1634TIP3   OH226392   3.965   5.779   5.714  0.1406 -0.9340 -0.6947
 1634TIP3    H126393   3.888   5.742   5.758  0.1195 -1.0299 -0.8108
 1634TIP3    H226394   3.930   5.822   5.637 -0.0162  0.8146  0.3382
 1635TIP3   OH226395   6.574   2.722   3.033 -0.5402 -0.0394  0.1419
 1635TIP3    H126396   6.569   2.815   3.055 -2.7645 -0.0661 -0.1586
 1635TIP3    H226397   6.667   2.700   3.041  0.1367  2.4155 -0.6481
 1636TIP3   OH226398   1.516   2.264  15.619 -0.1164 -0.4711  0.0008
 1636TIP3    H126399   1.424   2.282  15.639 -0.0051  2.8081 -2.0024
 1636TIP3    H226400   1.515   2.231  15.530  0.7513  1.2104 -0.6571
 1637TIP3   OH226401   0.077   2.892   1.629  0.0667  0.6911  0.0869
 1637TIP3    H126402   0.060   2.842   1.709  0.3752 -0.7947 -0.7517
 1637TIP3    H226403   0.018   2.967   1.635 -0.0169  0.5325  1.6388
 1638TIP3   OH226404   5.330   2.599   3.788 -0.1313  0.0703 -0.4984
 1638TIP3    H126405   5.260   2.597   3.854  0.3823 -1.9305  0.0404
 1638TIP3    H226406   5.368   2.686   3.796 -0.5942  0.1400  1.3478
 1639TIP3   OH226407   1.601   4.162  16.351  0.1043 -0.9921  0.2133
 1639TIP3    H126408   1.618   4.196  16.263  0.5395  0.4814  0.8534
 1639TIP3    H226409   1.506   4.168  16.361  0.3431  1.9259  1.0462
 1640TIP3   OH226410   1.771   1.468  12.855 -0.1118 -0.3269 -0.3645
 1640TIP3    H126411   1.725   1.532  12.910 -0.9177 -1.4414  0.2637
 1640TIP3    H226412   1.834   1.427  12.914  0.0305 -0.4913 -0.6328
 1641TIP3   OH226413   0.796   2.350   4.563  0.0938  0.6311  0.7683
 1641TIP3    H126414   0.776   2.256   4.557 -1.2067  0.9733 -0.4458
 1641TIP3    H226415   0.879   2.353   4.612  1.3756 -1.3065 -1.1610
 1642TIP3   OH226416   5.587   1.694  13.196 -0.5562 -0.5836  0.0138
 1642TIP3    H126417   5.599   1.762  13.263 -1.0424  0.5701 -1.0497
 1642TIP3    H226418   5.658   1.708  13.134 -1.2700 -0.3570 -0.7676
 1643TIP3   OH226419   2.978   2.616   1.391  0.1931 -0.7555  0.0304
 1643TIP3    H126420   2.930   2.655   1.318  0.6239 -3.1729 -1.6091
 1643TIP3    H226421   2.913   2.606   1.460 -0.1666  1.7659  0.1254
 1644TIP3   OH226422   4.224   1.697  10.837 -0.7055 -0.7226 -0.2349
 1644TIP3    H126423   4.273   1.665  10.761 -1.3948 -2.2918 -0.0580
 1644TIP3    H226424   4.191   1.783  10.811 -1.1665 -1.3637 -1.8240
 1645TIP3   OH226425   3.848   0.381   2.270 -0.5687  0.5720 -0.2460
 1645TIP3    H126426   3.854   0.434   2.350 -2.0472  1.1649 -0.5154
 1645TIP3    H226427   3.854   0.445   2.199  1.4386 -0.0223 -0.6435
 1646TIP3   OH226428   4.774   3.676  13.372  0.6647  0.6715  0.0256
 1646TIP3    H126429   4.758   3.603  13.313  1.0861 -0.3821  1.1776
 1646TIP3    H226430   4.838   3.642  13.435  0.0289  1.6680  1.2342
 1647TIP3   OH226431   1.456   3.455  15.537 -0.1573  0.2552 -0.1007
 1647TIP3    H126432   1.476   3.417  15.451  0.7530  0.0050  0.2145
 1647TIP3    H226433   1.399   3.390  15.579 -1.3779  0.8146 -0.8770
 1648TIP3   OH226434   0.150   4.839   1.003  0.0314 -0.1975  0.2625
 1648TIP3    H126435   0.055   4.840   1.015  0.0542  0.4729  0.3932
 1648TIP3    H226436   0.170   4.748   0.981 -0.5710 -0.4686  0.7986
 1649TIP3   OH226437   6.613   5.103  10.428 -0.0051 -0.0651 -0.9327
 1649TIP3    H126438   6.647   5.170  10.369 -3.0142  1.5089 -0.9703
 1649TIP3    H226439   6.675   5.100  10.500  1.4575  1.0024 -2.1319
 1650TIP3   OH226440   5.197   2.973  12.820 -0.1108 -0.8120 -0.5779
 1650TIP3    H126441   5.102   2.984  12.831 -0.0873 -0.9551 -0.2164
 1650TIP3    H226442   5.207   2.936  12.733 -0.3434 -0.1520 -0.8847
 1651TIP3   OH226443   5.921   1.974   1.644 -0.1875  0.0367  0.3432
 1651TIP3    H126444   5.998   1.937   1.601  0.9527  2.7975 -0.0874
 1651TIP3    H226445   5.856   1.981   1.574 -0.2343 -0.6606  0.3153
 1652TIP3   OH226446   6.278   2.209  10.564  0.2968  0.0815  0.2625
 1652TIP3    H126447   6.355   2.254  10.530  1.3523 -1.7443  0.1395
 1652TIP3    H226448   6.284   2.220  10.659 -0.1093  1.2297  0.1515
 1653TIP3   OH226449   4.148   4.117   2.634  0.1614  0.0030  0.8566
 1653TIP3    H126450   4.127   4.209   2.650 -0.5005 -0.4649  2.7975
 1653TIP3    H226451   4.202   4.119   2.555 -0.9963  1.9145  0.0664
 1654TIP3   OH226452   3.908   0.794  14.802  0.2039 -0.0536  0.1295
 1654TIP3    H126453   3.892   0.699  14.807 -0.3416  0.0673  0.9085
 1654TIP3    H226454   3.999   0.801  14.775 -0.2872 -0.7902 -1.7763
 1655TIP3   OH226455   6.416   1.202  15.308 -0.3696 -0.1386  0.4679
 1655TIP3    H126456   6.424   1.162  15.221 -0.4557  0.2022  0.3015
 1655TIP3    H226457   6.494   1.256  15.317 -0.3831 -0.1381  0.5855
 1656TIP3   OH226458   1.226   6.121  13.517  0.5201  0.3533  0.1877
 1656TIP3    H126459   1.207   6.207  13.555 -1.0417 -0.0042  0.2556
 1656TIP3    H226460   1.163   6.113  13.445  0.4843 -0.8365  0.3409
 1657TIP3   OH226461   1.943   0.477   6.676 -0.9525 -0.7385 -0.5845
 1657TIP3    H126462   1.849   0.496   6.682 -0.6992  0.4024 -0.0804
 1657TIP3    H226463   1.949   0.383   6.691 -1.7173 -0.3174  2.7670
 1658TIP3   OH226464   3.947   2.819  14.502  0.4450 -0.4988 -0.3861
 1658TIP3    H126465   3.941   2.914  14.510  1.7133 -0.6145  3.0763
 1658TIP3    H226466   4.028   2.796  14.547 -1.0000 -3.3899  0.9290
 1659TIP3   OH226467   1.395   6.171  16.975  0.5412 -0.0025  0.3991
 1659TIP3    H126468   1.367   6.262  16.987  1.5975  0.5762 -1.3674
 1659TIP3    H226469   1.455   6.155  17.048 -0.9910  0.1113  1.7443
 1660TIP3   OH226470   6.466   3.326   5.749 -0.2157 -0.3452 -0.0599
 1660TIP3    H126471   6.376   3.356   5.733  0.5227  2.3285  0.5324
 1660TIP3    H226472   6.502   3.313   5.661 -0.0124  2.4221 -0.4567
 1661TIP3   OH226473   1.809   5.644   0.700  0.1642  0.1161  0.2430
 1661TIP3    H126474   1.888   5.664   0.650 -0.9257  1.6825 -0.9031
 1661TIP3    H226475   1.835   5.657   0.792  1.2721  0.4757 -0.1163
 1662TIP3   OH226476   4.111   1.170   5.317  0.2999 -0.2249 -0.6760
 1662TIP3    H126477   4.097   1.087   5.363  0.3720 -1.0260 -2.0754
 1662TIP3    H226478   4.202   1.194   5.338  0.3672 -0.6405 -0.4898
 1663TIP3   OH226479   2.390   1.628  12.982 -0.0267  0.5357  0.2309
 1663TIP3    H126480   2.382   1.675  13.065  0.6614  0.3757  0.3876
 1663TIP3    H226481   2.390   1.535  13.006 -0.1829  0.4788  0.0185
 1664TIP3   OH226482   6.031   3.575   1.640  0.0987  0.1296 -0.4008
 1664TIP3    H126483   6.041   3.573   1.545 -0.1394  0.9706 -0.4524
 1664TIP3    H226484   5.989   3.659   1.658 -0.2367 -0.2060  0.4163
 1665TIP3   OH226485   6.687   5.741  16.757  0.8667  0.1437  0.2749
 1665TIP3    H126486   6.737   5.821  16.738  1.5235  0.3901  2.8447
 1665TIP3    H226487   6.743   5.670  16.726  1.4255  0.5691  0.2873
 1666TIP3   OH226488   5.599   2.000  17.167 -0.3471  0.0768  0.1263
 1666TIP3    H126489   5.613   2.094  17.155 -1.1106  0.2796  0.7613
 1666TIP3    H226490   5.604   1.988  17.262 -1.1071 -0.3807  0.1073
 1667TIP3   OH226491   5.941   0.795  16.966  0.0949 -0.5171 -0.1910
 1667TIP3    H126492   5.891   0.756  16.895  0.0200 -0.6081 -0.0864
 1667TIP3    H226493   6.029   0.807  16.930 -0.3083  0.7878 -0.7866
 1668TIP3   OH226494   3.440   5.346   5.229  0.6261 -0.2347  0.3822
 1668TIP3    H126495   3.419   5.267   5.179  3.4419 -0.2265 -0.9187
 1668TIP3    H226496   3.488   5.313   5.306 -0.7620  0.0016  1.3569
 1669TIP3   OH226497   5.416   1.372   5.551 -0.7689  0.3830 -0.0693
 1669TIP3    H126498   5.336   1.400   5.596 -1.3964 -1.2882 -0.0873
 1669TIP3    H226499   5.485   1.426   5.588 -1.3686 -0.4944  2.4233
 1670TIP3   OH226500   6.533   0.755   3.533  0.0067 -0.1636 -0.2750
 1670TIP3    H126501   6.507   0.722   3.447 -2.2198 -0.5169  0.4868
 1670TIP3    H226502   6.516   0.849   3.529  1.4882  0.0975 -0.7513
 1671TIP3   OH226503   4.970   2.403  15.768  0.4940  0.0692 -0.3557
 1671TIP3    H126504   4.924   2.452  15.699 -0.6213 -0.0499  0.2851
 1671TIP3    H226505   5.049   2.371  15.726 -0.1292  0.0698 -1.5657
 1672TIP3   OH226506   2.458   6.122   4.472  0.4192  0.3953 -0.0093
 1672TIP3    H126507   2.524   6.142   4.405  0.7410  0.4170  0.3111
 1672TIP3    H226508   2.478   6.033   4.500 -2.1249 -1.1156 -2.7299
 1673TIP3   OH226509   2.773   6.651   4.977 -0.1435 -0.1957 -0.3961
 1673TIP3    H126510   2.821   6.625   4.898  0.7453  1.0917 -0.3021
 1673TIP3    H226511   2.835   6.637   5.048 -1.2355 -2.1657  0.1877
 1674TIP3   OH226512   4.452   3.733  15.052 -0.4299 -0.4244  0.4461
 1674TIP3    H126513   4.445   3.826  15.033  1.9460 -0.1855  0.7003
 1674TIP3    H226514   4.396   3.721  15.130 -2.4688  0.3395 -0.8527
 1675TIP3   OH226515   3.345   6.069  10.562 -0.1601  0.1158 -0.1143
 1675TIP3    H126516   3.357   6.038  10.472  1.7690 -1.5561  0.6739
 1675TIP3    H226517   3.264   6.027  10.591  0.3900 -1.1326 -0.3560
 1676TIP3   OH226518   0.845   4.766   2.437  0.8183  0.0458  0.3836
 1676TIP3    H126519   0.866   4.676   2.411 -1.0428 -0.8012  1.7217
 1676TIP3    H226520   0.916   4.791   2.497  0.7457 -0.9519  0.8940
 1677TIP3   OH226521   2.779   2.675   4.010 -0.3255 -0.5206  0.1035
 1677TIP3    H126522   2.725   2.729   3.953  1.6056  1.3235 -0.0575
 1677TIP3    H226523   2.862   2.667   3.964 -0.0563 -2.3076  0.8751
 1678TIP3   OH226524   0.778   2.606   5.142 -0.3623 -0.2708 -0.0767
 1678TIP3    H126525   0.787   2.516   5.173 -1.6457  0.0633  1.3424
 1678TIP3    H226526   0.828   2.658   5.205  2.7983 -0.2393 -2.5207
 1679TIP3   OH226527   2.115   4.332   4.280 -1.1930 -0.1278 -0.6152
 1679TIP3    H126528   2.131   4.270   4.208  1.2886  0.3662 -0.5593
 1679TIP3    H226529   2.024   4.317   4.306  0.1019 -5.8980  1.3524
 1680TIP3   OH226530   6.186   0.955   1.850 -0.0974  0.0099 -0.2163
 1680TIP3    H126531   6.226   1.031   1.892  0.4027 -0.1574 -0.3877
 1680TIP3    H226532   6.109   0.990   1.805 -0.7147  0.1640  0.9471
 1681TIP3   OH226533   0.823   5.063  10.711  0.4687  0.2788 -0.2364
 1681TIP3    H126534   0.765   5.113  10.653 -0.4226 -3.0025 -2.3026
 1681TIP3    H226535   0.801   5.094  10.799 -1.6868  1.8709 -1.2773
 1682TIP3   OH226536   2.407   0.687  14.122  0.7225 -0.3420  0.4261
 1682TIP3    H126537   2.495   0.724  14.120  0.4863  0.2461  0.8734
 1682TIP3    H226538   2.384   0.685  14.215 -0.1980  0.6006  0.2290
 1683TIP3   OH226539   5.739   3.430  17.095  0.6667 -0.2615 -0.2967
 1683TIP3    H126540   5.812   3.476  17.137 -0.0565  0.6034  0.0316
 1683TIP3    H226541   5.679   3.408  17.167  1.4753 -2.6498 -0.2993
 1684TIP3   OH226542   2.252   1.837   1.019 -0.3703  0.0849 -0.0997
 1684TIP3    H126543   2.219   1.874   0.937 -0.2877  0.5147  0.0586
 1684TIP3    H226544   2.184   1.859   1.083 -1.1518 -1.5579 -0.3471
 1685TIP3   OH226545   1.736   5.633  15.601  0.2398  0.6106  0.2597
 1685TIP3    H126546   1.767   5.633  15.691 -3.0356  0.5326  1.4400
 1685TIP3    H226547   1.652   5.586  15.604  0.4407 -0.0870 -2.9559
 1686TIP3   OH226548   1.989   3.888   1.373 -0.0986 -0.0150  0.2101
 1686TIP3    H126549   2.001   3.981   1.356  0.8135 -0.3170 -0.9346
 1686TIP3    H226550   1.920   3.861   1.313  0.0985 -0.1980  0.0607
 1687TIP3   OH226551   6.166   1.544  11.743  0.4403  0.2109  0.6369
 1687TIP3    H126552   6.212   1.493  11.810  2.2227  1.0711  0.1111
 1687TIP3    H226553   6.203   1.632  11.750  0.0354  0.5222 -0.8917
 1688TIP3   OH226554   6.420   6.526   1.999  0.3921 -0.3998  0.1961
 1688TIP3    H126555   6.471   6.472   2.060  0.2387 -0.2556  0.4492
 1688TIP3    H226556   6.481   6.595   1.971  0.5304 -0.5927  0.0158
 1689TIP3   OH226557   1.219   5.935  12.485  0.2022  0.0313 -0.3583
 1689TIP3    H126558   1.240   5.941  12.392  0.4504 -1.2095 -0.3828
 1689TIP3    H226559   1.222   6.026  12.516 -1.2282  0.6051 -1.8468
 1690TIP3   OH226560   3.863   3.464  13.043 -0.6108 -0.1211  0.0668
 1690TIP3    H126561   3.949   3.501  13.023  0.2502 -1.2326  1.6207
 1690TIP3    H226562   3.866   3.375  13.005 -0.8512 -0.3814  0.6582
 1691TIP3   OH226563   2.982   6.463  11.760  0.3019  0.2471  0.0210
 1691TIP3    H126564   3.046   6.477  11.690 -0.4682 -0.9723 -0.9655
 1691TIP3    H226565   3.033   6.425  11.832  0.7387 -0.4322 -0.6432
 1692TIP3   OH226566   3.418   2.799  15.980 -0.0839 -0.1205  0.3995
 1692TIP3    H126567   3.445   2.851  15.905 -0.2877 -1.6359 -0.7292
 1692TIP3    H226568   3.490   2.738  15.995 -0.1693 -0.0275  1.2669
 1693TIP3   OH226569   6.735   3.369   0.246 -0.3857  0.1650  0.7476
 1693TIP3    H126570   6.755   3.426   0.320 -1.0577  0.7342  0.4962
 1693TIP3    H226571   6.804   3.387   0.182 -0.3150  0.3316  0.8711
 1694TIP3   OH226572   2.429   3.726  12.789  0.4259  0.2470  0.1348
 1694TIP3    H126573   2.373   3.740  12.865  1.5603 -1.0071  1.2240
 1694TIP3    H226574   2.424   3.632  12.772  0.0175  0.5391 -1.4831
 1695TIP3   OH226575   6.369   2.748  17.190 -0.2936 -0.1967  0.3224
 1695TIP3    H126576   6.463   2.751  17.173 -0.4865 -0.6115 -0.9110
 1695TIP3    H226577   6.346   2.655  17.182 -1.1938  0.1786 -1.7445
 1696TIP3   OH226578   2.046   4.688  10.874  0.6435  0.4727 -0.1041
 1696TIP3    H126579   2.139   4.667  10.882  0.6141 -0.8945 -2.6699
 1696TIP3    H226580   2.005   4.606  10.845 -1.1841  1.3355 -0.0528
 1697TIP3   OH226581   6.225   4.334  12.577  0.2626 -0.2033  0.4740
 1697TIP3    H126582   6.202   4.380  12.496  0.4747 -2.5970 -1.0335
 1697TIP3    H226583   6.141   4.314  12.618  0.0691 -0.4119 -0.0147
 1698TIP3   OH226584   5.398   5.606   5.597  0.0204  0.3204 -0.4723
 1698TIP3    H126585   5.307   5.636   5.595 -0.2580 -0.5560 -1.7643
 1698TIP3    H226586   5.436   5.638   5.515  0.8608  0.6057  0.0207
 1699TIP3   OH226587   1.414   5.608   6.118 -0.8592 -0.2611  0.5467
 1699TIP3    H126588   1.373   5.678   6.067 -0.4989  0.5860  1.4004
 1699TIP3    H226589   1.417   5.642   6.208 -0.3350 -1.2147  0.9015
 1700TIP3   OH226590   3.254   5.530   4.509 -0.4316 -0.1178 -0.5562
 1700TIP3    H126591   3.182   5.466   4.512 -0.4122 -0.0907  0.5733
 1700TIP3    H226592   3.281   5.541   4.600  1.8528 -1.0538 -1.1029
 1701TIP3   OH226593   1.313   2.014  15.216 -0.2444 -0.4934  0.3930
 1701TIP3    H126594   1.376   1.954  15.177 -1.9052 -0.7188 -2.0947
 1701TIP3    H226595   1.248   1.958  15.257 -1.0374 -0.3727 -0.6867
 1702TIP3   OH226596   5.207   5.236   1.116 -0.5110 -0.0753  0.4248
 1702TIP3    H126597   5.147   5.199   1.052 -0.9794  0.0116  0.8092
 1702TIP3    H226598   5.247   5.160   1.158 -1.1299 -0.1455  0.8939
 1703TIP3   OH226599   3.636   1.176  10.480  0.0581 -0.9073  0.1141
 1703TIP3    H126600   3.683   1.131  10.410  2.1946 -3.1945  2.9368
 1703TIP3    H226601   3.674   1.264  10.482  0.8840 -1.2382 -0.7589
 1704TIP3   OH226602   6.383   3.474   2.126 -0.0945 -0.1449  0.4246
 1704TIP3    H126603   6.384   3.488   2.221 -0.4230  0.2688  0.3677
 1704TIP3    H226604   6.362   3.381   2.116 -1.5043  0.1324  0.7238
 1705TIP3   OH226605   2.503   4.717  10.854 -0.6851  0.2397 -0.6329
 1705TIP3    H126606   2.477   4.704  10.763 -0.1133 -0.0387 -0.7562
 1705TIP3    H226607   2.452   4.793  10.883 -2.5911 -1.0469 -0.4919
 1706TIP3   OH226608   1.955   1.231  15.601 -0.5653  0.2202 -0.1547
 1706TIP3    H126609   1.925   1.142  15.585 -1.3025  0.0549  1.9433
 1706TIP3    H226610   1.875   1.282  15.615 -0.0730  0.7338  0.9054
 1707TIP3   OH226611   4.955   2.665  14.613 -0.5558  0.2366  0.1461
 1707TIP3    H126612   5.033   2.697  14.567 -0.5072 -0.6053 -0.3636
 1707TIP3    H226613   4.886   2.728  14.590  0.0815  1.2784  1.0121
 1708TIP3   OH226614   6.285   5.523   1.914 -0.1673 -0.4539  0.3265
 1708TIP3    H126615   6.297   5.548   2.006  2.0268 -0.8609  0.1964
 1708TIP3    H226616   6.210   5.464   1.915 -0.9961  0.5887  1.6575
 1709TIP3   OH226617   5.094   2.393   5.748 -0.6463 -0.1657  0.0505
 1709TIP3    H126618   5.028   2.347   5.696 -1.6788 -0.6479  1.7516
 1709TIP3    H226619   5.132   2.456   5.687 -2.7652  0.2060 -0.9570
 1710TIP3   OH226620   1.805   1.302   3.422 -0.0919  0.2470 -0.3336
 1710TIP3    H126621   1.866   1.319   3.350 -0.4490  0.6394 -0.5450
 1710TIP3    H226622   1.818   1.375   3.483  0.5990 -0.3664  0.2728
 1711TIP3   OH226623   4.235   4.444  11.236  0.0491 -0.5241 -0.1145
 1711TIP3    H126624   4.167   4.494  11.282  1.4125 -1.3573  2.9882
 1711TIP3    H226625   4.254   4.495  11.158 -2.2770  1.0888  0.3192
 1712TIP3   OH226626   3.946   6.263  14.404  0.2836  0.0485  0.0246
 1712TIP3    H126627   3.894   6.192  14.365  1.0449 -0.4932 -0.0069
 1712TIP3    H226628   3.883   6.312  14.457 -0.4859  0.0279 -0.8650
 1713TIP3   OH226629   0.443   6.128   6.359 -0.7179 -0.0710 -0.2342
 1713TIP3    H126630   0.373   6.175   6.314 -0.8992  0.9418  1.0895
 1713TIP3    H226631   0.520   6.182   6.347 -0.8800  0.4504  1.1129
 1714TIP3   OH226632   0.332   6.000   1.084  0.5660 -0.1520  0.1308
 1714TIP3    H126633   0.315   6.065   1.015 -0.8977 -0.8177 -0.1639
 1714TIP3    H226634   0.407   5.950   1.052  0.7311  0.4007 -0.3606
 1715TIP3   OH226635   4.781   6.200   3.166 -0.1391 -0.0341  0.4749
 1715TIP3    H126636   4.738   6.274   3.123  0.7562 -0.4482 -1.1709
 1715TIP3    H226637   4.709   6.144   3.195 -0.7393 -0.3842 -1.6376
 1716TIP3   OH226638   3.988   2.920  12.902  0.4177 -0.2809  0.1657
 1716TIP3    H126639   4.059   2.873  12.947  0.5118  0.5563  0.9167
 1716TIP3    H226640   4.031   2.962  12.827  1.8901  4.4271  3.3670
 1717TIP3   OH226641   5.725   5.721  14.776  0.0185 -0.4236 -0.4981
 1717TIP3    H126642   5.777   5.799  14.796 -0.9565  0.6927 -2.1710
 1717TIP3    H226643   5.767   5.650  14.824  2.4508  0.6673 -0.9667
 1718TIP3   OH226644   6.280   5.572  14.177  0.0904 -0.3945  0.6647
 1718TIP3    H126645   6.213   5.627  14.219 -0.6342 -0.9914  0.3050
 1718TIP3    H226646   6.321   5.524  14.248  0.2777  0.1207  0.9094
 1719TIP3   OH226647   1.955   1.389   6.187  0.4669  0.7077 -0.1385
 1719TIP3    H126648   1.987   1.319   6.130 -0.8143  1.4833 -1.8586
 1719TIP3    H226649   2.025   1.402   6.250  0.7862 -2.0218  0.1331
 1720TIP3   OH226650   3.073   2.237  13.634  0.7364  0.1829  0.4005
 1720TIP3    H126651   3.130   2.167  13.601  1.6837  2.0607 -2.1146
 1720TIP3    H226652   3.092   2.312  13.578 -1.4407  2.0075  1.9977
 1721TIP3   OH226653   2.877   0.847   5.831  0.2291 -0.3354  0.3652
 1721TIP3    H126654   2.854   0.804   5.749 -1.2435  0.0748  0.5514
 1721TIP3    H226655   2.821   0.924   5.834  1.7713  0.7933  0.7606
 1722TIP3   OH226656   2.386   3.772   2.064 -0.0568  0.1325  0.2276
 1722TIP3    H126657   2.441   3.708   2.109  0.7614  1.3717  1.0098
 1722TIP3    H226658   2.447   3.837   2.030 -0.9600  1.0024  0.2530
 1723TIP3   OH226659   2.824   4.612   2.397 -0.3478  0.9850  0.1662
 1723TIP3    H126660   2.766   4.650   2.331 -2.4818 -1.2497  0.6804
 1723TIP3    H226661   2.768   4.596   2.472  1.7587  2.1929  2.0532
 1724TIP3   OH226662   6.170   4.828  13.376  0.1207 -0.1768 -0.2554
 1724TIP3    H126663   6.158   4.900  13.439  4.3249 -1.5223  2.3029
 1724TIP3    H226664   6.111   4.759  13.407  0.3244  0.0956  0.7631
 1725TIP3   OH226665   0.660   6.544   2.633 -0.0793 -0.2212  0.5655
 1725TIP3    H126666   0.600   6.577   2.565 -0.8808  0.1787  1.4582
 1725TIP3    H226667   0.651   6.449   2.628 -0.0532 -0.1984  0.0365
 1726TIP3   OH226668   1.387   2.046  17.195 -0.1313  0.3656  0.3077
 1726TIP3    H126669   1.313   2.070  17.139  0.0341  1.3098  0.4727
 1726TIP3    H226670   1.429   1.973  17.150 -0.7383  0.2955 -0.1558
 1727TIP3   OH226671   3.959   6.757   4.571 -0.1247 -0.2509  0.2177
 1727TIP3    H126672   3.872   6.726   4.544  0.9746 -3.6052  0.3386
 1727TIP3    H226673   4.004   6.679   4.603  2.9319  1.4525  0.2961
 1728TIP3   OH226674   0.857   1.235   5.700 -0.3261  0.6302 -0.4025
 1728TIP3    H126675   0.884   1.311   5.752 -1.0361 -0.5445  1.7507
 1728TIP3    H226676   0.761   1.234   5.707 -0.2996 -0.6615 -0.1062
 1729TIP3   OH226677   2.612   0.558  15.644  0.1413  0.5378  0.4875
 1729TIP3    H126678   2.556   0.522  15.575  1.3456  1.1487 -0.8305
 1729TIP3    H226679   2.582   0.649  15.654  1.5975  1.2227 -1.0297
 1730TIP3   OH226680   5.774   0.319  13.329 -0.0862 -0.3245  0.3767
 1730TIP3    H126681   5.717   0.267  13.273 -1.3079 -1.0135  2.2181
 1730TIP3    H226682   5.853   0.265  13.339 -0.1337 -0.4924 -0.1615
 1731TIP3   OH226683   5.418   2.216  12.372  0.2685  0.1086 -0.0679
 1731TIP3    H126684   5.343   2.188  12.320  1.4377 -1.3886 -1.0084
 1731TIP3    H226685   5.384   2.285  12.429 -1.9160 -0.8798 -0.1313
 1732TIP3   OH226686   2.934   6.561   4.749  0.3307 -0.1031 -0.8333
 1732TIP3    H126687   2.862   6.527   4.696  0.5725  0.6294 -1.6495
 1732TIP3    H226688   2.994   6.600   4.685  0.1440  1.6949  0.0424
 1733TIP3   OH226689   2.218   6.430  16.306 -0.1555 -0.0367 -0.0786
 1733TIP3    H126690   2.215   6.521  16.277 -2.1990 -0.0911 -0.0913
 1733TIP3    H226691   2.308   6.402  16.286  0.1433  1.6056 -1.1808
 1734TIP3   OH226692   3.806   6.801   3.659  0.0973 -0.0779 -0.2489
 1734TIP3    H126693   3.735   6.859   3.687 -0.6147 -1.5658  1.1791
 1734TIP3    H226694   3.763   6.740   3.598  0.4571 -0.0951 -0.4817
 1735TIP3   OH226695   4.992   5.831  13.042  0.2953 -0.1436 -0.6068
 1735TIP3    H126696   4.984   5.778  12.963 -0.2115 -0.5897 -0.2609
 1735TIP3    H226697   4.977   5.921  13.012  1.0259 -0.2082 -1.1708
 1736TIP3   OH226698   3.880   3.079  14.586  0.5842  0.6245  0.1595
 1736TIP3    H126699   3.839   3.157  14.624  1.0560  1.1474 -0.4044
 1736TIP3    H226700   3.923   3.110  14.507  1.1159 -0.1360  0.1424
 1737TIP3   OH226701   4.486   5.875   4.497  0.2965 -0.0803  0.1650
 1737TIP3    H126702   4.490   5.846   4.588 -0.3079 -1.3074 -0.1811
 1737TIP3    H226703   4.494   5.970   4.501  0.3360 -0.1352  1.4934
 1738TIP3   OH226704   3.898   3.433   2.597 -0.1401  0.2912  0.3961
 1738TIP3    H126705   3.884   3.409   2.505  1.4385 -1.4069  0.5702
 1738TIP3    H226706   3.965   3.500   2.595  1.6526 -1.4509  0.4210
 1739TIP3   OH226707   2.194   5.864   0.688  0.1807 -0.0810 -0.1571
 1739TIP3    H126708   2.164   5.916   0.614  0.2094 -0.6717 -0.5891
 1739TIP3    H226709   2.288   5.856   0.676  0.2030 -0.0617  0.0107
 1740TIP3   OH226710   4.005   1.066   5.823 -0.8449 -0.1968  0.5749
 1740TIP3    H126711   3.996   1.131   5.893  0.3580  0.4177  0.1664
 1740TIP3    H226712   4.011   0.982   5.868 -0.8211  0.1261  1.1715
 1741TIP3   OH226713   5.352   2.281   6.436  0.4152  0.4793  0.3086
 1741TIP3    H126714   5.348   2.361   6.383 -0.6108  0.0093 -0.3345
 1741TIP3    H226715   5.341   2.210   6.374  0.7225 -0.1405  0.9574
 1742TIP3   OH226716   3.777   2.743  13.232 -0.0701 -0.1581  0.1193
 1742TIP3    H126717   3.718   2.673  13.259  0.1743 -0.0710  0.8969
 1742TIP3    H226718   3.809   2.781  13.315 -1.7975  2.2377 -0.2699
 1743TIP3   OH226719   5.683   2.794   3.790  0.2703 -0.2354 -0.3780
 1743TIP3    H126720   5.718   2.750   3.867  0.4097 -1.0639 -0.9096
 1743TIP3    H226721   5.596   2.824   3.817  1.4054  1.9636  0.9912
 1744TIP3   OH226722   0.529   1.049   5.541 -0.0740  0.3275 -0.2627
 1744TIP3    H126723   0.536   1.117   5.608 -2.6129 -0.0681  0.4626
 1744TIP3    H226724   0.493   1.094   5.464 -0.1816  0.1287 -0.3293
 1745TIP3   OH226725   3.281   6.529  12.385  0.6622  0.0315 -1.0121
 1745TIP3    H126726   3.191   6.503  12.365 -0.3275  2.4726  0.1834
 1745TIP3    H226727   3.303   6.593  12.317  1.5502 -0.6441 -1.3724
 1746TIP3   OH226728   3.701   5.458   6.010 -0.4336  0.0878 -0.3366
 1746TIP3    H126729   3.644   5.399   5.962  0.5808 -1.0623 -0.1718
 1746TIP3    H226730   3.692   5.432   6.102 -1.5461  1.5678  0.0063
 1747TIP3   OH226731   4.233   0.086   1.153 -0.1070 -0.4615 -0.0978
 1747TIP3    H126732   4.289   0.008   1.143  0.7735  0.3389 -1.5438
 1747TIP3    H226733   4.215   0.090   1.247 -0.0168 -2.3128  0.0142
 1748TIP3   OH226734   0.553   6.675   3.602  0.2376 -0.0073 -0.2059
 1748TIP3    H126735   0.539   6.753   3.655  1.0916 -0.4761  0.7369
 1748TIP3    H226736   0.465   6.641   3.586 -0.2390  1.8851 -1.7961
 1749TIP3   OH226737   1.685   2.604   2.943 -0.1394  0.1074 -0.0338
 1749TIP3    H126738   1.695   2.632   3.034 -0.3517 -0.2809  0.1078
 1749TIP3    H226739   1.697   2.684   2.892  1.2776  0.0932  0.2641
 1750TIP3   OH226740   6.400   3.316  15.407 -0.6235  0.5617 -0.0253
 1750TIP3    H126741   6.447   3.309  15.490  0.2351  0.7819 -0.4839
 1750TIP3    H226742   6.321   3.265  15.420 -1.1057  1.6223  1.3493
 1751TIP3   OH226743   6.412   3.858   6.745 -0.3789 -0.7511  0.2086
 1751TIP3    H126744   6.393   3.773   6.705  1.7550 -0.8125 -0.6918
 1751TIP3    H226745   6.481   3.840   6.809  0.9571  0.5278 -0.8728
 1752TIP3   OH226746   0.319   5.242   5.319  0.0789  0.6884  0.1431
 1752TIP3    H126747   0.299   5.324   5.365 -2.3795  0.2921 -0.1425
 1752TIP3    H226748   0.273   5.175   5.369  1.0312 -0.3538 -0.3581
 1753TIP3   OH226749   3.114   4.873   0.516  0.0995 -0.1673 -0.1691
 1753TIP3    H126750   3.065   4.942   0.560  0.4180 -0.5945  0.8538
 1753TIP3    H226751   3.098   4.795   0.569  1.7905 -0.3420  0.1001
 1754TIP3   OH226752   0.317   2.519  16.660 -0.2861 -0.4350 -0.3808
 1754TIP3    H126753   0.362   2.532  16.577 -0.1843  3.5631  0.2058
 1754TIP3    H226754   0.355   2.584  16.719 -2.5264 -1.0943  1.9177
 1755TIP3   OH226755   1.171   4.953   0.674 -0.0696 -0.2188  0.2880
 1755TIP3    H126756   1.124   4.995   0.746  0.7019  0.1220  0.6067
 1755TIP3    H226757   1.103   4.925   0.613 -0.8097 -1.3247  1.5866
 1756TIP3   OH226758   4.118   2.621  11.852 -0.1251 -0.6453 -0.2773
 1756TIP3    H126759   4.052   2.633  11.784  0.0633 -0.3464 -0.4093
 1756TIP3    H226760   4.073   2.642  11.934  0.0640  0.5005 -0.4568
 1757TIP3   OH226761   2.969   5.135   3.819  0.2691 -0.2004 -0.4117
 1757TIP3    H126762   2.975   5.045   3.852  3.1108  0.2992  0.6337
 1757TIP3    H226763   2.989   5.128   3.726  0.4523 -0.6792 -0.3364
 1758TIP3   OH226764   3.546   1.477   3.448 -0.8102  0.3653 -0.4920
 1758TIP3    H126765   3.455   1.504   3.454 -0.2089  2.7394 -1.5202
 1758TIP3    H226766   3.595   1.559   3.441  1.4428 -0.8493  0.5142
 1759TIP3   OH226767   2.923   1.688   1.358 -0.5827 -0.2476  0.5450
 1759TIP3    H126768   2.869   1.762   1.385 -0.6458  0.2807 -0.9718
 1759TIP3    H226769   2.877   1.611   1.392 -1.5376  0.2902  0.4734
 1760TIP3   OH226770   4.210   1.020  16.875  0.0714  0.2912 -0.8043
 1760TIP3    H126771   4.169   0.989  16.956  0.0083 -1.0448 -1.3489
 1760TIP3    H226772   4.303   0.999  16.887  0.3064  1.5106 -0.4216
 1761TIP3   OH226773   1.142   3.520  15.031 -0.3619 -0.0695 -0.5459
 1761TIP3    H126774   1.152   3.501  14.938 -0.6850  0.0499 -0.6048
 1761TIP3    H226775   1.049   3.507  15.049 -0.4986  0.9357 -0.4775
 1762TIP3   OH226776   4.292   1.426   5.024 -0.1739 -0.1676  0.3796
 1762TIP3    H126777   4.225   1.476   4.977 -1.1439 -1.6765  0.1229
 1762TIP3    H226778   4.281   1.453   5.116 -0.4805  0.3195  0.2030
 1763TIP3   OH226779   5.782   5.864   0.114 -0.8356  0.2346 -0.1926
 1763TIP3    H126780   5.746   5.794   0.169 -0.2724 -0.5593 -0.8354
 1763TIP3    H226781   5.874   5.840   0.100 -0.2552  1.8150  0.7317
 1764TIP3   OH226782   6.310   3.244   6.056  0.5144  0.0037 -0.1654
 1764TIP3    H126783   6.261   3.171   6.018  1.2174 -1.5256  1.7743
 1764TIP3    H226784   6.245   3.290   6.110 -0.1327  1.3363 -2.0363
 1765TIP3   OH226785   4.776   6.250  10.756  0.6898  0.6001  0.2497
 1765TIP3    H126786   4.697   6.225  10.804 -0.4696  1.9710 -0.9010
 1765TIP3    H226787   4.800   6.173  10.706 -1.3934  0.9522 -1.3404
 1766TIP3   OH226788   2.925   6.716  14.019 -0.5975 -0.4085  0.0840
 1766TIP3    H126789   2.921   6.625  14.048 -1.2526 -0.4168 -0.0178
 1766TIP3    H226790   2.861   6.721  13.948  0.8613 -0.3468 -1.2656
 1767TIP3   OH226791   1.130   0.331   5.005 -0.3718 -0.1006 -0.1562
 1767TIP3    H126792   1.180   0.343   4.924 -2.9458 -1.6448 -2.0456
 1767TIP3    H226793   1.039   0.342   4.979 -1.2612 -0.8163  2.5124
 1768TIP3   OH226794   2.509   2.957  15.465 -0.4431  0.0276  0.3847
 1768TIP3    H126795   2.453   2.898  15.515 -0.7224 -1.3429 -1.4661
 1768TIP3    H226796   2.552   2.900  15.401 -0.3015  1.7457 -1.0863
 1769TIP3   OH226797   6.405   5.824  14.642  0.2297  0.4239  0.6285
 1769TIP3    H126798   6.324   5.774  14.637 -0.5666  1.8432 -1.3098
 1769TIP3    H226799   6.475   5.760  14.631 -0.7898 -0.1868 -2.6476
 1770TIP3   OH226800   1.769   0.346   5.257  0.1357 -0.0830 -0.2263
 1770TIP3    H126801   1.688   0.306   5.289 -0.1449  0.7303  0.0743
 1770TIP3    H226802   1.777   0.428   5.305  3.2060 -1.9663  2.7041
 1771TIP3   OH226803   4.198   2.014  16.723  0.1173  0.4214  0.2252
 1771TIP3    H126804   4.279   1.973  16.691 -0.7529 -2.0700  1.0653
 1771TIP3    H226805   4.215   2.108  16.719  2.1005  0.0107 -2.1087
 1772TIP3   OH226806   4.766   3.906   4.674 -0.1916 -0.9158  0.4700
 1772TIP3    H126807   4.723   3.989   4.693  0.7766 -0.2587 -0.1866
 1772TIP3    H226808   4.827   3.894   4.746 -0.7141 -1.3258  0.8459
 1773TIP3   OH226809   1.833   5.240  16.901 -0.2107 -0.1596 -0.6943
 1773TIP3    H126810   1.892   5.167  16.917  1.0526  0.8241 -0.7206
 1773TIP3    H226811   1.835   5.252  16.806 -0.7154 -0.3398 -0.7244
 1774TIP3   OH226812   1.655   4.807  16.939 -0.0584 -0.1090 -0.4514
 1774TIP3    H126813   1.712   4.737  16.971 -0.5688 -0.4164 -0.2161
 1774TIP3    H226814   1.652   4.794  16.844  0.8829  0.3746 -0.5553
 1775TIP3   OH226815   5.928   2.209  16.992  0.8367  0.3547  0.3814
 1775TIP3    H126816   5.896   2.127  16.954  0.8409  1.5235 -2.1868
 1775TIP3    H226817   5.849   2.260  17.007  1.0272  0.8613 -0.3388
 1776TIP3   OH226818   0.186   0.980   5.629 -0.1622 -0.2401  0.3071
 1776TIP3    H126819   0.200   1.051   5.566 -1.8989 -0.7635 -0.7192
 1776TIP3    H226820   0.236   0.906   5.595 -0.3011 -0.2236  0.0674
 1777TIP3   OH226821   4.768   1.275  16.826 -0.0505  0.2755 -0.3825
 1777TIP3    H126822   4.695   1.254  16.768 -0.3583  1.8386 -0.5941
 1777TIP3    H226823   4.810   1.352  16.785  0.4285  0.6768  0.8385
 1778TIP3   OH226824   5.407   0.057   4.506 -0.0099 -0.4118 -0.1363
 1778TIP3    H126825   5.372   0.048   4.594  1.6646  0.8499  0.6944
 1778TIP3    H226826   5.440  -0.031   4.484 -2.3709 -1.2599 -0.3940
 1779TIP3   OH226827   5.576   1.678  13.624 -0.1428 -0.2733 -0.1841
 1779TIP3    H126828   5.498   1.644  13.581 -0.3218 -1.2072  0.8714
 1779TIP3    H226829   5.545   1.751  13.677 -0.4516 -1.1755  0.9003
 1780TIP3   OH226830   6.240   1.191   1.981  0.0320 -0.6622  0.6763
 1780TIP3    H126831   6.235   1.285   1.964  0.6116 -0.6711  0.4409
 1780TIP3    H226832   6.333   1.175   2.001  0.0219 -1.2643  0.2488
 1781TIP3   OH226833   5.876   0.544  12.342 -0.5735 -0.6465 -0.0854
 1781TIP3    H126834   5.813   0.610  12.371  1.1279  1.7352 -1.5639
 1781TIP3    H226835   5.834   0.460  12.360 -3.9201  0.8587 -0.5653
 1782TIP3   OH226836   0.925   1.045  16.977  0.1213 -0.4087  0.3047
 1782TIP3    H126837   0.929   1.105  17.051 -1.4810  0.2380 -0.1010
 1782TIP3    H226838   0.839   1.002  16.985 -0.6256  0.5664 -1.8221
 1783TIP3   OH226839   6.546   0.183   3.165  0.0712  0.2377 -0.2416
 1783TIP3    H126840   6.577   0.263   3.124 -0.9395  0.1209 -1.2616
 1783TIP3    H226841   6.469   0.210   3.216 -1.1546 -0.3123 -1.7628
 1784TIP3   OH226842   2.667   0.367   2.840 -0.5002  0.5113  0.3906
 1784TIP3    H126843   2.634   0.323   2.919  0.5119 -1.1523 -0.0962
 1784TIP3    H226844   2.635   0.314   2.767  1.3280  0.1444 -0.1732
 1785TIP3   OH226845   1.534   6.307  14.050  0.3238 -0.1332  0.4062
 1785TIP3    H126846   1.595   6.349  13.990 -0.0884  0.5025  0.4263
 1785TIP3    H226847   1.572   6.221  14.067  0.4471 -0.3087 -0.7499
 1786TIP3   OH226848   1.604   6.167   5.786  0.0536  0.0965 -0.2173
 1786TIP3    H126849   1.671   6.111   5.748 -2.4283 -2.0481 -1.6338
 1786TIP3    H226850   1.626   6.255   5.756 -1.2056 -1.3611 -6.0503
 1787TIP3   OH226851   2.466   0.784   1.460  1.2985  0.1438 -0.0879
 1787TIP3    H126852   2.436   0.863   1.416 -0.6924 -0.7152 -0.3198
 1787TIP3    H226853   2.488   0.723   1.390  1.2345 -0.0921  0.0929
 1788TIP3   OH226854   5.980   5.675   5.325 -0.1703 -0.5503 -0.1381
 1788TIP3    H126855   5.978   5.750   5.386  1.7806 -1.1470  0.6939
 1788TIP3    H226856   6.032   5.706   5.251 -3.0306  0.3766 -1.8617
 1789TIP3   OH226857   6.577   5.766  12.885 -0.1960  0.2805  0.2436
 1789TIP3    H126858   6.501   5.765  12.827 -0.4733 -0.9881  0.6075
 1789TIP3    H226859   6.635   5.698  12.850 -1.5124 -2.3548  2.9126
 1790TIP3   OH226860   2.254   4.758  16.307  0.3094 -0.5099  0.1455
 1790TIP3    H126861   2.270   4.845  16.272  1.6442 -0.4062  0.9397
 1790TIP3    H226862   2.183   4.722  16.253 -0.4885  1.1840  0.0441
 1791TIP3   OH226863   1.969   4.373  10.665  0.4515  0.4579 -0.1077
 1791TIP3    H126864   1.880   4.342  10.680 -0.0950  2.7169  1.6954
 1791TIP3    H226865   1.969   4.404  10.575 -0.1169 -1.0410 -0.6277
 1792TIP3   OH226866   5.821   0.057  13.570  0.0353 -0.0684  0.6439
 1792TIP3    H126867   5.822   0.017  13.657 -1.8511 -1.4200  0.0812
 1792TIP3    H226868   5.881   0.002  13.519 -0.9822 -0.9849  0.4024
 1793TIP3   OH226869   0.225   6.515  10.198 -0.5470 -0.5797  0.1736
 1793TIP3    H126870   0.152   6.471  10.241  0.9297 -2.5841  0.7057
 1793TIP3    H226871   0.303   6.467  10.227  1.0280  1.6947 -0.1459
 1794TIP3   OH226872   4.982   3.022  14.640  0.0404 -0.6207 -0.1250
 1794TIP3    H126873   4.909   2.960  14.637 -1.0567  0.6703 -0.7607
 1794TIP3    H226874   4.943   3.102  14.675  1.7912 -0.7461  2.2216
 1795TIP3   OH226875   6.164   4.494   2.694 -0.6354 -0.0492  0.0810
 1795TIP3    H126876   6.074   4.524   2.703 -0.2185  0.9925  0.9255
 1795TIP3    H226877   6.207   4.562   2.642 -0.1455 -0.1269  0.3813
 1796TIP3   OH226878   4.531   4.829  13.334 -0.3081 -0.6976  0.0003
 1796TIP3    H126879   4.563   4.915  13.306  0.6989 -0.7802  0.8644
 1796TIP3    H226880   4.490   4.844  13.419 -0.5591 -0.9893 -0.0671
 1797TIP3   OH226881   0.472   4.811  12.585 -0.2460  0.3471 -0.1288
 1797TIP3    H126882   0.525   4.802  12.665  1.4569  0.8192 -1.1788
 1797TIP3    H226883   0.502   4.892  12.545 -1.8157  0.6397 -0.7369
 1798TIP3   OH226884   1.230   3.517   6.794  0.2585  0.6461 -0.5241
 1798TIP3    H126885   1.246   3.453   6.864 -0.1585  0.6196 -0.4532
 1798TIP3    H226886   1.206   3.464   6.718 -1.3561  0.7771 -0.1176
 1799TIP3   OH226887   2.410   0.418  15.173 -0.7443 -0.4519  0.8516
 1799TIP3    H126888   2.341   0.481  15.152  0.2514  0.4746  0.2799
 1799TIP3    H226889   2.464   0.414  15.094 -0.3944 -1.4919  1.1391
 1800TIP3   OH226890   1.740   6.480   3.248 -0.0278  0.1054 -0.2595
 1800TIP3    H126891   1.786   6.557   3.214  0.1614 -0.3179 -0.9775
 1800TIP3    H226892   1.764   6.477   3.340  0.5412  0.4954 -0.3879
 1801TIP3   OH226893   0.521   3.206  14.919  0.3007 -0.0491  0.1271
 1801TIP3    H126894   0.447   3.165  14.874  1.0779 -0.9742 -0.3277
 1801TIP3    H226895   0.582   3.228  14.849  0.1807  1.2932  0.4402
 1802TIP3   OH226896   3.918   2.056   5.158  0.4772 -0.6000 -0.4678
 1802TIP3    H126897   3.908   1.966   5.189 -0.1684  0.2143  1.7486
 1802TIP3    H226898   3.863   2.108   5.216  1.5953  1.3593 -1.1140
 1803TIP3   OH226899   0.002   3.502  13.734 -0.5957  0.1124  0.2577
 1803TIP3    H126900   0.022   3.477  13.643 -2.2779 -0.5431  0.0513
 1803TIP3    H226901   0.026   3.425  13.786 -0.6079  0.1020  0.2480
 1804TIP3   OH226902   6.125   4.322   5.150  0.3266  0.2695 -0.1883
 1804TIP3    H126903   6.034   4.312   5.123  0.1227  0.0473  0.5673
 1804TIP3    H226904   6.164   4.235   5.136  0.3375  0.2777 -0.2066
 1805TIP3   OH226905   6.616   5.440   2.502 -0.3724 -0.1779 -0.1733
 1805TIP3    H126906   6.648   5.530   2.486  0.1147 -0.2909  0.1489
 1805TIP3    H226907   6.537   5.451   2.554  0.8613 -0.0244  1.6892
 1806TIP3   OH226908   6.168   0.293  11.690  0.3628 -0.0529 -0.6834
 1806TIP3    H126909   6.244   0.263  11.739 -0.1299 -0.4902 -0.1680
 1806TIP3    H226910   6.127   0.213  11.657  0.0905  0.1740 -0.9027
 1807TIP3   OH226911   4.160   4.476   3.501 -0.3075  0.7303  0.0911
 1807TIP3    H126912   4.143   4.555   3.553  1.0221  0.6153  0.7240
 1807TIP3    H226913   4.211   4.420   3.559  0.4753  0.2421 -1.0660
 1808TIP3   OH226914   1.630   0.414  11.416 -0.2964  0.1486 -0.1400
 1808TIP3    H126915   1.650   0.493  11.467 -1.0805  0.6304 -0.5645
 1808TIP3    H226916   1.680   0.344  11.459 -0.9959  0.5322  1.3324
 1809TIP3   OH226917   2.707   5.544  15.141 -0.2111  0.4001  0.2876
 1809TIP3    H126918   2.645   5.617  15.136  0.2453  0.8001  0.4255
 1809TIP3    H226919   2.660   5.476  15.190 -0.3691  0.8765  0.8038
 1810TIP3   OH226920   3.028   0.793   0.160  0.0914  0.2243  0.4057
 1810TIP3    H126921   3.022   0.837   0.075  1.6769  1.8908  1.1253
 1810TIP3    H226922   2.952   0.734   0.162 -0.6859  1.1154 -1.6152
 1811TIP3   OH226923   2.286   4.962  14.565  0.2937  0.0366 -0.0499
 1811TIP3    H126924   2.225   5.031  14.590  0.2625  0.0645 -0.2036
 1811TIP3    H226925   2.260   4.887  14.618 -0.8772 -0.4225 -1.2587
 1812TIP3   OH226926   5.447   3.477   2.394  0.2148 -0.3247  0.1753
 1812TIP3    H126927   5.366   3.471   2.446  0.7326  2.0364  1.3535
 1812TIP3    H226928   5.439   3.561   2.349  0.9581 -1.1819 -1.5514
 1813TIP3   OH226929   4.800   3.156   2.841 -0.5213 -0.3051  0.3989
 1813TIP3    H126930   4.874   3.117   2.795 -1.2585 -1.1589 -0.0853
 1813TIP3    H226931   4.817   3.138   2.934  1.2482  1.9045  0.5496
 1814TIP3   OH226932   5.861   1.505  13.501 -0.3325 -0.0182 -0.0439
 1814TIP3    H126933   5.783   1.474  13.455 -0.1659 -0.5013  0.0049
 1814TIP3    H226934   5.870   1.447  13.576 -0.0691  0.1945  0.0904
 1815TIP3   OH226935   0.642   0.212  13.177  0.1668  0.0600  0.0876
 1815TIP3    H126936   0.687   0.293  13.199 -1.8495  1.0661  0.6626
 1815TIP3    H226937   0.553   0.239  13.154 -0.2637 -1.8897 -0.6529
 1816TIP3   OH226938   4.715   2.166  14.742 -0.2101 -0.4225  0.3265
 1816TIP3    H126939   4.664   2.247  14.740 -0.2076 -0.4387 -0.9160
 1816TIP3    H226940   4.649   2.097  14.747 -0.3782 -0.4761 -2.0183
 1817TIP3   OH226941   4.942   4.068  14.692 -0.4727 -0.0407 -0.5513
 1817TIP3    H126942   4.993   4.136  14.648 -1.0331  0.2019 -0.8268
 1817TIP3    H226943   4.871   4.048  14.631 -1.8780  1.0591  0.6983
 1818TIP3   OH226944   4.573   2.588  12.431  0.7194  0.0181 -0.1007
 1818TIP3    H126945   4.529   2.658  12.479  1.9097  0.0629  0.9605
 1818TIP3    H226946   4.533   2.508  12.465  0.2464  0.1361 -0.3855
 1819TIP3   OH226947   4.450   1.495  16.328  0.3102  0.6955 -0.3308
 1819TIP3    H126948   4.527   1.485  16.385  0.0850  0.5315 -0.0503
 1819TIP3    H226949   4.390   1.428  16.359 -0.4477  1.6389  0.2872
 1820TIP3   OH226950   0.137   0.423  13.379  0.6885  0.1964  0.9741
 1820TIP3    H126951   0.162   0.436  13.288 -0.1845  0.0159  0.7093
 1820TIP3    H226952   0.091   0.503  13.404  0.2213 -0.0847  1.0158
 1821TIP3   OH226953   1.037   4.161  14.361  0.6022 -0.0336  0.3454
 1821TIP3    H126954   1.129   4.140  14.375  0.8996  1.2726  0.4531
 1821TIP3    H226955   1.037   4.218  14.284 -0.2912 -1.3660 -0.6728
 1822TIP3   OH226956   5.872   5.525  14.945 -0.1474  0.3106  0.1114
 1822TIP3    H126957   5.954   5.572  14.931  0.2202 -0.6224 -1.0156
 1822TIP3    H226958   5.897   5.447  14.994 -0.4943  0.4624  0.5298
 1823TIP3   OH226959   6.075   3.574  12.796 -0.1682 -0.6601 -0.6952
 1823TIP3    H126960   6.014   3.596  12.865 -2.0339 -1.1050 -2.1706
 1823TIP3    H226961   6.111   3.489  12.822 -0.7521 -0.7606 -0.2012
 1824TIP3   OH226962   5.722   3.025   3.483  0.2206 -0.0640 -0.5147
 1824TIP3    H126963   5.809   3.044   3.519 -0.1668  0.1955  0.2954
 1824TIP3    H226964   5.702   3.100   3.428  0.9983 -0.6598 -1.6401
 1825TIP3   OH226965   0.578   1.435   6.490 -0.3063  0.1758  0.2085
 1825TIP3    H126966   0.668   1.455   6.515 -0.8519  1.9073  0.8250
 1825TIP3    H226967   0.553   1.362   6.547  1.0767 -1.0886 -0.7717
 1826TIP3   OH226968   4.066   1.388   0.016  0.1628 -0.4726 -0.9640
 1826TIP3    H126969   3.999   1.323   0.038  0.0365 -0.5129 -1.4695
 1826TIP3    H226970   4.028   1.439  -0.055  0.0404  0.5177 -0.1959
 1827TIP3   OH226971   0.408   2.918  10.857 -0.2837  0.2026 -0.5325
 1827TIP3    H126972   0.493   2.907  10.900  0.5392  1.8763 -1.6772
 1827TIP3    H226973   0.384   2.830  10.829  1.1190 -0.2764 -0.2751
 1828TIP3   OH226974   2.543   2.558   1.584  0.1856  0.1079 -0.5271
 1828TIP3    H126975   2.500   2.619   1.524 -0.3614 -0.4201 -0.6727
 1828TIP3    H226976   2.523   2.471   1.549  0.6937 -0.1693 -0.1394
 1829TIP3   OH226977   4.447   2.860   4.198 -0.3266 -0.4900 -0.3162
 1829TIP3    H126978   4.484   2.888   4.114 -0.4349 -1.9231 -0.8596
 1829TIP3    H226979   4.377   2.923   4.216 -0.0764  0.0294 -1.1364
 1830TIP3   OH226980   3.391   1.868   1.031  0.0067  0.4141 -0.4832
 1830TIP3    H126981   3.419   1.958   1.015  0.2805  0.5496  0.6885
 1830TIP3    H226982   3.462   1.829   1.083 -0.2370 -0.3917 -0.7416
 1831TIP3   OH226983   0.232   5.298  13.617 -0.2762 -0.0886 -0.1209
 1831TIP3    H126984   0.153   5.246  13.609 -0.9178  1.1580 -2.4378
 1831TIP3    H226985   0.303   5.236  13.602 -0.9479 -0.6343 -1.1118
 1832TIP3   OH226986   2.516   2.722   3.291  0.3374  0.2746  0.4033
 1832TIP3    H126987   2.559   2.691   3.371  0.2407  0.8179  0.6644
 1832TIP3    H226988   2.465   2.798   3.319 -0.2367  0.0565 -0.0430
 1833TIP3   OH226989   3.146   4.628  17.035 -0.2357 -0.1443 -0.6211
 1833TIP3    H126990   3.166   4.651  16.944  0.4156  0.1742 -0.4093
 1833TIP3    H226991   3.130   4.534  17.033  0.4727 -0.2640 -0.9598
 1834TIP3   OH226992   4.702   0.553   2.939  0.0761  0.0822  0.7101
 1834TIP3    H126993   4.751   0.634   2.926 -0.2079 -0.1282 -1.9699
 1834TIP3    H226994   4.754   0.486   2.894 -0.4813 -0.9412  1.5603
 1835TIP3   OH226995   1.437   0.274  12.750  0.4596 -0.2499  0.2089
 1835TIP3    H126996   1.379   0.347  12.731  0.8636 -0.0004 -0.0733
 1835TIP3    H226997   1.511   0.285  12.690  0.6334 -0.7581  0.3226
 1836TIP3   OH226998   2.780   0.260  14.160 -0.3850  0.1858 -0.1280
 1836TIP3    H126999   2.828   0.342  14.170  1.5032 -0.7955 -0.8632
 1836TIP3    H227000   2.736   0.268  14.076 -0.2682  0.4825 -0.1617
 1837TIP3   OH227001   1.630   3.693  11.092  0.8598 -0.0040 -0.4430
 1837TIP3    H127002   1.638   3.648  11.008  0.8967  0.0796 -0.4835
 1837TIP3    H227003   1.642   3.623  11.157  2.0099  0.1191 -0.5019
 1838TIP3   OH227004   1.540   0.627   3.473  0.0907  0.9772  0.1646
 1838TIP3    H127005   1.513   0.621   3.564  0.0491  0.2263  0.1029
 1838TIP3    H227006   1.575   0.716   3.464  0.1102  1.0448  0.9132
 1839TIP3   OH227007   5.774   1.915  11.403 -0.1641  0.1063 -0.6253
 1839TIP3    H127008   5.844   1.980  11.416 -0.7086  1.2564 -3.0021
 1839TIP3    H227009   5.820   1.831  11.399  0.7498  0.5218  0.7686
 1840TIP3   OH227010   1.322   4.058  14.333 -0.3809 -0.0488  0.8675
 1840TIP3    H127011   1.362   4.015  14.408  0.1436 -0.0557  0.5898
 1840TIP3    H227012   1.396   4.079  14.275 -0.4552  2.3982  1.5950
 1841TIP3   OH227013   5.730   0.560   5.064 -0.3790  0.2041  0.1984
 1841TIP3    H127014   5.734   0.650   5.033 -1.4051  0.5339  0.9899
 1841TIP3    H227015   5.790   0.557   5.139  1.1451 -0.2743 -1.0320
 1842TIP3   OH227016   4.696   6.356  12.149 -0.6930 -0.0964  0.0061
 1842TIP3    H127017   4.642   6.350  12.229  1.9268  1.8773  1.9906
 1842TIP3    H227018   4.784   6.374  12.181  0.4340  0.6473 -3.3761
 1843TIP3   OH227019   4.419   3.160  16.904 -0.1202 -0.9663  0.0283
 1843TIP3    H127020   4.376   3.225  16.959  1.0855  0.4021 -0.6185
 1843TIP3    H227021   4.500   3.138  16.952 -0.1127 -1.3544 -0.1601
 1844TIP3   OH227022   5.879   0.828   6.483  0.2929  0.0582  0.0020
 1844TIP3    H127023   5.910   0.758   6.540  1.6775  0.4108 -0.3012
 1844TIP3    H227024   5.803   0.792   6.439  1.1261 -1.3266 -0.3145
 1845TIP3   OH227025   5.688   2.190  11.606  0.2447 -0.1474  0.0629
 1845TIP3    H127026   5.632   2.265  11.590  0.6026 -0.4671 -2.9030
 1845TIP3    H227027   5.771   2.213  11.565  1.0551 -1.2687  1.0466
 1846TIP3   OH227028   1.285   1.036  16.134 -0.7462 -0.1130  0.7048
 1846TIP3    H127029   1.320   0.952  16.163  1.0830 -0.0516 -1.2195
 1846TIP3    H227030   1.342   1.101  16.174  0.6824  0.0246 -1.4405
 1847TIP3   OH227031   2.117   0.747   2.062  0.3867  0.1652  0.2917
 1847TIP3    H127032   2.202   0.785   2.039  0.1804 -0.1997 -1.0944
 1847TIP3    H227033   2.137   0.658   2.089  0.4996  0.2303  0.4247
 1848TIP3   OH227034   3.805   3.896   2.753 -0.0131  0.2094  0.1232
 1848TIP3    H127035   3.742   3.911   2.682 -1.7725 -1.1416  1.3460
 1848TIP3    H227036   3.805   3.801   2.765  1.9900  0.2210  0.4317
 1849TIP3   OH227037   1.807   4.504  11.139  0.0899 -0.2892  0.1973
 1849TIP3    H127038   1.779   4.588  11.177  0.6533  1.2080 -2.5651
 1849TIP3    H227039   1.878   4.475  11.196 -0.3356  0.9526  1.3909
 1850TIP3   OH227040   1.296   5.983  14.786  0.3462  0.5187 -0.0932
 1850TIP3    H127041   1.210   5.983  14.743  2.1263 -0.0440 -3.8579
 1850TIP3    H227042   1.293   5.908  14.845 -1.6275  0.2720 -0.4521
 1851TIP3   OH227043   2.708   2.560   6.347 -0.1708  0.5939  0.4279
 1851TIP3    H127044   2.780   2.622   6.363  0.7989 -0.3996 -0.0471
 1851TIP3    H227045   2.674   2.541   6.435  1.9516 -1.0489  0.9375
 1852TIP3   OH227046   5.822   4.804   4.183 -0.1678  0.8231 -0.2943
 1852TIP3    H127047   5.833   4.870   4.251 -1.2866  2.3961 -1.6043
 1852TIP3    H227048   5.857   4.723   4.222 -1.8307  1.4175  2.5666
 1853TIP3   OH227049   1.544   3.691  12.943 -0.2040  0.1214 -0.1357
 1853TIP3    H127050   1.494   3.749  12.886  2.4142  1.0078 -1.6083
 1853TIP3    H227051   1.501   3.606  12.934 -0.7378  0.5841 -2.3078
 1854TIP3   OH227052   6.764   5.163   2.306  0.6360 -0.5180  0.1610
 1854TIP3    H127053   6.695   5.148   2.371  1.6391 -0.4678  1.2545
 1854TIP3    H227054   6.797   5.076   2.285 -1.9944 -0.8569 -2.8817
 1855TIP3   OH227055   1.260   4.388   2.922 -0.1681  0.4542  0.0043
 1855TIP3    H127056   1.299   4.302   2.943 -0.4610  0.4143  0.3813
 1855TIP3    H227057   1.241   4.383   2.828  0.0852  0.2145 -0.0368
 1856TIP3   OH227058   6.147   0.066   5.253  0.3330  0.0766 -0.3473
 1856TIP3    H127059   6.216   0.072   5.185 -0.7465  1.1914 -1.3754
 1856TIP3    H227060   6.180   0.002   5.315  0.6468 -2.1775 -2.7689
 1857TIP3   OH227061   5.149   0.444  14.596  0.4461  1.2218  0.0498
 1857TIP3    H127062   5.082   0.399  14.648  0.7268  1.2600  0.4503
 1857TIP3    H227063   5.108   0.459  14.511  0.0470  0.9888  0.2006
 1858TIP3   OH227064   1.734   3.197  13.451 -0.4766  0.0924  0.2385
 1858TIP3    H127065   1.808   3.236  13.497 -0.2039  2.5204 -2.1537
 1858TIP3    H227066   1.661   3.205  13.512  0.6624 -0.1900  1.6917
 1859TIP3   OH227067   1.035   3.393   2.282 -0.1019 -0.1756  0.3102
 1859TIP3    H127068   1.013   3.414   2.191 -1.1740 -1.7501  0.1788
 1859TIP3    H227069   0.977   3.449   2.334 -0.0141  0.1931  0.0072
 1860TIP3   OH227070   0.287   4.294   1.848 -0.1634 -0.5814 -0.2765
 1860TIP3    H127071   0.206   4.246   1.859  0.1219 -0.5029  2.4452
 1860TIP3    H227072   0.355   4.235   1.880  0.4986  0.5664  0.4677
 1861TIP3   OH227073   2.600   4.401  12.749 -0.3071  0.0436 -0.1310
 1861TIP3    H127074   2.559   4.326  12.791 -0.6307  0.4889  0.3579
 1861TIP3    H227075   2.654   4.364  12.679  0.4575 -0.7242  0.8605
 1862TIP3   OH227076   2.457   4.032  13.761 -0.1342  0.5707 -0.5515
 1862TIP3    H127077   2.447   4.104  13.698 -1.7281  0.1408 -0.8186
 1862TIP3    H227078   2.372   3.987  13.759  0.3273 -0.3810  0.7604
 1863TIP3   OH227079   2.444   6.075  12.407 -0.0704 -0.2996 -0.4594
 1863TIP3    H127080   2.527   6.033  12.429  0.0466 -0.5457 -1.3519
 1863TIP3    H227081   2.429   6.137  12.478  1.4523  0.5693 -0.8742
 1864TIP3   OH227082   1.373   5.654  13.771  0.4673 -0.3070 -0.3952
 1864TIP3    H127083   1.322   5.617  13.700 -0.6419 -1.4132  0.9607
 1864TIP3    H227084   1.349   5.747  13.772 -1.6412 -0.8338  0.3081
 1865TIP3   OH227085   5.436   4.948   4.298 -0.5553 -1.1150 -0.2740
 1865TIP3    H127086   5.468   4.869   4.254  0.1419 -1.6829  1.2289
 1865TIP3    H227087   5.491   4.955   4.376 -0.3263  1.0937 -0.6072
 1866TIP3   OH227088   0.905   3.457   1.467 -0.0308  0.3493  0.0528
 1866TIP3    H127089   0.869   3.417   1.387  1.8038 -1.0669 -0.0871
 1866TIP3    H227090   0.902   3.551   1.449 -0.5103  0.0941 -1.3175
 1867TIP3   OH227091   1.317   0.622  13.492 -0.0089  0.5148 -0.0104
 1867TIP3    H127092   1.246   0.669  13.449  0.1923  0.6626 -0.1795
 1867TIP3    H227093   1.331   0.668  13.574  0.6232  1.1373 -0.4647
 1868TIP3   OH227094   2.030   3.311   0.283 -0.1602 -0.7568  0.1882
 1868TIP3    H127095   1.943   3.348   0.297 -0.1090  0.2033 -1.7433
 1868TIP3    H227096   2.034   3.234   0.339 -1.0961  0.9289  2.6608
 1869TIP3   OH227097   5.417   6.538  15.860  0.2547 -0.0777  0.0466
 1869TIP3    H127098   5.508   6.561  15.844  0.2196 -1.1231 -1.7092
 1869TIP3    H227099   5.420   6.472  15.930  0.8578 -0.2342 -0.1293
 1870TIP3   OH227100   6.407   3.100  11.389  0.3020 -0.7549  0.3546
 1870TIP3    H127101   6.498   3.124  11.401  0.1558 -0.7292  1.4965
 1870TIP3    H227102   6.392   3.030  11.454 -0.5488 -0.5814  0.3547
 1871TIP3   OH227103   6.173   2.760  16.924  0.5198  0.4275  0.0561
 1871TIP3    H127104   6.173   2.665  16.935  5.2600  0.3416  0.3840
 1871TIP3    H227105   6.198   2.774  16.832 -0.4190  1.3512 -0.0648
 1872TIP3   OH227106   3.830   1.699   4.348  0.4657 -0.8115 -0.4239
 1872TIP3    H127107   3.880   1.750   4.285 -0.4284 -1.3302 -1.5783
 1872TIP3    H227108   3.877   1.616   4.354  1.2981 -0.2708  0.6120
 1873TIP3   OH227109   1.059   4.143   2.135 -0.2416 -0.3396  0.1476
 1873TIP3    H127110   1.099   4.074   2.082  0.5563  0.6790 -0.6015
 1873TIP3    H227111   1.035   4.100   2.217 -0.0441 -1.5734 -0.4295
 1874TIP3   OH227112   0.690   4.154   1.462 -0.1966 -0.1579 -0.2468
 1874TIP3    H127113   0.767   4.203   1.433  0.1733 -2.8375 -4.0582
 1874TIP3    H227114   0.726   4.079   1.509 -0.5517 -0.5939 -0.6754
 1875TIP3   OH227115   4.160   4.533   0.795 -0.4368  0.1658 -0.0414
 1875TIP3    H127116   4.256   4.525   0.801 -0.4849  0.8704  2.0421
 1875TIP3    H227117   4.128   4.445   0.815 -0.2683  0.4566  1.6438
 1876TIP3   OH227118   4.951   4.848  12.783 -0.0709 -0.6709 -0.1676
 1876TIP3    H127119   5.032   4.867  12.734  0.0918  0.0783  0.3859
 1876TIP3    H227120   4.963   4.759  12.816  0.3052 -0.7589 -0.5352
 1877TIP3   OH227121   1.614   4.206   3.826  0.7646 -0.0016  0.1780
 1877TIP3    H127122   1.670   4.183   3.752  2.5032  1.7643  0.8897
 1877TIP3    H227123   1.653   4.161   3.901  0.9802  0.8555  0.5926
 1878TIP3   OH227124   5.244   2.165   4.682 -0.3751  0.4589 -0.1579
 1878TIP3    H127125   5.271   2.203   4.766  3.2539 -0.8983 -0.6516
 1878TIP3    H227126   5.181   2.097   4.706 -0.4195  1.0020  1.3331
 1879TIP3   OH227127   4.452   3.882   3.128 -0.1138 -0.5389  0.0876
 1879TIP3    H127128   4.526   3.887   3.187  0.8376 -0.1055 -1.1189
 1879TIP3    H227129   4.491   3.864   3.042 -1.1303  3.1160 -1.2007
 1880TIP3   OH227130   5.614   0.135  15.440 -0.2183 -0.2316  0.0486
 1880TIP3    H127131   5.589   0.059  15.388 -0.4317  0.1174 -0.3588
 1880TIP3    H227132   5.613   0.103  15.530 -1.2279 -0.4753 -0.0343
 1881TIP3   OH227133   3.232   2.004   0.819  0.0597 -0.2336 -0.0378
 1881TIP3    H127134   3.142   2.001   0.786  0.4732  1.2120 -1.3758
 1881TIP3    H227135   3.260   1.912   0.819 -1.2305 -0.6360 -0.1572
 1882TIP3   OH227136   0.283   3.045  17.257 -0.4905  0.5672 -0.7029
 1882TIP3    H127137   0.233   3.080  17.331 -0.4538  3.0823 -1.8178
 1882TIP3    H227138   0.242   2.960  17.239 -0.3198 -0.2208  2.3550
 1883TIP3   OH227139   1.809   6.136   6.037  0.5966 -0.2896 -0.8363
 1883TIP3    H127140   1.758   6.055   6.037  0.4725 -0.2475  1.1523
 1883TIP3    H227141   1.746   6.204   6.010  0.3005 -0.6307 -1.0095
 1884TIP3   OH227142   3.865   3.832   1.889 -0.2113 -0.3319 -0.0349
 1884TIP3    H127143   3.791   3.893   1.896 -0.6985 -0.9512  0.2200
 1884TIP3    H227144   3.904   3.833   1.976  0.7127  0.7782 -0.4439
 1885TIP3   OH227145   1.255   6.239  14.707  0.0964 -0.9453  0.1750
 1885TIP3    H127146   1.295   6.152  14.721 -0.0059 -0.9604  0.3893
 1885TIP3    H227147   1.253   6.278  14.795  0.5919 -0.5300  0.0056
 1886TIP3   OH227148   0.246   2.241  13.554  0.5240  0.0104 -0.1497
 1886TIP3    H127149   0.224   2.333  13.560  1.8723  0.3469 -0.0994
 1886TIP3    H227150   0.196   2.208  13.479  2.4193  1.5265 -2.1467
 1887TIP3   OH227151   4.555   4.294   5.205  0.1656  0.3131 -0.7135
 1887TIP3    H127152   4.496   4.220   5.190  0.4881 -0.3971  1.3913
 1887TIP3    H227153   4.622   4.285   5.137  0.1124 -1.2397 -0.5747
 1888TIP3   OH227154   1.942   2.740   4.784 -0.5355  0.1128 -0.3099
 1888TIP3    H127155   1.970   2.771   4.698 -1.7404  1.1452 -0.3414
 1888TIP3    H227156   1.960   2.813   4.843  0.3660 -0.6216  0.3427
 1889TIP3   OH227157   5.933   0.461  13.909  0.3442 -0.6823  0.1808
 1889TIP3    H127158   5.888   0.439  13.990  0.9659 -0.5857  0.5547
 1889TIP3    H227159   5.919   0.555  13.898 -0.4157 -0.8429 -0.2447
 1890TIP3   OH227160   6.113   5.091  14.403  0.2711 -0.5044 -0.3446
 1890TIP3    H127161   6.118   5.024  14.470 -2.1778 -0.3136  0.0811
 1890TIP3    H227162   6.100   5.173  14.451 -0.0233 -0.1666 -0.9911
 1891TIP3   OH227163   6.106   4.906  10.806  0.7131 -0.1094  0.0577
 1891TIP3    H127164   6.101   4.882  10.713  0.0729 -0.1759  0.1006
 1891TIP3    H227165   6.061   4.835  10.851  0.8319  0.0317  0.3954
 1892TIP3   OH227166   5.338   1.099   3.628  0.0897  0.5293  0.4704
 1892TIP3    H127167   5.380   1.022   3.666  0.1214  0.9784  1.3638
 1892TIP3    H227168   5.340   1.084   3.533  2.8031  0.7975  0.4352
 1893TIP3   OH227169   5.467   3.397  16.843 -0.1030 -1.2671  0.3415
 1893TIP3    H127170   5.382   3.427  16.809 -0.1471 -1.5691  0.1822
 1893TIP3    H227171   5.517   3.477  16.857 -0.5226 -1.0669  0.7235
 1894TIP3   OH227172   6.766   3.438  14.688 -0.0954 -0.4615 -0.5671
 1894TIP3    H127173   6.728   3.463  14.772  0.5370  0.0957 -0.4439
 1894TIP3    H227174   6.859   3.424  14.707 -0.0929 -1.0601 -1.0219
 1895TIP3   OH227175   1.984   2.626   6.084  0.1609 -0.4572 -0.2044
 1895TIP3    H127176   1.980   2.710   6.128  0.5344 -1.2867  1.4556
 1895TIP3    H227177   1.898   2.615   6.044 -0.7690 -0.4142  1.7251
 1896TIP3   OH227178   6.405   5.652  12.474  0.2381 -0.1456 -0.9216
 1896TIP3    H127179   6.484   5.611  12.439  0.1152 -1.8417  0.6976
 1896TIP3    H227180   6.393   5.731  12.421  3.2067  0.3428 -0.9296
 1897TIP3   OH227181   3.875   5.568   5.157  0.4230  0.7231  0.0700
 1897TIP3    H127182   3.783   5.587   5.172 -0.0148  0.5065 -2.2684
 1897TIP3    H227183   3.887   5.480   5.193 -0.7012  0.0494 -1.1639
 1898TIP3   OH227184   4.543   0.056   3.421 -0.4772  0.0498  0.1280
 1898TIP3    H127185   4.603   0.015   3.483 -0.4749 -2.2942 -1.3581
 1898TIP3    H227186   4.459   0.013   3.437 -0.7776  0.3742 -0.5570
 1899TIP3   OH227187   6.284   3.893   3.409  0.9394 -0.2236  0.0743
 1899TIP3    H127188   6.289   3.938   3.325  0.4004 -1.2797 -0.5371
 1899TIP3    H227189   6.374   3.894   3.442  1.3544 -0.7437 -1.0172
 1900TIP3   OH227190   5.973   0.396   2.195 -0.3125 -0.0067  0.1234
 1900TIP3    H127191   5.898   0.426   2.145 -0.0586  0.6519  0.1237
 1900TIP3    H227192   6.023   0.476   2.213  0.4834 -0.4579 -0.0388
 1901TIP3   OH227193   1.484   6.448   3.162  0.6386 -0.1187  0.1998
 1901TIP3    H127194   1.571   6.441   3.203  0.1445 -2.4763  0.9575
 1901TIP3    H227195   1.480   6.371   3.104 -0.2722  0.9444 -1.1574
 1902TIP3   OH227196   5.351   6.073   1.327 -0.5497 -0.2191 -0.4215
 1902TIP3    H127197   5.406   6.151   1.339  0.9783 -1.2062 -0.9351
 1902TIP3    H227198   5.297   6.094   1.251  0.0956  0.2136 -0.7720
 1903TIP3   OH227199   0.183   1.371  11.972  0.0434  0.1641  0.3790
 1903TIP3    H127200   0.216   1.425  11.900 -0.2830  2.0395  1.5878
 1903TIP3    H227201   0.197   1.281  11.943  1.9730  0.8977 -1.0848
 1904TIP3   OH227202   1.738   5.167  11.001 -0.2785  0.0659 -0.3452
 1904TIP3    H127203   1.831   5.190  11.002 -0.3045  0.1875 -0.6191
 1904TIP3    H227204   1.735   5.081  10.958 -0.3394  0.2819 -0.7767
 1905TIP3   OH227205   6.461   0.975   3.730  0.1373 -0.0500  0.8210
 1905TIP3    H127206   6.446   1.007   3.819  2.7156  3.8465 -0.0353
 1905TIP3    H227207   6.554   0.988   3.715  0.2811 -3.2419 -1.5555
 1906TIP3   OH227208   2.671   4.307  14.953 -0.1451  0.2003 -0.6591
 1906TIP3    H127209   2.653   4.287  14.861  0.8161 -0.3526 -0.7324
 1906TIP3    H227210   2.700   4.223  14.990  1.6377  0.9265 -0.3913
 1907TIP3   OH227211   4.337   4.925   6.686 -0.5304 -0.1197  0.0057
 1907TIP3    H127212   4.408   4.988   6.674  0.4713 -1.3688 -0.7800
 1907TIP3    H227213   4.278   4.967   6.748 -0.1540  1.8147 -0.9149
 1908TIP3   OH227214   5.566   1.154  14.516 -0.5432 -0.3699 -0.1683
 1908TIP3    H127215   5.643   1.104  14.543  0.5768  0.1349 -2.3120
 1908TIP3    H227216   5.601   1.240  14.492 -2.1119  0.6591  1.0896
 1909TIP3   OH227217   6.529   6.802   1.010 -0.6767  0.0274 -0.4799
 1909TIP3    H127218   6.505   6.716   1.043  0.2283 -0.7999 -1.9004
 1909TIP3    H227219   6.578   6.844   1.081 -2.3724 -0.0592  0.7382
 1910TIP3   OH227220   4.307   0.077  15.754 -0.0133 -0.0661 -0.2414
 1910TIP3    H127221   4.295   0.165  15.719 -1.7820 -0.1371  0.1317
 1910TIP3    H227222   4.373   0.087  15.823 -0.3208  1.0011 -0.0906
 1911TIP3   OH227223   3.445   2.441   3.041  0.5247  0.0636 -0.1045
 1911TIP3    H127224   3.535   2.408   3.039  0.7257  0.4691  1.5960
 1911TIP3    H227225   3.393   2.368   3.007  1.3373 -0.7690  0.3831
 1912TIP3   OH227226   2.786   2.370  10.551  0.1216 -0.0786 -0.2849
 1912TIP3    H127227   2.715   2.399  10.608  0.2427  0.3634 -0.3570
 1912TIP3    H227228   2.842   2.316  10.606  1.4854  2.2152  0.6126
 1913TIP3   OH227229   3.657   5.871  16.311  0.0810 -0.1898  0.2708
 1913TIP3    H127230   3.749   5.845  16.317 -0.1630 -0.8810  1.0318
 1913TIP3    H227231   3.648   5.907  16.222  1.1144  0.0074  0.2414
 1914TIP3   OH227232   4.727   1.831   6.883  0.1229 -0.0213  0.0889
 1914TIP3    H127233   4.707   1.750   6.928  1.7187 -0.4068  0.1363
 1914TIP3    H227234   4.806   1.812   6.831 -0.6514  0.9100 -1.4922
 1915TIP3   OH227235   0.344   2.569   2.628 -0.4153  0.1400 -0.1855
 1915TIP3    H127236   0.351   2.476   2.650 -1.6025 -0.1473 -0.9928
 1915TIP3    H227237   0.426   2.608   2.660 -0.0124 -1.1402  0.3453
 1916TIP3   OH227238   4.533   5.134   6.648 -0.0602  0.1707  0.4959
 1916TIP3    H127239   4.507   5.162   6.560 -0.0869  1.5624  0.9367
 1916TIP3    H227240   4.628   5.146   6.650  0.0538 -0.6749  0.3810
 1917TIP3   OH227241   3.428   5.863  14.441  0.2808  0.2485  0.0599
 1917TIP3    H127242   3.387   5.797  14.386 -0.5849  0.4128  0.4968
 1917TIP3    H227243   3.408   5.835  14.531  1.4072  0.1514  0.2909
 1918TIP3   OH227244   2.731   4.454   0.339 -0.0478 -0.7180  0.1090
 1918TIP3    H127245   2.785   4.506   0.399  0.1112  0.2798 -0.8802
 1918TIP3    H227246   2.770   4.367   0.340 -1.2064 -1.2531  2.9418
 1919TIP3   OH227247   0.110   4.949   2.957  0.1138  0.4019  0.1161
 1919TIP3    H127248   0.150   4.970   3.042 -0.2791  1.2288  0.1067
 1919TIP3    H227249   0.104   5.034   2.912 -0.8847  0.1577 -0.2177
 1920TIP3   OH227250   4.965   3.061   4.144 -0.0585 -0.3593 -0.0841
 1920TIP3    H127251   4.929   3.072   4.056 -0.5331 -0.2959  0.1162
 1920TIP3    H227252   5.059   3.070   4.132 -0.1488  0.0632 -0.5246
 1921TIP3   OH227253   4.493   0.746  13.251 -0.1534  0.3481  0.2467
 1921TIP3    H127254   4.504   0.827  13.202  0.1988 -0.0168 -0.2916
 1921TIP3    H227255   4.572   0.696  13.231  0.6212  0.7498  2.2664
 1922TIP3   OH227256   3.194   3.621   5.375  0.3150  0.1862  0.0120
 1922TIP3    H127257   3.219   3.684   5.308  0.6504  1.9657  1.7481
 1922TIP3    H227258   3.201   3.670   5.457 -3.1620 -0.9632  1.0876
 1923TIP3   OH227259   1.507   0.653   2.036  0.1519  0.3410 -0.2264
 1923TIP3    H127260   1.518   0.744   2.009 -0.3424  0.4028 -0.2317
 1923TIP3    H227261   1.594   0.615   2.030  0.2957  0.7253 -0.5526
 1924TIP3   OH227262   5.002   5.965   5.273 -0.2279 -0.4333 -0.7262
 1924TIP3    H127263   4.939   5.901   5.307 -0.6889 -0.3921 -1.4950
 1924TIP3    H227264   4.953   6.047   5.273  0.2456 -0.1465 -0.0977
 1925TIP3   OH227265   5.106   2.209  14.855  0.4774  0.0699  0.3802
 1925TIP3    H127266   5.075   2.289  14.896 -1.5683 -0.5828  0.1712
 1925TIP3    H227267   5.156   2.164  14.923 -1.7391 -0.3602  1.7661
 1926TIP3   OH227268   6.372   5.770  12.721 -0.1184 -0.2055 -0.0456
 1926TIP3    H127269   6.351   5.857  12.686 -1.0148 -0.1902  0.5381
 1926TIP3    H227270   6.373   5.713  12.644  0.7761  0.3769 -0.4708
 1927TIP3   OH227271   3.243   3.146   3.334 -0.5301 -0.5518 -0.3602
 1927TIP3    H127272   3.269   3.055   3.348 -1.4911 -0.9341 -1.0146
 1927TIP3    H227273   3.262   3.189   3.417 -1.3763 -1.6586  0.4162
 1928TIP3   OH227274   5.266   5.789  16.049 -0.5593  0.7487 -0.3307
 1928TIP3    H127275   5.199   5.846  16.087  0.0049  0.2962  1.4297
 1928TIP3    H227276   5.331   5.779  16.119 -0.8540 -2.3676 -0.4380
 1929TIP3   OH227277   0.844   3.054   5.408  0.1592  0.2379 -0.1585
 1929TIP3    H127278   0.905   2.989   5.442 -0.5271 -1.2071 -1.6589
 1929TIP3    H227279   0.893   3.102   5.341  0.7433  1.4732  1.1163
 1930TIP3   OH227280   1.451   6.488  12.507 -0.1603  0.1745 -0.3985
 1930TIP3    H127281   1.489   6.470  12.421 -0.4748 -0.1579 -0.4683
 1930TIP3    H227282   1.523   6.477  12.569 -0.3323 -1.2726 -0.4434
 1931TIP3   OH227283   1.175   4.276   2.409  0.1616  0.7971  0.1160
 1931TIP3    H127284   1.207   4.186   2.422 -0.6691  0.4817 -0.0103
 1931TIP3    H227285   1.251   4.323   2.374  0.2714 -0.1352 -0.9367
 1932TIP3   OH227286   4.254   5.087  12.281 -0.1276 -0.6400 -0.8389
 1932TIP3    H127287   4.234   5.076  12.188  0.0018 -1.1455 -0.8137
 1932TIP3    H227288   4.283   4.999  12.309  1.3465 -0.1329 -0.6953
 1933TIP3   OH227289   0.483   2.800  12.176 -0.1173 -0.4439 -0.4399
 1933TIP3    H127290   0.517   2.887  12.153 -0.7831 -0.6286 -2.2711
 1933TIP3    H227291   0.518   2.782  12.263 -1.1052  2.2611  0.5683
 1934TIP3   OH227292   0.084   3.712   4.686 -0.0666 -0.1431 -0.3165
 1934TIP3    H127293   0.076   3.620   4.661 -0.0036  0.0900 -1.1971
 1934TIP3    H227294   0.148   3.712   4.758 -1.3160 -0.9789  0.8281
 1935TIP3   OH227295   5.609   0.838  17.271  0.0887  0.0724  0.0151
 1935TIP3    H127296   5.596   0.779  17.346  0.4535 -0.1416 -0.0892
 1935TIP3    H227297   5.697   0.872  17.283 -0.0885  0.5317  0.0260
 1936TIP3   OH227298   4.711   4.792   5.221 -0.3092  0.1452  0.1122
 1936TIP3    H127299   4.637   4.835   5.178 -0.5886 -0.4795 -0.0426
 1936TIP3    H227300   4.674   4.754   5.301  0.3846  2.0484  1.3801
 1937TIP3   OH227301   1.798   2.555  16.266 -0.2064 -0.6696  0.1202
 1937TIP3    H127302   1.795   2.485  16.201  0.2097  0.6204 -1.3157
 1937TIP3    H227303   1.877   2.604  16.245 -1.5587  1.4298 -0.1799
 1938TIP3   OH227304   5.984   1.213  12.828  0.9105 -0.0449  0.1439
 1938TIP3    H127305   5.936   1.272  12.771 -0.5107 -1.2518  0.0511
 1938TIP3    H227306   5.941   1.222  12.913  0.3211 -1.3352 -0.0076
 1939TIP3   OH227307   4.189   6.102  16.719 -0.1281  0.3889 -0.4970
 1939TIP3    H127308   4.184   6.197  16.724 -1.1552  0.3003  0.5594
 1939TIP3    H227309   4.100   6.072  16.738  0.5280 -0.8143  0.8350
 1940TIP3   OH227310   1.013   6.093   4.884 -0.2192 -0.2446 -0.3832
 1940TIP3    H127311   1.051   6.099   4.796  1.2575 -0.0260  0.2609
 1940TIP3    H227312   0.988   6.182   4.906 -0.1658 -0.2252 -0.4007
 1941TIP3   OH227313   6.046   4.522  17.275  0.1455 -0.0681 -0.1732
 1941TIP3    H127314   6.062   4.595  17.215  1.2519  0.1420  0.3668
 1941TIP3    H227315   6.003   4.456  17.221  0.1589  0.5391 -0.9419
 1942TIP3   OH227316   3.852   4.910  17.093 -0.8715 -0.0389 -0.5940
 1942TIP3    H127317   3.930   4.953  17.057 -0.1163 -0.0769  0.9371
 1942TIP3    H227318   3.870   4.816  17.084 -0.2452 -0.0620  0.7280
 1943TIP3   OH227319   4.543   0.391   0.438 -0.3038 -0.2612  0.1451
 1943TIP3    H127320   4.626   0.440   0.438  0.0804 -0.8977 -0.0466
 1943TIP3    H227321   4.493   0.429   0.366 -0.6274  0.8658  0.9526
 1944TIP3   OH227322   3.225   3.491  11.195  0.5794 -0.0657 -0.2635
 1944TIP3    H127323   3.149   3.474  11.251  0.6391  0.0026 -0.1603
 1944TIP3    H227324   3.289   3.424  11.219  0.9783  0.5565  0.4477
 1945TIP3   OH227325   3.356   1.860   2.396 -0.1710 -0.8132  0.3329
 1945TIP3    H127326   3.333   1.836   2.486 -0.3061  0.2707  0.5934
 1945TIP3    H227327   3.434   1.807   2.376  1.1844  0.5388  1.8653
 1946TIP3   OH227328   4.962   6.393  16.754  0.1550  0.0721 -0.0245
 1946TIP3    H127329   5.024   6.321  16.744 -0.9855 -1.0719  1.0010
 1946TIP3    H227330   4.941   6.394  16.848  1.0042  2.4530  0.1650
 1947TIP3   OH227331   3.082   2.532  10.655  0.1213 -0.0675  0.4388
 1947TIP3    H127332   2.988   2.535  10.637  0.7036  0.0772 -2.7938
 1947TIP3    H227333   3.103   2.438  10.653  0.3005 -0.0131 -0.2848
 1948TIP3   OH227334   3.760   3.953  15.424  0.0648  0.5681 -0.4536
 1948TIP3    H127335   3.811   3.991  15.496 -0.3032 -1.1814  0.7693
 1948TIP3    H227336   3.687   4.014  15.412 -0.3950  0.3921  1.3211
 1949TIP3   OH227337   3.133   5.329  13.890 -0.4365  0.3432 -0.7788
 1949TIP3    H127338   3.134   5.243  13.847 -1.7090 -0.0272 -0.0989
 1949TIP3    H227339   3.187   5.385  13.834  1.8124 -1.3232 -0.3487
 1950TIP3   OH227340   6.180   4.514  13.716 -0.0028  0.2363 -0.1478
 1950TIP3    H127341   6.128   4.447  13.760 -2.8212  1.5349 -1.4335
 1950TIP3    H227342   6.242   4.543  13.784 -1.8073 -0.3734  1.8208
 1951TIP3   OH227343   0.312   3.425   2.274  0.5475  0.6309  1.1350
 1951TIP3    H127344   0.251   3.475   2.220  0.3466 -0.1331  0.6358
 1951TIP3    H227345   0.258   3.388   2.344  0.3495 -0.3586  0.4777
 1952TIP3   OH227346   3.270   1.775  13.145  0.2185 -0.1494 -0.3790
 1952TIP3    H127347   3.238   1.865  13.149  0.9772  0.1111 -0.1554
 1952TIP3    H227348   3.227   1.739  13.067 -0.0336  0.4201 -0.5101
 1953TIP3   OH227349   6.256   2.412   0.756  0.2902 -0.6301  0.8069
 1953TIP3    H127350   6.329   2.397   0.816  1.3152 -0.1429 -0.2887
 1953TIP3    H227351   6.259   2.338   0.695  1.4929  0.7095 -0.8095
 1954TIP3   OH227352   5.737   4.952   1.538 -0.0564  0.3236 -0.1207
 1954TIP3    H127353   5.694   4.885   1.592 -1.1676  1.4795  0.4570
 1954TIP3    H227354   5.791   4.902   1.477 -1.8275 -1.1786 -0.5326
 1955TIP3   OH227355   2.553   0.580   1.625  0.5201  0.0237 -0.0034
 1955TIP3    H127356   2.511   0.662   1.599 -1.2061 -0.9285 -0.2905
 1955TIP3    H227357   2.645   0.604   1.639 -0.0288  2.0828  0.3156
 1956TIP3   OH227358   4.512   3.889  17.035  0.2144  0.3208 -0.1620
 1956TIP3    H127359   4.581   3.832  17.069 -0.8345 -0.8389  0.0641
 1956TIP3    H227360   4.505   3.959  17.100  0.4484 -0.1426  0.3732
 1957TIP3   OH227361   1.454   4.196  14.956 -0.2775 -0.1700 -0.0917
 1957TIP3    H127362   1.402   4.238  15.024  0.9850  1.0333  0.1508
 1957TIP3    H227363   1.460   4.261  14.887  1.3000 -0.1034  0.0946
 1958TIP3   OH227364   6.140   3.783   5.670  0.2519 -0.2601 -0.0135
 1958TIP3    H127365   6.065   3.753   5.620  0.2504  2.0204 -1.4426
 1958TIP3    H227366   6.216   3.745   5.624  0.1863  0.8009 -0.9950
 1959TIP3   OH227367   6.341   6.036   1.808 -0.3444  0.0841  0.2998
 1959TIP3    H127368   6.356   5.975   1.736  1.6225  0.4639  0.3564
 1959TIP3    H227369   6.311   6.116   1.766  0.3270  0.1474 -0.0798
 1960TIP3   OH227370   3.931   4.599   4.846 -0.7502 -0.6672  0.0680
 1960TIP3    H127371   3.870   4.526   4.855 -0.3986 -0.8233  1.2735
 1960TIP3    H227372   4.005   4.576   4.902  0.1614 -0.1967 -0.9093
 1961TIP3   OH227373   0.129   1.476   5.686  0.1266 -0.2635 -0.4272
 1961TIP3    H127374   0.199   1.528   5.727 -0.1464  0.6076 -1.0493
 1961TIP3    H227375   0.050   1.501   5.734 -0.1806  0.6936 -1.4236
 1962TIP3   OH227376   1.524   4.648   2.337 -0.2846  0.2081  0.4605
 1962TIP3    H127377   1.587   4.703   2.383 -2.1107  2.3171  0.5359
 1962TIP3    H227378   1.559   4.640   2.248  0.0466  1.4630  0.4698
 1963TIP3   OH227379   1.716   4.986   1.208 -0.3068 -0.1355  0.6652
 1963TIP3    H127380   1.721   4.994   1.113  0.8580  0.4955  0.7715
 1963TIP3    H227381   1.763   4.905   1.229 -1.0970 -0.5990  0.6534
 1964TIP3   OH227382   4.707   0.748   4.528 -0.2337 -0.0598 -0.0638
 1964TIP3    H127383   4.754   0.796   4.460  0.6076 -0.7107  0.0502
 1964TIP3    H227384   4.623   0.726   4.488  0.6337 -1.2750 -1.2354
 1965TIP3   OH227385   6.263   4.748  12.321 -0.5676  0.8085 -0.7637
 1965TIP3    H127386   6.272   4.653  12.324 -1.1322  0.7984  1.2826
 1965TIP3    H227387   6.177   4.766  12.359  1.1491  2.3418  2.6678
 1966TIP3   OH227388   0.259   3.096   5.634  0.1973 -0.2310  0.5550
 1966TIP3    H127389   0.196   3.026   5.650 -1.1945  0.9315  0.2429
 1966TIP3    H227390   0.339   3.050   5.605 -0.5404 -1.7037  0.7970
 1967TIP3   OH227391   4.167   0.922   2.345 -0.0991  0.4504 -0.3405
 1967TIP3    H127392   4.260   0.928   2.366 -0.5372  0.6595  1.6628
 1967TIP3    H227393   4.149   0.828   2.340 -0.4486  0.3323  2.5414
 1968TIP3   OH227394   3.275   5.774  14.207 -0.0613 -0.3276 -0.7046
 1968TIP3    H127395   3.217   5.706  14.242 -0.4965 -0.2373 -1.2540
 1968TIP3    H227396   3.220   5.853  14.206  0.5334  0.1137  0.2263
 1969TIP3   OH227397   0.897   5.858   4.144  0.2412 -0.3216  0.1091
 1969TIP3    H127398   0.851   5.919   4.086  2.0206  0.5527 -0.4131
 1969TIP3    H227399   0.976   5.834   4.096  0.0483 -2.2774  0.7472
 1970TIP3   OH227400   3.617   3.969   2.955  0.4939 -0.0464 -0.5434
 1970TIP3    H127401   3.570   3.989   2.875 -0.1088  0.9308  0.0577
 1970TIP3    H227402   3.696   3.923   2.925 -0.9238 -1.9001 -1.5286
 1971TIP3   OH227403   4.209   2.789  16.647  0.9557  0.4101 -0.1076
 1971TIP3    H127404   4.251   2.713  16.687  1.0833  0.5094 -0.0518
 1971TIP3    H227405   4.115   2.770  16.653  1.0092 -0.1786 -0.9499
 1972TIP3   OH227406   6.703   0.219   1.516  0.2893  0.0297  0.2301
 1972TIP3    H127407   6.724   0.313   1.508 -0.9267  0.2112 -1.0594
 1972TIP3    H227408   6.743   0.180   1.438 -0.0516 -0.3715  0.2613
 1973TIP3   OH227409   6.270   4.080  12.794  0.2639  0.4180 -0.0448
 1973TIP3    H127410   6.183   4.083  12.833 -0.3402  0.2862 -1.3824
 1973TIP3    H227411   6.270   4.002  12.739  0.8716  1.0085 -0.8948
 1974TIP3   OH227412   3.422   3.928   5.606 -0.1961 -0.0075  0.0907
 1974TIP3    H127413   3.434   4.022   5.591  0.3819 -0.2100 -0.7682
 1974TIP3    H227414   3.448   3.887   5.523 -1.0179 -0.8867  0.2622
 1975TIP3   OH227415   6.240   6.531   3.264  0.2681 -0.1068 -0.3118
 1975TIP3    H127416   6.151   6.496   3.255 -0.2400  0.4575  2.1595
 1975TIP3    H227417   6.294   6.454   3.279  0.0949 -0.3946 -1.1498
 1976TIP3   OH227418   1.573   3.175  13.993  0.2023  0.4438 -0.7314
 1976TIP3    H127419   1.619   3.222  14.062  0.5844  1.9539 -1.9783
 1976TIP3    H227420   1.501   3.130  14.038  1.6599 -0.2820  0.9267
 1977TIP3   OH227421   3.124   2.326   1.980 -0.1651 -0.3323  0.3060
 1977TIP3    H127422   3.100   2.254   1.922  0.4171  0.9826 -1.6286
 1977TIP3    H227423   3.211   2.353   1.951  0.4261 -0.0695  2.2441
 1978TIP3   OH227424   1.501   6.060  10.859  0.5888 -0.1000 -0.4928
 1978TIP3    H127425   1.518   5.969  10.837 -3.3118 -0.4168 -2.4812
 1978TIP3    H227426   1.538   6.110  10.786  0.9165 -0.1671 -0.3774
 1979TIP3   OH227427   0.860   0.727  13.730  0.7589 -1.7014 -0.5178
 1979TIP3    H127428   0.800   0.738  13.657  0.0823  0.6089  0.3661
 1979TIP3    H227429   0.806   0.692  13.801  0.5708 -0.1946  0.0890
 1980TIP3   OH227430   1.979   3.013  15.427  0.2649 -0.9058 -0.0653
 1980TIP3    H127431   2.027   3.031  15.346  0.5427 -2.1363 -0.1846
 1980TIP3    H227432   2.046   2.995  15.492  0.0026 -2.4698 -0.1924
 1981TIP3   OH227433   4.752   4.445   5.388 -0.5520 -0.2403  0.2450
 1981TIP3    H127434   4.685   4.500   5.429 -0.6262 -0.7711  0.8358
 1981TIP3    H227435   4.706   4.404   5.314 -0.1491  1.4964 -1.0179
 1982TIP3   OH227436   0.105   0.462   5.320 -0.1082 -0.4037  0.0183
 1982TIP3    H127437   0.074   0.396   5.258  1.4358 -2.0399  0.9082
 1982TIP3    H227438   0.133   0.535   5.266 -0.0141 -1.2834 -1.1321
 1983TIP3   OH227439   4.626   2.027  14.463  0.4803  0.3919 -0.3867
 1983TIP3    H127440   4.630   2.122  14.453 -1.4172  0.6143  0.8053
 1983TIP3    H227441   4.567   1.998  14.393  0.1753  0.1948 -0.0454
 1984TIP3   OH227442   3.256   3.842   0.121 -0.2327  0.4233  0.3599
 1984TIP3    H127443   3.330   3.869   0.176 -0.6057  0.5816  0.7925
 1984TIP3    H227444   3.291   3.770   0.068 -0.0311 -0.1468  1.2388
 1985TIP3   OH227445   5.790   3.587  13.782 -0.3374  0.0624 -0.3453
 1985TIP3    H127446   5.783   3.657  13.716  0.8643 -0.3383 -0.9210
 1985TIP3    H227447   5.704   3.583  13.822 -0.7804  1.0428 -1.1704
 1986TIP3   OH227448   0.228   0.326   3.439  0.0555  0.1240  0.5848
 1986TIP3    H127449   0.292   0.288   3.380  1.1871  0.5942  1.4852
 1986TIP3    H227450   0.203   0.409   3.397 -0.2604 -0.2395  0.0459
 1987TIP3   OH227451   4.794   0.975  11.278 -0.0017 -0.3396  0.3045
 1987TIP3    H127452   4.800   0.897  11.222 -0.5479  0.3597 -0.7546
 1987TIP3    H227453   4.875   1.023  11.261  0.4312 -0.7687  1.1161
 1988TIP3   OH227454   4.792   1.939   2.662 -0.7605 -0.2959  0.2202
 1988TIP3    H127455   4.775   1.868   2.600 -0.2035  0.2262 -0.5424
 1988TIP3    H227456   4.813   2.014   2.607  1.0885 -0.1609  1.0528
 1989TIP3   OH227457   6.075   1.295   1.450 -0.5578 -0.5487 -0.1590
 1989TIP3    H127458   6.134   1.368   1.429 -0.3702 -0.5391  0.3949
 1989TIP3    H227459   6.073   1.292   1.545 -1.3610 -0.6358 -0.1767
 1990TIP3   OH227460   2.873   3.891  13.784  0.5150 -0.7256 -0.3273
 1990TIP3    H127461   2.886   3.904  13.690 -0.6036  0.5775 -0.3201
 1990TIP3    H227462   2.936   3.951  13.825 -0.0236 -0.2038 -0.2589
 1991TIP3   OH227463   0.794   2.498  15.616  0.9239 -0.3466 -0.2257
 1991TIP3    H127464   0.817   2.553  15.541  2.6686 -2.8613 -1.5890
 1991TIP3    H227465   0.706   2.465  15.595  0.8155  0.1024 -0.4873
 1992TIP3   OH227466   2.419   1.163  14.478 -0.1997 -0.3489 -0.3687
 1992TIP3    H127467   2.371   1.157  14.561 -0.2822  1.5904 -0.2637
 1992TIP3    H227468   2.505   1.197  14.503 -0.6126  1.3555 -1.1923
 1993TIP3   OH227469   3.315   5.011   5.665 -0.1683  0.1527  0.1916
 1993TIP3    H127470   3.257   5.025   5.740 -1.4403 -1.3253 -0.4978
 1993TIP3    H227471   3.402   5.038   5.697 -0.7383 -0.1652  2.0905
 1994TIP3   OH227472   4.154   2.074   6.334  0.1180 -0.4006 -0.5437
 1994TIP3    H127473   4.069   2.110   6.361  1.0636  1.3338  0.2056
 1994TIP3    H227474   4.159   1.990   6.379 -1.0083 -0.2956 -0.2087
 1995TIP3   OH227475   2.344   0.833  16.510  0.0199  0.5825  0.1699
 1995TIP3    H127476   2.285   0.904  16.535 -0.1242 -0.0872  1.7878
 1995TIP3    H227477   2.318   0.760  16.565 -0.4577 -1.0398 -2.1392
 1996TIP3   OH227478   1.458   0.294   1.868  0.1881 -0.4373  0.3751
 1996TIP3    H127479   1.409   0.258   1.794  1.2730 -2.5530  0.6685
 1996TIP3    H227480   1.404   0.368   1.898 -2.3048 -2.0533  0.0333
 1997TIP3   OH227481   5.111   4.289  14.512 -0.2843  0.0577 -0.4290
 1997TIP3    H127482   5.077   4.297  14.423 -0.7453  1.1742 -0.1518
 1997TIP3    H227483   5.201   4.258  14.500  0.0061  1.2281 -1.3272
 1998TIP3   OH227484   0.746   3.979  11.827  0.2614 -0.2809  0.0669
 1998TIP3    H127485   0.729   4.016  11.913 -0.2662 -1.3125  0.4125
 1998TIP3    H227486   0.670   3.924  11.809 -0.3737  1.1279 -1.7287
 1999TIP3   OH227487   5.158   0.539   4.880 -0.4058 -0.0681  0.6623
 1999TIP3    H127488   5.240   0.544   4.831  0.4682 -1.4030  1.9270
 1999TIP3    H227489   5.156   0.449   4.914 -0.3901  1.1386  4.0622
 2000TIP3   OH227490   0.884   0.419   1.457 -0.0891 -0.4445 -0.2072
 2000TIP3    H127491   0.853   0.433   1.547 -0.4533  0.5381 -0.4705
 2000TIP3    H227492   0.832   0.345   1.425 -0.5833 -0.2414  0.1056
 2001TIP3   OH227493   6.407   0.151  12.108 -0.3808 -0.0685 -0.1350
 2001TIP3    H127494   6.386   0.065  12.072 -0.2200 -0.1385 -0.0636
 2001TIP3    H227495   6.448   0.132  12.193  0.7059  0.0245 -0.6219
 2002TIP3   OH227496   4.841   3.839   3.925 -0.0745 -0.5355 -0.2704
 2002TIP3    H127497   4.774   3.810   3.987  0.6541 -3.8130 -0.9109
 2002TIP3    H227498   4.917   3.859   3.980  0.0390 -1.7918  0.0311
 2003TIP3   OH227499   4.515   1.793  11.202  0.3363  0.1770  0.4559
 2003TIP3    H127500   4.517   1.887  11.218  0.3157 -0.0083  1.5832
 2003TIP3    H227501   4.479   1.756  11.283  0.5348 -0.8114  0.0919
 2004TIP3   OH227502   5.405   6.748   5.322 -0.1626 -0.2653  0.2326
 2004TIP3    H127503   5.485   6.743   5.374 -0.1798 -0.2417  0.2615
 2004TIP3    H227504   5.374   6.838   5.334 -1.2100 -0.8048  1.7294
 2005TIP3   OH227505   1.826   5.977   1.688  0.6430 -0.0606  0.0728
 2005TIP3    H127506   1.872   5.894   1.676 -1.4070 -1.1402 -0.5772
 2005TIP3    H227507   1.735   5.952   1.707 -0.5874  2.0387 -2.6935
 2006TIP3   OH227508   4.470   3.492   4.450  0.4212 -0.6106 -0.6198
 2006TIP3    H127509   4.472   3.577   4.494 -0.5160 -0.4481 -0.8648
 2006TIP3    H227510   4.461   3.428   4.521  0.3050 -0.4448 -0.4835
 2007TIP3   OH227511   4.853   3.345   3.430  0.0639 -0.5090 -0.1222
 2007TIP3    H127512   4.818   3.434   3.431 -0.1651 -0.5904 -1.0485
 2007TIP3    H227513   4.930   3.350   3.374  0.0386 -0.8981 -0.1944
 2008TIP3   OH227514   0.725   3.149   2.173  0.5298  0.3531 -0.1249
 2008TIP3    H127515   0.782   3.176   2.100  0.3342  1.3802  0.0852
 2008TIP3    H227516   0.671   3.227   2.190 -1.0389 -0.6469 -0.4166
 2009TIP3   OH227517   4.785   1.816  16.067  0.1741  0.0952  0.3121
 2009TIP3    H127518   4.869   1.828  16.111  0.9595  1.0716 -1.3834
 2009TIP3    H227519   4.753   1.905  16.052 -0.5742 -0.2476 -0.1545
 2010TIP3   OH227520   2.945   2.928   4.141 -0.3818 -0.3395 -0.2004
 2010TIP3    H127521   2.935   2.833   4.148  1.4465 -0.6085 -1.1627
 2010TIP3    H227522   2.907   2.950   4.056  0.5889 -0.4062 -0.6499
 2011TIP3   OH227523   5.201   3.586   0.415 -0.3681 -0.3707  0.1445
 2011TIP3    H127524   5.289   3.551   0.401 -0.4981 -0.7425  0.2408
 2011TIP3    H227525   5.144   3.510   0.407 -0.7963  0.0627 -1.0946
 2012TIP3   OH227526   3.011   3.440   4.744 -0.0995  0.5759 -0.2367
 2012TIP3    H127527   3.038   3.434   4.652  0.6807 -0.0721  0.0343
 2012TIP3    H227528   2.941   3.375   4.753  3.7606 -3.6438  1.0355
 2013TIP3   OH227529   6.777   0.775  16.139  0.1632 -0.6303 -0.1468
 2013TIP3    H127530   6.847   0.739  16.085  2.3811  2.1938  0.7307
 2013TIP3    H227531   6.813   0.777  16.228 -1.4051 -0.1087  0.5032
 2014TIP3   OH227532   6.047   6.030  12.298 -0.3631  0.1390 -0.3706
 2014TIP3    H127533   6.064   6.107  12.244  1.1171  0.2476  0.2159
 2014TIP3    H227534   6.102   6.043  12.376 -1.0957 -0.8764  0.3286
 2015TIP3   OH227535   3.060   4.460   0.082  0.3328 -0.1695 -0.4547
 2015TIP3    H127536   3.040   4.531   0.142 -1.7406 -1.6839  0.6968
 2015TIP3    H227537   3.134   4.493   0.031  1.2428  1.7070  1.9392
 2016TIP3   OH227538   6.787   1.727   3.721 -0.1728  0.0911 -0.4067
 2016TIP3    H127539   6.814   1.636   3.730  0.9199  0.5596  1.2519
 2016TIP3    H227540   6.699   1.723   3.685  0.0798 -1.5990 -0.8599
 2017TIP3   OH227541   5.693   4.463   5.051  0.1441  0.0584  0.9220
 2017TIP3    H127542   5.701   4.557   5.070  2.1417 -0.0176  0.5503
 2017TIP3    H227543   5.636   4.429   5.120 -1.7359  1.7714  0.2718
 2018TIP3   OH227544   2.099   4.621   5.175 -0.5036  0.1155  0.0711
 2018TIP3    H127545   2.028   4.567   5.140 -0.4687 -0.5082  0.9456
 2018TIP3    H227546   2.055   4.686   5.229 -0.5742  1.2249 -1.3091
 2019TIP3   OH227547   1.335   3.639   3.066  0.8748  0.3699 -0.2429
 2019TIP3    H127548   1.420   3.623   3.025  1.4936  0.7639  0.8391
 2019TIP3    H227549   1.348   3.721   3.115  0.3469 -0.3794  1.1752
 2020TIP3   OH227550   2.442   3.690  14.049 -0.1244  0.1934  0.1887
 2020TIP3    H127551   2.528   3.715  14.015  0.6258 -1.3038  0.9602
 2020TIP3    H227552   2.456   3.606  14.092 -1.9381  0.0268  0.5066
 2021TIP3   OH227553   3.744   4.822  16.182  0.8189  0.8432  0.1798
 2021TIP3    H127554   3.690   4.850  16.107  0.8038  0.9405  0.2250
 2021TIP3    H227555   3.818   4.882  16.182  0.6390  1.0639  0.4550
 2022TIP3   OH227556   2.931   5.833   4.142 -0.2648 -0.5263 -0.4335
 2022TIP3    H127557   2.928   5.801   4.052 -0.8924 -0.6866 -0.3574
 2022TIP3    H227558   2.988   5.771   4.187 -0.3928 -0.7629 -0.5958
 2023TIP3   OH227559   4.704   4.550  15.373  0.4489  0.8715  0.3836
 2023TIP3    H127560   4.619   4.567  15.332  0.9915  0.2676 -1.0488
 2023TIP3    H227561   4.736   4.636  15.398 -1.0450  1.0135  1.9079
 2024TIP3   OH227562   5.354   1.615   3.976  0.4252 -0.0067 -0.3053
 2024TIP3    H127563   5.313   1.671   4.042  0.8198 -0.3764  0.2628
 2024TIP3    H227564   5.361   1.670   3.898 -2.3050 -0.3276 -0.8083
 2025TIP3   OH227565   5.773   5.020  15.077  0.4057  1.1510  0.2130
 2025TIP3    H127566   5.693   5.041  15.126 -0.3538  1.4912 -1.1360
 2025TIP3    H227567   5.832   4.984  15.143 -0.5890  1.5853  1.3768
 2026TIP3   OH227568   3.936   0.598   4.799 -0.2023  0.3885  0.0287
 2026TIP3    H127569   3.981   0.594   4.884  0.8397 -0.2301 -0.5455
 2026TIP3    H227570   3.846   0.624   4.821 -0.1458 -0.5161  1.3950
 2027TIP3   OH227571   0.981   3.731   0.491 -0.2874  0.8077  0.1482
 2027TIP3    H127572   0.990   3.739   0.586 -1.2442 -2.0403  0.5201
 2027TIP3    H227573   0.887   3.731   0.476 -0.1798 -0.8475 -0.5821
 2028TIP3   OH227574   0.350   2.740   0.788  0.3920 -0.0524  0.1788
 2028TIP3    H127575   0.439   2.715   0.762 -0.4489 -2.1454 -0.7294
 2028TIP3    H227576   0.332   2.820   0.739  1.1411 -0.5484 -0.9066
 2029TIP3   OH227577   2.524   1.671  17.208 -0.5265  0.5482 -0.3392
 2029TIP3    H127578   2.495   1.600  17.266 -1.3187  1.2042  0.0701
 2029TIP3    H227579   2.566   1.626  17.134 -0.6830 -0.3297  0.1063
 2030TIP3   OH227580   4.528   5.605   0.976 -0.6115 -0.6493 -0.5271
 2030TIP3    H127581   4.604   5.575   0.926  0.6093 -1.4201  1.6855
 2030TIP3    H227582   4.535   5.700   0.974  1.0587 -0.7082  0.4886
 2031TIP3   OH227583   0.981   3.302   1.704 -0.3751  0.0409 -0.1742
 2031TIP3    H127584   0.941   3.368   1.647 -1.4150  0.5895  1.1409
 2031TIP3    H227585   0.996   3.226   1.648  0.8247  1.3823 -1.7178
 2032TIP3   OH227586   0.581   5.659   2.088 -0.6573 -0.3074 -0.6286
 2032TIP3    H127587   0.513   5.618   2.035 -2.0045  0.0858  0.7682
 2032TIP3    H227588   0.534   5.698   2.162  1.3477 -2.5728  1.9625
 2033TIP3   OH227589   2.551   0.928  14.877 -0.5891  0.4319 -0.1652
 2033TIP3    H127590   2.642   0.912  14.852 -0.8173 -0.2810 -0.5604
 2033TIP3    H227591   2.513   0.841  14.885 -1.4715  0.7479 -0.8631
 2034TIP3   OH227592   2.695   3.335  16.403 -0.0668 -0.0423  0.5028
 2034TIP3    H127593   2.657   3.275  16.468 -0.6308 -0.4480 -0.1960
 2034TIP3    H227594   2.627   3.344  16.336  0.4691  0.4613  0.0246
 2035TIP3   OH227595   3.100   5.024  14.683 -0.3756 -0.2980 -0.6164
 2035TIP3    H127596   3.095   5.056  14.593  1.9479  0.0590 -0.6597
 2035TIP3    H227597   3.093   4.929  14.675  4.5524 -0.7191 -1.7446
 2036TIP3   OH227598   0.751   6.623  16.642 -0.5710 -0.6238 -0.0494
 2036TIP3    H127599   0.781   6.554  16.583  0.5372 -0.0983 -0.1132
 2036TIP3    H227600   0.827   6.642  16.697 -0.2670  1.8289 -1.2496
 2037TIP3   OH227601   2.586   1.170   0.913 -0.6059 -0.1205 -0.0468
 2037TIP3    H127602   2.604   1.256   0.952  2.4058 -0.5971 -0.2812
 2037TIP3    H227603   2.566   1.114   0.988 -2.2234  0.6714  0.1390
 2038TIP3   OH227604   4.188   2.852  14.685 -0.1263  0.5287 -0.3968
 2038TIP3    H127605   4.238   2.930  14.660  0.9308  0.9797  2.9117
 2038TIP3    H227606   4.115   2.886  14.736 -1.7078 -0.4317 -1.9707
 2039TIP3   OH227607   6.449   3.203  10.802  0.4126 -0.1409 -0.3248
 2039TIP3    H127608   6.433   3.108  10.798 -0.2352 -0.0016 -1.1791
 2039TIP3    H227609   6.394   3.234  10.873  0.0683 -0.3012 -0.5168
 2040TIP3   OH227610   3.583   0.348  16.638  0.2392 -0.2586 -0.0064
 2040TIP3    H127611   3.497   0.321  16.608 -0.5683  0.9790  1.0921
 2040TIP3    H227612   3.605   0.423  16.583  0.8783 -0.9348 -0.6747
 2041TIP3   OH227613   6.011   5.090   3.618  0.6002  0.1515 -0.5270
 2041TIP3    H127614   6.100   5.118   3.596  1.0963 -0.6914  0.3451
 2041TIP3    H227615   5.997   5.011   3.565  1.0965 -0.8110  0.7648
 2042TIP3   OH227616   5.000   0.393   6.025  0.5575  0.3870 -0.0172
 2042TIP3    H127617   5.031   0.330   6.089  0.2619  0.8008  0.5327
 2042TIP3    H227618   4.974   0.469   6.076  1.2685  1.1073 -0.7126
 2043TIP3   OH227619   4.267   4.397   2.810 -0.8131  0.2402  0.2015
 2043TIP3    H127620   4.200   4.393   2.879 -1.7501  0.6418 -0.6747
 2043TIP3    H227621   4.217   4.399   2.729  0.1577  3.9660 -0.3754
 2044TIP3   OH227622   5.737   1.286   3.182  0.0146 -0.4412 -0.7874
 2044TIP3    H127623   5.701   1.304   3.096 -1.0624 -0.9096 -0.4386
 2044TIP3    H227624   5.811   1.346   3.191 -1.3504  1.2815 -1.0442
 2045TIP3   OH227625   0.919   5.645   3.124 -0.2453 -0.8004  0.2193
 2045TIP3    H127626   0.943   5.556   3.148  0.9023 -0.7200 -0.5959
 2045TIP3    H227627   0.968   5.662   3.044 -0.0238  0.7612  0.6728
 2046TIP3   OH227628   3.970   2.639  14.878 -0.1199  0.3237  0.1233
 2046TIP3    H127629   4.055   2.650  14.835 -0.8550 -0.2360 -1.5165
 2046TIP3    H227630   3.952   2.725  14.915  2.0201 -0.0533  2.1361
 2047TIP3   OH227631   2.818   2.613  10.690 -0.3323  0.0318  0.2199
 2047TIP3    H127632   2.816   2.708  10.681  0.2295 -0.0149 -0.4130
 2047TIP3    H227633   2.842   2.598  10.781  0.0991  0.4955  0.1825
 2048TIP3   OH227634   2.166   5.850  12.965  0.2236  0.0129  0.3784
 2048TIP3    H127635   2.233   5.782  12.965  0.8824  0.6473  0.6260
 2048TIP3    H227636   2.182   5.899  13.046 -0.7088  0.0070  0.5717
 2049TIP3   OH227637   3.131   4.089  13.308 -0.6590 -0.6857  0.0669
 2049TIP3    H127638   3.078   4.169  13.312  1.6707  0.9122  0.2834
 2049TIP3    H227639   3.132   4.066  13.215  1.4532  1.5828 -0.5452
 2050TIP3   OH227640   3.309   3.356  14.140 -0.5760 -0.3054 -0.1540
 2050TIP3    H127641   3.271   3.351  14.052  2.5869 -0.6058 -1.5617
 2050TIP3    H227642   3.379   3.421  14.133  0.9303 -1.6570  1.6313
 2051TIP3   OH227643   5.245   2.293   3.645 -0.1919 -0.5051 -0.2743
 2051TIP3    H127644   5.271   2.309   3.555 -0.1024 -0.0136 -0.1596
 2051TIP3    H227645   5.311   2.339   3.698 -0.0300 -1.0912  0.0471
 2052TIP3   OH227646   1.791   4.824  16.449  0.3208 -0.2707  0.4283
 2052TIP3    H127647   1.876   4.781  16.453  1.0231  1.0147 -0.2544
 2052TIP3    H227648   1.810   4.915  16.473 -1.0227 -0.1874  1.2196
 2053TIP3   OH227649   3.452   0.112  11.412 -0.2421 -0.3432 -0.5775
 2053TIP3    H127650   3.418   0.068  11.490 -0.0622 -2.2855 -1.5479
 2053TIP3    H227651   3.374   0.142  11.366 -0.2817  2.5469  1.2801
 2054TIP3   OH227652   0.922   5.442  14.860 -0.0299  0.3977 -0.3237
 2054TIP3    H127653   0.989   5.442  14.929 -0.3699  0.4694  0.0080
 2054TIP3    H227654   0.841   5.463  14.906 -0.0051  2.0053 -0.9926
 2055TIP3   OH227655   4.551   6.337   2.318  0.1896 -0.5180 -0.0864
 2055TIP3    H127656   4.619   6.270   2.328  0.6568  0.1848  1.6087
 2055TIP3    H227657   4.569   6.377   2.233  1.4053 -0.8867 -0.0095
 2056TIP3   OH227658   2.337   6.489   5.600 -0.0049  0.3187 -0.2757
 2056TIP3    H127659   2.290   6.406   5.595  1.3349 -0.4311 -0.7883
 2056TIP3    H227660   2.343   6.509   5.693 -3.0882  1.4626 -0.2816
 2057TIP3   OH227661   0.237   2.715   5.508 -0.5880 -0.4500  0.3177
 2057TIP3    H127662   0.252   2.639   5.452 -0.4024  0.6059 -1.0872
 2057TIP3    H227663   0.154   2.751   5.478  0.0505  0.7623 -0.0234
 2058TIP3   OH227664   0.104   3.269  15.660  0.0213 -0.2262 -0.1640
 2058TIP3    H127665   0.088   3.363  15.660 -1.4123 -0.4463  1.6817
 2058TIP3    H227666   0.182   3.257  15.713 -0.4737 -0.1840  0.5715
 2059TIP3   OH227667   0.273   6.304  13.954  0.1254 -0.4121 -0.0678
 2059TIP3    H127668   0.259   6.210  13.962  1.3749 -0.5492  0.6923
 2059TIP3    H227669   0.209   6.343  14.013 -1.1594 -0.7247 -1.2329
 2060TIP3   OH227670   0.343   3.847   0.479 -0.0154 -0.0985 -0.2862
 2060TIP3    H127671   0.329   3.877   0.569 -0.3148  0.6264 -0.5675
 2060TIP3    H227672   0.255   3.830   0.446 -0.1423  2.3764 -1.3540
 2061TIP3   OH227673   2.954   3.424   2.388  0.2517 -0.5368  0.0725
 2061TIP3    H127674   2.898   3.478   2.332  1.8515 -0.5198 -1.5698
 2061TIP3    H227675   3.037   3.471   2.392  0.4645 -1.0216  1.6990
 2062TIP3   OH227676   2.659   0.990   5.105  0.6274 -0.4533  0.2171
 2062TIP3    H127677   2.691   1.048   5.174 -0.5988  1.0518 -0.4492
 2062TIP3    H227678   2.710   1.014   5.028 -0.5371  0.4314 -0.2966
 2063TIP3   OH227679   2.752   0.477  12.932  0.8005  0.3892 -0.0705
 2063TIP3    H127680   2.841   0.502  12.905  0.4472  1.6468 -0.1162
 2063TIP3    H227681   2.765   0.412  13.001  1.7458 -0.1087 -0.7037
 2064TIP3   OH227682   5.076   5.043   0.464 -0.5175 -1.1602  0.0316
 2064TIP3    H127683   5.168   5.066   0.474 -0.6989 -0.7198  0.6945
 2064TIP3    H227684   5.070   5.007   0.375 -0.3435  1.8713 -1.2783
 2065TIP3   OH227685   3.883   4.553  12.045  0.8140  0.6596  0.2057
 2065TIP3    H127686   3.844   4.632  12.006 -0.1096  0.2768  0.3361
 2065TIP3    H227687   3.970   4.581  12.075  1.1754  1.1990 -1.2925
 2066TIP3   OH227688   6.634   0.191  17.057 -0.2215 -0.2269  1.0064
 2066TIP3    H127689   6.647   0.279  17.021 -2.4612 -0.2832  0.0108
 2066TIP3    H227690   6.651   0.202  17.151  1.4338  0.8264  0.6164
 2067TIP3   OH227691   5.015   1.450  16.426 -0.2081  0.2564 -0.2787
 2067TIP3    H127692   4.938   1.447  16.483 -1.0862 -0.1107 -1.4724
 2067TIP3    H227693   5.085   1.411  16.478 -0.9012  0.3088  0.7066
 2068TIP3   OH227694   1.378   3.123  11.202  0.7243  0.8268  0.0547
 2068TIP3    H127695   1.412   3.081  11.281 -0.0458 -0.4586 -0.2955
 2068TIP3    H227696   1.355   3.051  11.144  2.7145  1.7608 -1.9840
 2069TIP3   OH227697   4.473   3.257  14.199  0.0646  0.0085 -0.2581
 2069TIP3    H127698   4.499   3.245  14.108  0.8435 -1.1199  0.1034
 2069TIP3    H227699   4.546   3.223  14.250 -0.1475  1.1005  0.8013
 2070TIP3   OH227700   1.142   0.304  14.374  0.3303  0.1964 -0.1346
 2070TIP3    H127701   1.172   0.221  14.339  0.0923  0.2677 -0.5072
 2070TIP3    H227702   1.052   0.313  14.344  1.0031  1.5602 -1.8621
 2071TIP3   OH227703   6.602   3.914   0.991  0.6755  0.3866  0.1433
 2071TIP3    H127704   6.658   3.880   1.061  1.0387 -0.8584 -0.7247
 2071TIP3    H227705   6.573   3.836   0.944  0.0385  1.1728 -0.7881
 2072TIP3   OH227706   3.548   5.795   2.157 -0.1739 -0.2851  0.1283
 2072TIP3    H127707   3.637   5.787   2.124 -0.3693 -0.1967 -0.4345
 2072TIP3    H227708   3.554   5.858   2.228 -0.2367  1.9417 -1.7618
 2073TIP3   OH227709   2.150   1.390  16.500 -0.3215 -0.3102  0.4122
 2073TIP3    H127710   2.071   1.425  16.540  0.0804 -0.8578  1.6968
 2073TIP3    H227711   2.212   1.463  16.499 -0.6231 -0.0559 -0.0325
 2074TIP3   OH227712   1.646   2.235   3.646  0.2651 -0.5508 -0.3830
 2074TIP3    H127713   1.664   2.265   3.556  0.2796 -0.9308 -0.5077
 2074TIP3    H227714   1.590   2.158   3.634 -2.0589  1.0125 -0.0044
 2075TIP3   OH227715   5.855   1.519  13.803  0.9237 -0.6941 -0.3304
 2075TIP3    H127716   5.877   1.600  13.757  2.1143 -1.9297 -2.0091
 2075TIP3    H227717   5.763   1.530  13.829  1.3780  1.5944  0.3990
 2076TIP3   OH227718   2.462   6.477   1.943 -0.3349 -0.7556  0.1098
 2076TIP3    H127719   2.412   6.426   1.880  1.3682  0.5012 -2.3149
 2076TIP3    H227720   2.536   6.420   1.966 -1.2141 -1.4097  1.4077
 2077TIP3   OH227721   3.651   6.593  15.689  0.3515 -0.2726  0.4574
 2077TIP3    H127722   3.623   6.549  15.608 -0.2916  0.2418  0.4006
 2077TIP3    H227723   3.570   6.608  15.737  0.7425 -0.6481  1.2405
 2078TIP3   OH227724   1.935   0.451  15.473 -0.0243 -0.4726 -0.0715
 2078TIP3    H127725   1.848   0.411  15.468  0.4397 -1.5527  0.2253
 2078TIP3    H227726   1.966   0.428  15.561  0.0908  0.9098  0.2641
 2079TIP3   OH227727   0.595   0.129  16.618 -0.2139  0.1752  0.4152
 2079TIP3    H127728   0.680   0.118  16.661 -0.7732  0.7330  1.6858
 2079TIP3    H227729   0.539   0.167  16.685 -0.3891  3.6339 -1.5905
 2080TIP3   OH227730   6.169   5.335  14.797  0.1106  0.7727  0.0550
 2080TIP3    H127731   6.189   5.409  14.854  0.0946  1.0164 -0.2579
 2080TIP3    H227732   6.166   5.260  14.856  1.6094  0.7816  0.1521
 2081TIP3   OH227733   1.768   5.520  14.084  0.2972  0.4209 -0.2904
 2081TIP3    H127734   1.710   5.500  14.157  0.1687  2.8151  0.3159
 2081TIP3    H227735   1.847   5.468  14.101 -0.1842  0.0771  0.9406
 2082TIP3   OH227736   2.412   5.170   6.230 -0.3808 -0.2096 -0.1280
 2082TIP3    H127737   2.367   5.099   6.277  1.1746  0.3187  2.2350
 2082TIP3    H227738   2.474   5.125   6.173 -1.7286 -0.8290 -1.1487
 2083TIP3   OH227739   5.765   6.364  12.794 -0.0531 -0.7095  0.0398
 2083TIP3    H127740   5.768   6.295  12.860 -3.0110 -2.3039 -1.4162
 2083TIP3    H227741   5.693   6.340  12.736  1.4095  1.5126 -2.8562
 2084TIP3   OH227742   4.308   1.753   1.205  0.3262  0.3756  0.5651
 2084TIP3    H127743   4.250   1.826   1.225 -1.1565 -0.2495 -1.2877
 2084TIP3    H227744   4.275   1.681   1.259 -0.9749 -0.1200 -0.8611
 2085TIP3   OH227745   5.315   2.649   4.499  0.2729 -0.4697  0.4612
 2085TIP3    H127746   5.301   2.556   4.476  0.2905 -0.4962  0.5587
 2085TIP3    H227747   5.252   2.666   4.569  0.2550 -0.4013  0.4289
 2086TIP3   OH227748   3.390   6.326   2.106  0.8873  0.4001 -0.3384
 2086TIP3    H127749   3.433   6.412   2.111  1.9890 -0.0947 -1.1100
 2086TIP3    H227750   3.454   6.270   2.062  0.3529 -0.9373  0.5824
 2087TIP3   OH227751   2.074   5.368   0.890 -0.1296 -0.3187 -0.2765
 2087TIP3    H127752   2.107   5.414   0.813  2.1722  2.9672  2.5287
 2087TIP3    H227753   1.980   5.382   0.888  0.2568  2.5168 -0.8312
 2088TIP3   OH227754   2.182   1.961   1.806 -0.3855  0.4385 -0.3241
 2088TIP3    H127755   2.267   2.001   1.824 -1.4857  2.9810 -0.6171
 2088TIP3    H227756   2.141   1.951   1.892  0.3751 -1.2588 -0.1325
 2089TIP3   OH227757   5.931   1.663  16.897 -0.3508 -0.5207  0.3289
 2089TIP3    H127758   5.900   1.603  16.830 -0.6453  1.3086 -1.2112
 2089TIP3    H227759   5.854   1.679  16.953 -0.6982 -0.3508 -0.1937
 2090TIP3   OH227760   0.833   4.496   3.180 -0.1464  0.0954  0.1127
 2090TIP3    H127761   0.896   4.541   3.124 -0.2419 -1.2710 -1.1204
 2090TIP3    H227762   0.748   4.514   3.139 -0.3722  0.3430  0.6861
 2091TIP3   OH227763   2.568   3.295   3.449 -0.0972 -0.0354  0.1113
 2091TIP3    H127764   2.577   3.264   3.359  1.7707  0.2641  0.1736
 2091TIP3    H227765   2.482   3.265   3.476 -0.7484  0.0221 -1.8397
 2092TIP3   OH227766   4.336   4.941  15.117 -0.1140 -1.0595 -0.4020
 2092TIP3    H127767   4.330   4.849  15.092 -1.4425 -1.5739  1.6588
 2092TIP3    H227768   4.307   4.943  15.209  1.2992  1.1969  0.0460
 2093TIP3   OH227769   3.325   2.419  12.264 -0.4268  0.3895  0.6012
 2093TIP3    H127770   3.308   2.422  12.170 -0.9327  1.3199  0.7138
 2093TIP3    H227771   3.421   2.419  12.271 -0.3864 -0.6922  0.0666
 2094TIP3   OH227772   0.155   1.179  14.111  0.3206  0.3642 -0.4267
 2094TIP3    H127773   0.137   1.101  14.059 -0.6652 -0.6120  1.3255
 2094TIP3    H227774   0.250   1.177  14.126  0.1920 -0.9368  0.2527
 2095TIP3   OH227775   1.970   0.126  15.502 -0.2665  0.1798  0.4371
 2095TIP3    H127776   2.014   0.154  15.421 -0.7724 -0.8884 -0.2110
 2095TIP3    H227777   1.918   0.050  15.476 -0.6070 -0.0343  1.7268
 2096TIP3   OH227778   6.766   4.318   1.351  0.0114 -0.4598  0.0244
 2096TIP3    H127779   6.793   4.347   1.265 -1.4483 -0.9425 -0.6209
 2096TIP3    H227780   6.847   4.306   1.400  0.7843  1.2884 -0.7880
 2097TIP3   OH227781   6.235   2.837  16.156 -0.6547  0.3263 -0.3124
 2097TIP3    H127782   6.219   2.921  16.199 -0.8398  0.6569 -1.0171
 2097TIP3    H227783   6.321   2.810  16.188 -0.8152  0.5466  0.3019
 2098TIP3   OH227784   6.314   0.225   3.305 -0.2385 -0.5879  0.8294
 2098TIP3    H127785   6.285   0.240   3.394 -0.9037 -1.9686  0.8660
 2098TIP3    H227786   6.271   0.143   3.279 -0.3088 -0.0476 -0.8589
 2099TIP3   OH227787   6.520   5.699   1.869  0.1113 -0.5112 -0.0478
 2099TIP3    H127788   6.462   5.623   1.876  0.7269 -0.9608  0.2469
 2099TIP3    H227789   6.503   5.734   1.782 -0.9962 -0.3133  0.2325
 2100TIP3   OH227790   1.988   3.009  12.617 -0.1798  0.2210 -0.1952
 2100TIP3    H127791   1.978   3.049  12.530  0.4181 -0.0215 -0.3793
 2100TIP3    H227792   1.917   3.047  12.669 -2.0016 -1.4181 -1.4369
 2101TIP3   OH227793   1.323   1.196  15.742 -0.3680 -0.0205  0.0364
 2101TIP3    H127794   1.333   1.281  15.784 -0.9698 -0.1179  0.3872
 2101TIP3    H227795   1.280   1.141  15.808  2.9783 -1.5645  0.9932
 2102TIP3   OH227796   2.417   3.486   4.037  0.2850 -0.0517 -0.2732
 2102TIP3    H127797   2.391   3.571   4.073 -0.7869 -0.2444 -0.5664
 2102TIP3    H227798   2.461   3.441   4.109 -1.4270 -0.2577  0.6615
 2103TIP3   OH227799   1.629   6.553  13.208  0.3168  0.4851 -0.0308
 2103TIP3    H127800   1.624   6.605  13.288 -2.0094 -1.3076  1.0522
 2103TIP3    H227801   1.687   6.480  13.230 -0.7020 -0.2673  0.2103
 2104TIP3   OH227802   6.135   0.336  13.041 -0.1696 -0.0164  0.0232
 2104TIP3    H127803   6.151   0.337  12.947  1.8403  0.0769  0.3573
 2104TIP3    H227804   6.102   0.424  13.061 -4.1191 -1.1476 -1.1474
 2105TIP3   OH227805   1.847   4.614   1.754 -0.1259 -0.0161 -0.3052
 2105TIP3    H127806   1.801   4.531   1.767 -1.9001  0.7576 -1.4147
 2105TIP3    H227807   1.927   4.590   1.707 -0.5860 -1.1210 -0.5477
 2106TIP3   OH227808   2.504   2.360   2.183 -0.2313  0.1110 -0.5497
 2106TIP3    H127809   2.594   2.393   2.181 -0.2140  0.0997 -0.0712
 2106TIP3    H227810   2.471   2.385   2.270 -0.2206 -1.1042 -0.1816
 2107TIP3   OH227811   1.124   0.702   0.998  0.2102 -0.1439 -0.1230
 2107TIP3    H127812   1.075   0.737   1.072  1.4036  0.4937  0.3919
 2107TIP3    H227813   1.154   0.616   1.027 -1.0078 -0.7418 -0.6228
 2108TIP3   OH227814   0.754   5.989  10.910  0.2845  0.2984 -0.2956
 2108TIP3    H127815   0.694   6.013  10.839 -1.4349 -2.3472  0.2261
 2108TIP3    H227816   0.830   6.045  10.896 -0.7801  1.1193 -3.1369
 2109TIP3   OH227817   2.514   2.049   0.700 -0.4861  0.6066 -0.7281
 2109TIP3    H127818   2.521   2.141   0.722 -0.7455  0.2996  0.7069
 2109TIP3    H227819   2.456   2.047   0.624 -0.8037  1.5861 -0.5165
 2110TIP3   OH227820   1.630   1.971   3.327  0.7197 -0.5971  0.6004
 2110TIP3    H127821   1.687   1.961   3.251  0.5157 -0.1486  0.3810
 2110TIP3    H227822   1.543   1.945   3.296  0.6686 -0.5776  0.7258
 2111TIP3   OH227823   1.670   1.654   2.546  0.0668  0.4017  0.7194
 2111TIP3    H127824   1.687   1.741   2.510  0.3776 -1.0405 -2.8324
 2111TIP3    H227825   1.756   1.619   2.566  0.1874 -0.2046 -0.7514
 2112TIP3   OH227826   4.668   0.435   5.216 -0.0755  0.7802 -0.2949
 2112TIP3    H127827   4.750   0.428   5.167  1.2612  0.6318  1.8920
 2112TIP3    H227828   4.656   0.530   5.228 -0.1130  0.7929 -0.4293
 2113TIP3   OH227829   5.624   5.159  15.888 -0.1965  0.2344 -0.0129
 2113TIP3    H127830   5.608   5.121  15.975 -0.6385  1.5294  0.4826
 2113TIP3    H227831   5.708   5.122  15.861 -0.4253 -0.7727  0.6414
 2114TIP3   OH227832   4.559   4.865   4.114  0.4178  0.5338  0.6078
 2114TIP3    H127833   4.498   4.794   4.132 -0.9696  1.8169  1.0789
 2114TIP3    H227834   4.643   4.833   4.147 -0.0020 -1.2074  0.0487
 2115TIP3   OH227835   6.000   3.311  11.495  0.2440  0.2483 -0.2317
 2115TIP3    H127836   5.935   3.345  11.434  1.8507  0.0076 -2.1351
 2115TIP3    H227837   6.069   3.275  11.439  1.8026  0.0919  1.7281
 2116TIP3   OH227838   0.067   3.468  11.815 -0.1285  0.3019  0.7584
 2116TIP3    H127839  -0.026   3.479  11.793 -0.1640 -1.2551  0.0625
 2116TIP3    H227840   0.090   3.382  11.781  1.2333  0.0960  2.1086
 2117TIP3   OH227841   6.171   3.448   2.533  0.0555 -0.2177 -0.1548
 2117TIP3    H127842   6.106   3.390   2.492 -0.3295 -0.6882  1.1010
 2117TIP3    H227843   6.142   3.536   2.510 -1.7003 -0.3726  1.3395
 2118TIP3   OH227844   6.086   0.684  15.353  0.0956  0.7589 -0.6519
 2118TIP3    H127845   6.065   0.592  15.338 -0.0452  0.6058  0.4332
 2118TIP3    H227846   6.143   0.708  15.280  0.5065 -0.3095 -0.6933
 2119TIP3   OH227847   1.005   4.032  12.308  0.5777 -0.1309  0.4998
 2119TIP3    H127848   0.914   4.005  12.321  0.4364 -0.9012 -1.7299
 2119TIP3    H227849   1.043   4.035  12.396 -1.4779 -0.2436  1.4095
 2120TIP3   OH227850   3.942   3.492  16.682 -0.6592 -0.2048 -0.3266
 2120TIP3    H127851   3.916   3.574  16.640 -0.0068 -0.0822 -0.4965
 2120TIP3    H227852   4.004   3.518  16.751  0.1057 -0.6035 -0.8492
 2121TIP3   OH227853   3.070   5.410  17.029  0.2881 -0.5760 -0.3979
 2121TIP3    H127854   2.984   5.426  17.067  1.0790  0.4212  0.9976
 2121TIP3    H227855   3.071   5.316  17.011 -0.7569 -0.7440  0.3938
 2122TIP3   OH227856   2.232   4.123  11.281  0.2339  0.3139 -0.1251
 2122TIP3    H127857   2.285   4.044  11.278  1.0353  0.8751 -1.4973
 2122TIP3    H227858   2.142   4.092  11.289  0.4473 -0.7876 -1.7307
 2123TIP3   OH227859   5.389   6.651   3.532 -0.6775  0.1026 -0.7434
 2123TIP3    H127860   5.446   6.666   3.608 -1.4659 -1.5181  0.2111
 2123TIP3    H227861   5.339   6.732   3.523  1.0100  1.1474 -0.9416
 2124TIP3   OH227862   5.756   1.738  10.568  0.2866 -0.0308  0.1821
 2124TIP3    H127863   5.693   1.786  10.513  1.6863  1.0740 -0.5007
 2124TIP3    H227864   5.841   1.772  10.541  1.1034 -0.6573  1.9359
 2125TIP3   OH227865   5.861   0.942  17.183  0.2852  0.6847 -0.0255
 2125TIP3    H127866   5.879   0.889  17.105 -0.1645  1.5479 -0.7296
 2125TIP3    H227867   5.938   0.932  17.237  0.8170  0.4571 -0.8143
 2126TIP3   OH227868   2.501   0.272   0.768  0.0759  0.3889  0.6619
 2126TIP3    H127869   2.546   0.276   0.852 -0.1577  0.8089  0.7677
 2126TIP3    H227870   2.415   0.237   0.788  0.2451 -0.1234  0.5036
 2127TIP3   OH227871   2.529   2.329   3.420 -0.3361 -0.2660 -0.0977
 2127TIP3    H127872   2.491   2.290   3.342 -0.0951 -1.4534  0.3574
 2127TIP3    H227873   2.588   2.261   3.454 -0.2751  0.3181  0.9809
 2128TIP3   OH227874   0.788   1.782   5.144  0.5687 -0.0640  0.5072
 2128TIP3    H127875   0.780   1.687   5.149  0.2981 -0.1499 -1.4688
 2128TIP3    H227876   0.715   1.815   5.196 -0.0714 -0.9264  0.1534
 2129TIP3   OH227877   3.634   4.148   2.553 -0.5863 -0.5346 -0.5130
 2129TIP3    H127878   3.698   4.206   2.594 -1.1874 -1.1590  1.3743
 2129TIP3    H227879   3.646   4.162   2.459  0.2155  1.6172 -0.1288
 2130TIP3   OH227880   3.875   6.077   2.898  0.2071 -0.0443  0.1763
 2130TIP3    H127881   3.843   6.127   2.823 -0.1826  0.4142  0.6419
 2130TIP3    H227882   3.964   6.050   2.873  0.1102  0.1798 -0.4136
 2131TIP3   OH227883   4.329   1.084   1.621  0.2731 -0.1035 -0.2830
 2131TIP3    H127884   4.362   1.144   1.689 -0.7020 -1.7013  1.6263
 2131TIP3    H227885   4.369   1.000   1.643 -0.0041 -0.6183 -1.7548
 2132TIP3   OH227886   3.027   6.334  13.387  0.3768 -0.7522  0.0909
 2132TIP3    H127887   2.974   6.315  13.465  0.7658  0.4031  0.6570
 2132TIP3    H227888   2.979   6.294  13.315 -0.1307 -1.6054  0.8902
 2133TIP3   OH227889   2.540   5.336  15.264 -0.4426  0.6472  0.5323
 2133TIP3    H127890   2.444   5.341  15.257 -0.3377  1.0417 -0.5975
 2133TIP3    H227891   2.555   5.270  15.332 -1.4891 -1.5462 -1.2911
 2134TIP3   OH227892   0.230   2.676   4.201 -0.1464  0.3394  0.4408
 2134TIP3    H127893   0.292   2.715   4.139  0.2743  0.3539  0.8683
 2134TIP3    H227894   0.208   2.591   4.162 -0.4781  0.6698 -0.1095
 2135TIP3   OH227895   3.952   3.557   1.935  0.3145 -0.2604 -0.3257
 2135TIP3    H127896   3.904   3.640   1.927 -0.2402 -0.7278 -2.0885
 2135TIP3    H227897   4.035   3.573   1.891  0.5963 -0.3493  0.1741
 2136TIP3   OH227898   6.768   2.652   0.560  0.1661 -0.3662 -0.4760
 2136TIP3    H127899   6.776   2.666   0.466  0.9714  0.8187 -0.2406
 2136TIP3    H227900   6.853   2.616   0.586 -0.4233 -1.7072 -0.3729
 2137TIP3   OH227901   4.869   2.440   5.080 -0.1472 -0.2054 -0.4998
 2137TIP3    H127902   4.846   2.437   4.987  0.1602 -1.5256 -0.5479
 2137TIP3    H227903   4.802   2.385   5.122 -1.0708  1.4386  0.2467
 2138TIP3   OH227904   4.611   2.634  14.125 -0.1208  0.6029  0.3350
 2138TIP3    H127905   4.685   2.574  14.128  0.5199  1.4376  2.4124
 2138TIP3    H227906   4.587   2.648  14.217 -2.9751  0.2221 -0.2997
 2139TIP3   OH227907   5.849   1.735   5.501  0.1258  0.3937  0.1319
 2139TIP3    H127908   5.935   1.693   5.507 -0.1505 -0.2402 -0.3244
 2139TIP3    H227909   5.838   1.753   5.408  0.1096  1.2181  0.2866
 2140TIP3   OH227910   0.944   3.945  12.877  0.4273  0.2192 -0.4263
 2140TIP3    H127911   0.972   3.859  12.846  0.5016  0.1843 -0.2623
 2140TIP3    H227912   1.024   3.985  12.912  0.4085  0.3851 -0.5703
 2141TIP3   OH227913   3.427   4.566   3.827  0.0373 -0.5149  0.3438
 2141TIP3    H127914   3.454   4.542   3.916  0.9128  0.7442  0.4305
 2141TIP3    H227915   3.479   4.508   3.771  1.9265  0.9272  0.5612
 2142TIP3   OH227916   5.319   0.417   2.427  0.2110 -0.2409 -0.1958
 2142TIP3    H127917   5.263   0.357   2.377  0.6403 -1.7378  1.0744
 2142TIP3    H227918   5.404   0.373   2.428  0.2044 -0.2226  1.8366
 2143TIP3   OH227919   4.621   0.697   5.226  0.0468  0.3720  0.0029
 2143TIP3    H127920   4.594   0.725   5.313 -1.4735 -1.2452  0.0839
 2143TIP3    H227921   4.558   0.738   5.167  0.4902  0.6834 -0.2605
 2144TIP3   OH227922   6.200   6.467  16.981 -0.1644  0.0627  0.0855
 2144TIP3    H127923   6.286   6.506  16.994  0.3284 -1.4909  1.6264
 2144TIP3    H227924   6.192   6.457  16.886  0.6522  1.7248 -0.1752
 2145TIP3   OH227925   5.942   2.758   6.040 -0.0737  0.0733  0.0357
 2145TIP3    H127926   5.937   2.666   6.066  3.1314 -0.1839 -0.0689
 2145TIP3    H227927   6.020   2.764   5.985  0.3848  3.0614  0.9004
 2146TIP3   OH227928   5.619   5.964   5.645  0.0206 -0.2407 -0.3592
 2146TIP3    H127929   5.680   5.972   5.718 -0.0704 -0.7379 -0.2311
 2146TIP3    H227930   5.532   5.964   5.686 -0.0623  0.2424 -0.5243
 2147TIP3   OH227931   5.821   1.173  16.681  0.0539 -0.4084 -0.1461
 2147TIP3    H127932   5.851   1.134  16.599  1.4047 -0.6909  0.4493
 2147TIP3    H227933   5.901   1.210  16.720 -0.6417  0.0618  0.8448
 2148TIP3   OH227934   5.034   3.815   2.183  0.2087 -0.3114 -0.3574
 2148TIP3    H127935   4.999   3.815   2.093  0.0644 -1.0256 -0.3021
 2148TIP3    H227936   4.965   3.857   2.235 -0.1695 -0.8696 -0.4034
 2149TIP3   OH227937   5.904   1.236   2.783  0.0072 -0.0836 -0.0487
 2149TIP3    H127938   5.996   1.263   2.787  0.0736 -0.2136 -0.5875
 2149TIP3    H227939   5.864   1.296   2.720 -0.0055 -0.7736 -0.7097
 2150TIP3   OH227940   1.242   1.419  12.019  0.1998  0.3141 -0.1633
 2150TIP3    H127941   1.206   1.453  12.101  0.4712 -0.0496  0.1049
 2150TIP3    H227942   1.320   1.369  12.045 -0.5662 -1.0850 -0.4725
 2151TIP3   OH227943   3.169   4.521  11.636  0.1063  0.1568 -0.0475
 2151TIP3    H127944   3.148   4.559  11.550 -3.3217 -3.5065 -0.9395
 2151TIP3    H227945   3.228   4.449  11.616 -0.5801 -0.6083  0.6966
 2152TIP3   OH227946   6.804   6.633   5.799  0.0503  0.4485 -0.2926
 2152TIP3    H127947   6.821   6.547   5.760  0.5943  0.1940  0.4912
 2152TIP3    H227948   6.890   6.663   5.828 -0.1928  1.1068 -0.2476
 2153TIP3   OH227949   1.694   4.782  15.327 -0.0794  0.1638 -0.1348
 2153TIP3    H127950   1.659   4.849  15.385 -0.1868  0.3426 -0.4031
 2153TIP3    H227951   1.788   4.797  15.326 -0.1892  0.8568 -0.8635
 2154TIP3   OH227952   2.740   6.716  12.725  0.5161  0.7967  0.2743
 2154TIP3    H127953   2.806   6.669  12.673  1.3816  2.6536 -0.3399
 2154TIP3    H227954   2.750   6.681  12.813 -1.1679 -2.6239 -0.7694
 2155TIP3   OH227955   5.986   1.319  15.110  0.0710  0.0737 -0.3273
 2155TIP3    H127956   5.985   1.224  15.121  0.7249 -0.1318 -2.0327
 2155TIP3    H227957   5.986   1.353  15.200  2.3171 -1.5488  0.3221
 2156TIP3   OH227958   2.734   5.358   4.236  0.3787 -0.3950 -0.0157
 2156TIP3    H127959   2.769   5.269   4.236 -0.6839 -0.8255  0.1524
 2156TIP3    H227960   2.811   5.414   4.229  1.0816 -1.3181  0.1649
 2157TIP3   OH227961   5.561   3.688   3.531  0.1074 -0.1342 -0.1429
 2157TIP3    H127962   5.648   3.689   3.491 -0.4116 -0.6707 -1.2904
 2157TIP3    H227963   5.559   3.768   3.585  1.5427 -0.4513  0.4165
 2158TIP3   OH227964   2.641   2.481  12.338  0.9399  0.3249 -0.2458
 2158TIP3    H127965   2.688   2.427  12.275  2.4025  1.9867 -0.6153
 2158TIP3    H227966   2.706   2.546  12.367 -0.5797  1.4556  0.6861
 2159TIP3   OH227967   3.109   3.331  15.611  0.1122  0.5400  0.8816
 2159TIP3    H127968   3.196   3.368  15.628  0.4268  1.1730 -1.7846
 2159TIP3    H227969   3.066   3.331  15.696  1.9200  2.3853  1.8559
 2160TIP3   OH227970   4.608   1.248  11.689 -0.1506  0.1347  0.6867
 2160TIP3    H127971   4.694   1.282  11.664  0.7079 -2.3913  0.0696
 2160TIP3    H227972   4.621   1.214  11.777 -0.7538  0.4637  0.9083
 2161TIP3   OH227973   2.766   4.622  10.690  0.3596  0.3994 -0.1801
 2161TIP3    H127974   2.699   4.554  10.699 -0.7737  1.2630 -1.9324
 2161TIP3    H227975   2.836   4.593  10.749 -0.5133 -1.7627 -0.1320
 2162TIP3   OH227976   3.320   5.559  11.195 -0.3953 -0.3584  0.5536
 2162TIP3    H127977   3.404   5.524  11.225  0.4195  0.8931 -0.2252
 2162TIP3    H227978   3.339   5.599  11.111 -1.7009  0.2633  0.5398
 2163TIP3   OH227979   4.038   3.813   5.577  0.1382  0.3016 -0.5854
 2163TIP3    H127980   4.024   3.762   5.497 -1.0258 -0.3941  0.0483
 2163TIP3    H227981   4.065   3.748   5.642  0.6967  0.8060 -0.3032
 2164TIP3   OH227982   6.663   2.986  10.883 -0.0148 -0.6557 -0.3078
 2164TIP3    H127983   6.580   2.941  10.871 -1.4886  2.2917 -1.5761
 2164TIP3    H227984   6.659   3.020  10.972 -0.2972 -0.2734 -0.4664
 2165TIP3   OH227985   1.134   4.737  14.910  0.1509  0.3641  0.1656
 2165TIP3    H127986   1.120   4.644  14.893 -3.8308  1.0285 -0.7798
 2165TIP3    H227987   1.058   4.763  14.962  0.1123  3.5079 -1.3594
 2166TIP3   OH227988   0.482   2.004  15.196 -0.5740 -0.0017 -0.0767
 2166TIP3    H127989   0.550   2.040  15.140 -0.8331 -0.5859 -0.7822
 2166TIP3    H227990   0.426   1.953  15.136 -2.9654  2.3308  0.0761
 2167TIP3   OH227991   1.285   1.358  13.403 -0.6648 -0.2671  0.2966
 2167TIP3    H127992   1.218   1.315  13.349  0.8289 -0.3006 -1.5851
 2167TIP3    H227993   1.367   1.320  13.374  0.2778  0.5528  1.8413
 2168TIP3   OH227994   3.535   2.211   3.326 -0.3901  0.4343 -0.7865
 2168TIP3    H127995   3.526   2.128   3.374  0.7204  0.4319 -0.5662
 2168TIP3    H227996   3.545   2.184   3.235 -0.2145  0.3282 -0.7375
 2169TIP3   OH227997   5.587   4.410   0.765  0.0707 -0.4925  0.3307
 2169TIP3    H127998   5.543   4.325   0.760  1.2192 -1.2775  2.7481
 2169TIP3    H227999   5.678   4.391   0.742  0.3583  0.0472  1.0048
 2170TIP3   OH228000   3.880   1.790   5.216  0.1623  0.1503 -0.5009
 2170TIP3    H128001   3.917   1.708   5.247  0.7387  0.0025 -1.5734
 2170TIP3    H228002   3.854   1.772   5.126 -1.9154  0.4461  0.0125
 2171TIP3   OH228003   1.763   2.975   1.072  0.7710 -0.0412 -0.0071
 2171TIP3    H128004   1.673   2.942   1.076  1.1517 -0.9681  0.8522
 2171TIP3    H228005   1.755   3.060   1.029 -0.7182  0.6042  1.5085
 2172TIP3   OH228006   0.615   4.706  11.633 -0.5458  0.0161  0.0001
 2172TIP3    H128007   0.542   4.768  11.632  1.1249  2.0260 -0.1587
 2172TIP3    H228008   0.653   4.711  11.545 -0.1453 -0.9251  0.1136
 2173TIP3   OH228009   3.906   2.181   6.416  0.1149  0.3934  0.3710
 2173TIP3    H128010   3.816   2.149   6.411  0.5733 -0.9621  0.6862
 2173TIP3    H228011   3.899   2.274   6.394 -1.1829 -0.0023 -0.9808
 2174TIP3   OH228012   4.876   5.493  13.647 -0.2772  0.4260 -0.0941
 2174TIP3    H128013   4.859   5.568  13.704  0.7379  0.0345  0.7418
 2174TIP3    H228014   4.942   5.525  13.585  0.4217  0.1278  0.4867
 2175TIP3   OH228015   4.291   6.005  13.699  0.1777 -0.4721 -0.0185
 2175TIP3    H128016   4.294   6.098  13.721  0.8901 -0.2565 -0.9982
 2175TIP3    H228017   4.199   5.981  13.705  0.1717 -0.0851  1.7882
 2176TIP3   OH228018   3.174   6.239  10.849  0.0204 -0.5337  0.5481
 2176TIP3    H128019   3.211   6.169  10.902  3.4057  0.0325 -0.9267
 2176TIP3    H228020   3.246   6.301  10.837 -1.9739  1.6273 -0.8385
 2177TIP3   OH228021   5.304   3.941   4.958 -0.5201  0.3640 -0.3255
 2177TIP3    H128022   5.285   3.847   4.954  0.9179  0.0214  0.5679
 2177TIP3    H228023   5.332   3.964   4.870  1.5810 -0.6010  0.0629
 2178TIP3   OH228024   6.535   3.336   5.478  0.0706 -0.3347  0.0687
 2178TIP3    H128025   6.464   3.346   5.415  0.7721 -1.3434 -0.9146
 2178TIP3    H228026   6.594   3.272   5.437  1.3592  0.2229  1.0146
 2179TIP3   OH228027   1.230   3.878   0.455  0.1270  0.1829 -0.0433
 2179TIP3    H128028   1.291   3.814   0.417  0.3108  1.0650 -1.2706
 2179TIP3    H228029   1.152   3.827   0.477 -0.2573 -0.2533 -2.2749
 2180TIP3   OH228030   3.554   2.533  13.226  0.0809  0.0169 -0.3130
 2180TIP3    H128031   3.492   2.587  13.176 -1.0109 -1.1606 -0.2531
 2180TIP3    H228032   3.612   2.496  13.160  0.8245  1.2242 -0.3598
 2181TIP3   OH228033   0.908   2.659   4.814 -0.0707 -0.0413 -0.0163
 2181TIP3    H128034   0.869   2.746   4.821  0.6105  0.3076 -0.5036
 2181TIP3    H228035   0.964   2.651   4.891 -1.0739 -0.5302  0.6669
 2182TIP3   OH228036   5.741   5.418  11.784 -0.1707  0.1554  0.2494
 2182TIP3    H128037   5.701   5.504  11.802  0.1217  0.1759  0.8192
 2182TIP3    H228038   5.667   5.357  11.785 -0.5210  0.5268 -1.1374
 2183TIP3   OH228039   3.257   5.278  12.856 -0.3208 -0.3254 -0.2470
 2183TIP3    H128040   3.257   5.194  12.809 -1.8384 -0.3023 -0.3287
 2183TIP3    H228041   3.256   5.254  12.948  0.1207 -0.3875 -0.2582
 2184TIP3   OH228042   2.960   1.368   4.458  0.2497 -0.2106  0.2460
 2184TIP3    H128043   3.023   1.382   4.388  0.1201  0.3230  0.2316
 2184TIP3    H228044   2.987   1.286   4.499  0.8114 -0.1045  0.0907
 2185TIP3   OH228045   5.638   3.032  15.438  0.6163  0.3708  0.6818
 2185TIP3    H128046   5.673   3.019  15.526  2.3739 -3.3458 -0.4393
 2185TIP3    H228047   5.559   2.977  15.436  1.7324 -1.2488 -0.6380
 2186TIP3   OH228048   4.911   6.377   1.969  0.1388 -0.0940 -0.3123
 2186TIP3    H128049   4.969   6.331   2.029  0.2384 -3.3042 -2.7466
 2186TIP3    H228050   4.969   6.428   1.912  0.3204 -0.3679 -0.3696
 2187TIP3   OH228051   1.547   5.041  14.449 -0.1658  0.1288  0.1745
 2187TIP3    H128052   1.527   4.952  14.478  0.2562  0.3920  1.3125
 2187TIP3    H228053   1.554   5.034  14.354 -0.7959 -0.9201  0.1946
 2188TIP3   OH228054   2.673   3.071   0.922  0.2895  0.2534  0.5137
 2188TIP3    H128055   2.649   3.147   0.975  2.2495  0.1426  1.6044
 2188TIP3    H228056   2.626   2.998   0.962 -0.7293  0.7007  0.1415
 2189TIP3   OH228057   3.923   1.677  12.270  0.2114  0.5697  0.1404
 2189TIP3    H128058   3.980   1.626  12.326 -0.5065  0.0559  0.4089
 2189TIP3    H228059   3.845   1.623  12.258 -0.0975  1.1318 -0.4668
 2190TIP3   OH228060   2.063   5.363  13.318  0.1243  0.4021 -0.1391
 2190TIP3    H128061   2.006   5.298  13.276  0.4470  0.1034 -0.1186
 2190TIP3    H228062   2.065   5.337  13.410  0.8693 -0.0160 -0.2668
 2191TIP3   OH228063   5.938   5.908   1.422 -0.5509 -0.1024 -0.2568
 2191TIP3    H128064   5.850   5.923   1.455 -1.2891  0.7440 -2.5151
 2191TIP3    H228065   5.935   5.819   1.386  0.7413 -1.6997  3.3844
 2192TIP3   OH228066   2.065   0.050  13.644  0.0218  0.2846  0.4206
 2192TIP3    H128067   2.101   0.118  13.701 -0.0950 -0.2328  1.1032
 2192TIP3    H228068   2.078  -0.032  13.692 -1.0565 -0.0337  0.1820
 2193TIP3   OH228069   4.686   1.671   2.172 -0.2726  0.4060 -0.3006
 2193TIP3    H128070   4.591   1.685   2.175  0.0096  2.5881 -0.7584
 2193TIP3    H228071   4.696   1.577   2.180 -2.4513  0.2133  0.5557
 2194TIP3   OH228072   6.813   2.630   2.458  0.3654  0.3844 -0.3292
 2194TIP3    H128073   6.844   2.711   2.417 -3.0255  1.6446 -0.5392
 2194TIP3    H228074   6.748   2.659   2.522 -1.2744 -2.1756 -0.7615
 2195TIP3   OH228075   2.264   0.548  14.983  0.0142 -0.1190  0.3137
 2195TIP3    H128076   2.252   0.552  14.888  0.7104  1.3627  0.2614
 2195TIP3    H228077   2.340   0.605  14.999 -0.6608  0.3734  1.8454
 2196TIP3   OH228078   4.023   5.903   1.187  0.2429  0.4358  0.6171
 2196TIP3    H128079   3.937   5.896   1.147  0.0653 -0.6088  1.1620
 2196TIP3    H228080   4.031   5.995   1.213 -0.6402  0.5611  0.4296
 2197TIP3   OH228081   6.094   1.349   5.301  0.6551 -0.5170  0.3405
 2197TIP3    H128082   6.118   1.437   5.272  0.2505 -1.4066 -2.9284
 2197TIP3    H228083   6.002   1.356   5.327  0.5802 -0.0200 -0.0580
 2198TIP3   OH228084   4.176   5.518   3.748  0.2151  0.5201 -0.5703
 2198TIP3    H128085   4.210   5.535   3.660 -1.9086  0.0041 -1.5021
 2198TIP3    H228086   4.186   5.424   3.760 -3.9819 -0.2330 -2.2292
 2199TIP3   OH228087   4.068   0.815  14.055 -0.1060 -0.3573  0.3273
 2199TIP3    H128088   4.041   0.785  13.968 -0.1547 -1.2194  0.6315
 2199TIP3    H228089   3.987   0.821  14.105 -0.2838  1.7781 -0.1554
 2200TIP3   OH228090   2.393   5.460   3.829 -0.1375  0.1204  0.0794
 2200TIP3    H128091   2.456   5.398   3.794  1.0008  1.5730 -0.4779
 2200TIP3    H228092   2.363   5.510   3.753 -0.6873  0.5687  0.5840
 2201TIP3   OH228093   2.183   3.248   2.933 -0.0070  0.2527 -0.2649
 2201TIP3    H128094   2.151   3.222   2.846  0.7018 -1.3133 -0.0804
 2201TIP3    H228095   2.272   3.279   2.917 -0.4066  1.3767 -0.3052
 2202TIP3   OH228096   6.220   4.903   0.353 -1.2955  0.2624  0.0121
 2202TIP3    H128097   6.239   4.954   0.274 -1.1041  0.4477  0.1799
 2202TIP3    H228098   6.134   4.864   0.335 -0.1410 -1.7625 -1.3578
 2203TIP3   OH228099   1.148   4.104   4.737 -0.0832  1.1024  0.5262
 2203TIP3    H128100   1.077   4.090   4.673  1.6172 -0.3834 -1.1149
 2203TIP3    H228101   1.143   4.028   4.794  0.4033  0.8223  0.1959
 2204TIP3   OH228102   4.457   3.304   4.628 -0.1313 -0.1139  0.3172
 2204TIP3    H128103   4.372   3.275   4.661 -1.2053 -1.1764 -3.1624
 2204TIP3    H228104   4.502   3.223   4.603  1.4632  0.5168  1.0958
 2205TIP3   OH228105   6.040   0.970  10.797 -0.0079 -0.0947  0.2344
 2205TIP3    H128106   5.971   1.033  10.780 -1.2900 -1.3811  0.6342
 2205TIP3    H228107   6.000   0.885  10.780  1.9193 -0.7785 -1.0671
 2206TIP3   OH228108   5.163   5.662  11.538 -0.0171 -0.1231  0.4586
 2206TIP3    H128109   5.252   5.656  11.501 -0.1100 -1.8434  0.4445
 2206TIP3    H228110   5.108   5.687  11.464  0.5413  1.6057  0.6104
 2207TIP3   OH228111   1.781   2.910  13.508 -0.4536  0.0708  0.4402
 2207TIP3    H128112   1.710   2.888  13.448 -0.2508 -0.6596  0.4691
 2207TIP3    H228113   1.805   3.000  13.485 -0.8496  0.0362 -0.0994
 2208TIP3   OH228114   4.895   0.789   3.030 -0.9225 -0.3254 -0.2472
 2208TIP3    H128115   4.871   0.735   3.106  2.2141 -0.2591  0.8629
 2208TIP3    H228116   4.939   0.865   3.068 -0.2975  0.2507 -2.0728
 2209TIP3   OH228117   6.615   3.784   2.674  0.1189 -0.0646  0.0614
 2209TIP3    H128118   6.567   3.830   2.744  0.3725 -0.1457  0.2870
 2209TIP3    H228119   6.575   3.697   2.671 -1.4500  0.6731 -1.4438
 2210TIP3   OH228120   2.547   2.423  10.971 -0.3006 -0.1690 -0.3648
 2210TIP3    H128121   2.510   2.475  10.899 -0.5960  1.4504  0.9346
 2210TIP3    H228122   2.637   2.405  10.943 -0.1651  1.1334 -0.7962
 2211TIP3   OH228123   5.965   4.344  12.809  0.0469 -0.3140  0.3143
 2211TIP3    H128124   5.971   4.263  12.759 -1.3650 -1.7861  2.4098
 2211TIP3    H228125   5.914   4.403  12.754  0.0229 -1.2768 -0.7151
 2212TIP3   OH228126   4.976   0.198  15.096  0.0974 -0.2142  0.0411
 2212TIP3    H128127   4.972   0.282  15.051  1.0160 -0.1601  0.0525
 2212TIP3    H228128   4.935   0.214  15.181  1.6140  0.6039  0.6239
 2213TIP3   OH228129   2.978   4.579   5.323  0.1934  0.9087 -0.0769
 2213TIP3    H128130   3.043   4.645   5.300  1.6290 -0.4124  0.1520
 2213TIP3    H228131   2.997   4.557   5.414 -1.6950  1.7748  0.5585
 2214TIP3   OH228132   1.412   6.474   3.930  0.2123  0.3034 -0.1932
 2214TIP3    H128133   1.324   6.503   3.955 -0.4117 -0.3343 -1.5921
 2214TIP3    H228134   1.397   6.397   3.875  1.5910  0.9013 -1.4392
 2215TIP3   OH228135   4.523   0.066  10.616  0.7210  0.1777 -0.3057
 2215TIP3    H128136   4.604   0.046  10.663 -0.2846 -0.8395  1.0807
 2215TIP3    H228137   4.525   0.161  10.603  2.1630  0.1479 -0.3442
 2216TIP3   OH228138   1.729   0.878  11.060 -0.5539 -0.2677  1.0084
 2216TIP3    H128139   1.702   0.855  11.149 -0.8924 -0.0117  0.9750
 2216TIP3    H228140   1.647   0.886  11.011 -0.3615 -0.5835  0.6285
 2217TIP3   OH228141   2.439   1.331   1.378 -0.5752 -0.1180 -0.2090
 2217TIP3    H128142   2.492   1.275   1.434  0.6412  0.6392 -0.5707
 2217TIP3    H228143   2.381   1.378   1.438 -0.8596 -0.9796  0.1883
 2218TIP3   OH228144   2.468   1.448   6.298  0.4541 -0.0303  0.1139
 2218TIP3    H128145   2.525   1.434   6.374  0.0219  1.3406  0.7051
 2218TIP3    H228146   2.482   1.371   6.243  1.3804 -0.6528  1.2011
 2219TIP3   OH228147   0.084   0.626   0.639  0.5373 -0.2061  0.2559
 2219TIP3    H128148   0.027   0.549   0.641  1.6481 -1.0730 -0.5682
 2219TIP3    H228149   0.105   0.638   0.547 -1.7702  2.7371  0.0328
 2220TIP3   OH228150   0.447   6.730   3.242  0.6537  0.4952 -0.5373
 2220TIP3    H128151   0.509   6.792   3.281  2.1365 -0.3428 -1.5198
 2220TIP3    H228152   0.439   6.660   3.307  1.4039  0.1798 -0.7900
 2221TIP3   OH228153   4.417   6.380  15.865  0.2074 -0.0883  0.2059
 2221TIP3    H128154   4.453   6.341  15.944  0.5321 -1.8681 -0.7909
 2221TIP3    H228155   4.484   6.366  15.798  0.2374  2.0079 -0.2383
 2222TIP3   OH228156   2.009   5.780  16.991  0.2346 -0.3259  0.0574
 2222TIP3    H128157   2.074   5.745  16.930 -0.5122 -1.0790 -0.3209
 2222TIP3    H228158   1.987   5.866  16.956  1.3784  0.1325  0.4574
 2223TIP3   OH228159   6.450   3.209   4.199 -0.1869  0.4929  0.2590
 2223TIP3    H128160   6.491   3.215   4.285 -0.5756 -1.0522  0.5585
 2223TIP3    H228161   6.482   3.126   4.163 -2.6864 -0.5289  0.3244
 2224TIP3   OH228162   1.267   5.751   2.442  0.1282  0.3539 -0.6263
 2224TIP3    H128163   1.309   5.797   2.515  0.2483 -1.4995  0.5139
 2224TIP3    H228164   1.234   5.671   2.482 -1.8012  0.3677 -2.1574
 2225TIP3   OH228165   2.765   2.437   2.195  0.2288  0.3479 -0.3144
 2225TIP3    H128166   2.834   2.502   2.181  0.4126  0.1547 -0.2991
 2225TIP3    H228167   2.808   2.353   2.182  0.3534  0.1723  1.2114
 2226TIP3   OH228168   5.005   5.709  12.795 -0.7360  0.0381  0.0089
 2226TIP3    H128169   4.953   5.636  12.828  2.4711 -2.0323  0.7047
 2226TIP3    H228170   5.041   5.677  12.712  1.8450  0.2070  1.0137
 2227TIP3   OH228171   5.718   5.119   3.047  0.6719 -0.0503  0.2485
 2227TIP3    H128172   5.754   5.198   3.087  0.1629 -0.2554  1.1014
 2227TIP3    H228173   5.789   5.086   2.992  2.0541 -0.8574  2.4843
 2228TIP3   OH228174   1.207   3.473  13.525 -0.2438  0.0924  0.2431
 2228TIP3    H128175   1.278   3.515  13.574  0.2781  0.8504 -1.1302
 2228TIP3    H228176   1.167   3.413  13.587  0.8235  0.5642  1.4014
 2229TIP3   OH228177   0.437   1.405   3.406  0.0866  0.6218 -0.2997
 2229TIP3    H128178   0.469   1.323   3.442 -1.1516 -1.9554 -4.6225
 2229TIP3    H228179   0.514   1.448   3.371  0.2750 -0.5056 -1.3010
 2230TIP3   OH228180   3.275   0.897   2.208 -0.5091 -0.4291  1.0486
 2230TIP3    H128181   3.303   0.806   2.204  0.6332 -0.0924  1.1222
 2230TIP3    H228182   3.215   0.907   2.134  4.0804  0.2878 -2.7842
 2231TIP3   OH228183   2.022   2.432  11.721 -0.3171  0.0107  0.0564
 2231TIP3    H128184   2.114   2.456  11.729 -0.1969 -0.0536 -0.9869
 2231TIP3    H228185   1.998   2.394  11.805  0.1979  1.4361  0.8567
 2232TIP3   OH228186   1.220   2.631   3.913  0.2507 -0.1572 -0.4694
 2232TIP3    H128187   1.167   2.698   3.871 -0.1138 -0.1285  0.0275
 2232TIP3    H228188   1.157   2.575   3.958  0.5583 -0.7685 -0.7829
 2233TIP3   OH228189   4.799   1.660   0.840 -0.0966 -0.3083 -0.0648
 2233TIP3    H128190   4.757   1.623   0.917 -0.0450 -0.2487 -0.0083
 2233TIP3    H228191   4.742   1.733   0.814  0.5444  0.4625  0.6541
 2234TIP3   OH228192   2.847   0.311  10.641 -0.3029 -0.2777 -0.1007
 2234TIP3    H128193   2.853   0.221  10.609 -0.4130 -0.6834  0.9930
 2234TIP3    H228194   2.870   0.365  10.566  1.0497 -1.2654 -0.4012
 2235TIP3   OH228195   3.185   4.590  13.019  0.3902 -0.1605 -0.4293
 2235TIP3    H128196   3.127   4.513  13.024  0.9670 -0.6952 -1.8644
 2235TIP3    H228197   3.158   4.635  12.940 -0.1295  1.2986  0.5567
 2236TIP3   OH228198   2.007   0.285  12.758 -0.4351 -0.4919  1.0085
 2236TIP3    H128199   1.951   0.329  12.822  0.1078 -1.7026  2.3378
 2236TIP3    H228200   1.988   0.330  12.675 -1.7406  0.5596  1.8500
 2237TIP3   OH228201   6.371   0.728   1.189  0.3495  0.6202  0.0992
 2237TIP3    H128202   6.323   0.768   1.117 -0.4515  0.4742  0.5465
 2237TIP3    H228203   6.364   0.792   1.260 -1.1582 -0.4225  0.9010
 2238TIP3   OH228204   4.274   3.635   1.388 -0.5934 -0.4579  0.3718
 2238TIP3    H128205   4.311   3.696   1.453  0.1909  0.4302 -0.8875
 2238TIP3    H228206   4.179   3.646   1.396 -0.5300 -0.7132  1.6955
 2239TIP3   OH228207   4.889   5.752  14.327  0.6895 -0.0347  0.2775
 2239TIP3    H128208   4.854   5.693  14.394  3.1473  0.6813  2.2711
 2239TIP3    H228209   4.916   5.830  14.375 -0.5431  1.8824 -2.0334
 2240TIP3   OH228210   1.640   4.490  16.571 -0.1955 -0.5792  0.4648
 2240TIP3    H128211   1.561   4.449  16.535 -0.0252  0.5458 -1.2390
 2240TIP3    H228212   1.706   4.476  16.503 -0.2187  2.7588 -0.2991
 2241TIP3   OH228213   1.449   3.407   3.282  0.2446 -0.9480 -0.1020
 2241TIP3    H128214   1.503   3.483   3.304 -1.2399  0.1937 -0.2955
 2241TIP3    H228215   1.414   3.377   3.366  0.8106 -1.4096 -0.0284
 2242TIP3   OH228216   5.692   2.342  11.081 -0.3201  0.1700 -0.2255
 2242TIP3    H128217   5.609   2.351  11.035 -0.5175 -1.0045 -0.1045
 2242TIP3    H228218   5.678   2.270  11.143  0.8406 -0.1591 -0.3287
 2243TIP3   OH228219   5.416   5.688  12.931 -0.7424  0.2791 -0.2522
 2243TIP3    H128220   5.390   5.724  12.847  0.1867  1.1527 -0.1789
 2243TIP3    H228221   5.511   5.675  12.923 -0.4758  1.3869  1.0306
 2244TIP3   OH228222   2.315   4.715   4.556  0.2688 -0.0415 -0.1545
 2244TIP3    H128223   2.399   4.681   4.525  0.3353  1.0936 -1.2376
 2244TIP3    H228224   2.254   4.642   4.546  0.8922 -0.5379 -0.3454
 2245TIP3   OH228225   2.555   0.049   3.647  0.4487 -0.6097 -0.2250
 2245TIP3    H128226   2.562   0.134   3.690 -1.0634 -1.3367  1.5161
 2245TIP3    H228227   2.575  -0.014   3.715  0.2398 -1.7083 -1.1709
 2246TIP3   OH228228   1.663   5.550  15.281 -0.2959  0.4470 -0.4421
 2246TIP3    H128229   1.586   5.606  15.290 -0.0866  0.4338  1.6286
 2246TIP3    H228230   1.633   5.477  15.227 -1.5526  0.7583 -0.1905
 2247TIP3   OH228231   3.913   4.998   4.396  0.3467 -0.1358  0.4331
 2247TIP3    H128232   3.857   5.054   4.450  0.7249  0.2778  0.3921
 2247TIP3    H228233   3.882   4.909   4.415  0.2352  0.0345  1.0520
 2248TIP3   OH228234   5.165   6.712   4.268  0.3495 -0.0092  0.4209
 2248TIP3    H128235   5.081   6.711   4.222  1.0326 -0.0033 -0.8451
 2248TIP3    H228236   5.180   6.804   4.289  1.0232  0.2653 -1.2046
 2249TIP3   OH228237   3.772   3.938   0.884  0.0424  0.2402  0.4411
 2249TIP3    H128238   3.689   3.925   0.838  0.0897 -0.5404  0.5796
 2249TIP3    H228239   3.811   3.851   0.889  0.4903  0.4759  1.1080
 2250TIP3   OH228240   2.464   6.540   4.226 -0.7062 -0.2061 -0.5783
 2250TIP3    H128241   2.372   6.514   4.231 -0.1943 -2.2418 -1.1838
 2250TIP3    H228242   2.463   6.635   4.233 -2.8760 -0.2015 -0.7377
 2251TIP3   OH228243   6.240   6.743   1.982 -0.3622 -0.5902 -0.2065
 2251TIP3    H128244   6.310   6.687   2.014  0.4273  0.1364 -0.6371
 2251TIP3    H228245   6.256   6.828   2.022 -1.2404 -0.5237  0.0192
 2252TIP3   OH228246   2.201   5.265   3.799  0.1759 -0.3681  0.1678
 2252TIP3    H128247   2.267   5.322   3.838  1.1155 -1.8941  0.8642
 2252TIP3    H228248   2.229   5.255   3.708 -0.6480  1.2148 -0.2700
 2253TIP3   OH228249   0.239   3.931  15.299 -0.3972  0.1298  0.2951
 2253TIP3    H128250   0.253   3.951  15.207 -3.3730 -0.8985 -0.4466
 2253TIP3    H228251   0.303   3.862  15.319 -1.3418 -1.3789 -1.6970
 2254TIP3   OH228252   2.245   4.781   0.760  0.3738  0.1515 -0.1415
 2254TIP3    H128253   2.172   4.768   0.821  1.3891  0.5945  1.1872
 2254TIP3    H228254   2.239   4.873   0.736  0.4204  0.1589 -0.1231
 2255TIP3   OH228255   2.463   0.355   1.306  0.4602  0.1721 -0.2872
 2255TIP3    H128256   2.421   0.275   1.274  1.6932 -0.1681 -1.0799
 2255TIP3    H228257   2.401   0.390   1.370 -1.0022 -0.3542 -1.3694
 2256TIP3   OH228258   4.972   5.174   6.145 -0.0030  0.4120  0.1375
 2256TIP3    H128259   4.912   5.231   6.194 -1.0859 -0.9643  0.4517
 2256TIP3    H228260   5.057   5.217   6.150 -0.8812  2.1997  0.0395
 2257TIP3   OH228261   4.309   0.042  16.234 -0.3092 -0.1078  0.0175
 2257TIP3    H128262   4.292  -0.003  16.317 -0.0403  1.0138  0.6927
 2257TIP3    H228263   4.381  -0.007  16.195 -1.3614 -1.4943 -0.2323
 2258TIP3   OH228264   5.188   1.459  13.241 -0.2775 -0.2053 -0.3360
 2258TIP3    H128265   5.146   1.374  13.247 -1.8030  0.5028 -0.8131
 2258TIP3    H228266   5.268   1.450  13.292 -0.7835 -1.7037  0.2045
 2259TIP3   OH228267   5.350   6.001  14.667 -0.2321 -0.6565  0.3086
 2259TIP3    H128268   5.411   5.983  14.738 -0.3058 -1.8432  0.0939
 2259TIP3    H228269   5.383   5.948  14.594 -0.8690 -0.4315 -0.1441
 2260TIP3   OH228270   4.240   5.846   4.758  0.3228 -0.1137  0.2708
 2260TIP3    H128271   4.208   5.791   4.830 -1.8232  0.0358 -0.5204
 2260TIP3    H228272   4.265   5.785   4.690  0.4404 -0.2020  0.3943
 2261TIP3   OH228273   1.491   0.893   0.469  0.2690 -0.0772  0.1753
 2261TIP3    H128274   1.586   0.887   0.479  0.2002 -1.2855  0.1342
 2261TIP3    H228275   1.468   0.974   0.515  0.9263 -1.3845  2.9127
 2262TIP3   OH228276   0.130   2.597  14.455  0.2089 -0.1615  0.5501
 2262TIP3    H128277   0.152   2.515  14.411  2.1454 -0.3759  1.8223
 2262TIP3    H228278   0.107   2.657  14.385 -1.1643 -1.7657 -0.4065
 2263TIP3   OH228279   4.027   5.189   0.322  0.2984  0.1649 -0.5480
 2263TIP3    H128280   3.951   5.247   0.309 -0.4437 -0.2045  1.9684
 2263TIP3    H228281   3.990   5.101   0.327  1.0430 -0.1544 -0.5869
 2264TIP3   OH228282   2.082   3.012  16.254  0.1224 -0.4242 -0.2378
 2264TIP3    H128283   2.093   3.072  16.180  0.4443 -0.2468 -0.0487
 2264TIP3    H228284   2.150   2.946  16.241  0.6209 -0.0199  0.2584
 2265TIP3   OH228285   1.164   3.561   4.872 -0.4128 -0.3956  0.3757
 2265TIP3    H128286   1.088   3.505   4.879 -0.6982  0.0633  1.0813
 2265TIP3    H228287   1.224   3.529   4.940  0.3629 -1.2544 -0.6883
 2266TIP3   OH228288   1.017   3.993  16.515 -0.2011 -0.0546 -0.1152
 2266TIP3    H128289   1.057   3.928  16.573 -0.6232 -1.4524 -1.3659
 2266TIP3    H228290   0.923   3.978  16.523 -0.2655 -0.2331 -1.1106
 2267TIP3   OH228291   4.652   4.099   2.481  0.3076 -0.4472  0.0608
 2267TIP3    H128292   4.671   4.193   2.483 -0.7823 -0.1811 -1.5139
 2267TIP3    H228293   4.657   4.071   2.573  0.0361  1.2576  0.6033
 2268TIP3   OH228294   3.263   5.009   4.484  0.5961  0.0578  0.1903
 2268TIP3    H128295   3.178   5.017   4.442  0.2043  1.9584  1.2619
 2268TIP3    H228296   3.302   4.930   4.446 -1.0218 -0.0092 -1.3880
 2269TIP3   OH228297   1.533   5.192   3.412  0.4728 -0.2752 -0.4040
 2269TIP3    H128298   1.568   5.278   3.392 -0.3327 -0.4533 -2.7631
 2269TIP3    H228299   1.530   5.188   3.507  0.7627  2.1960 -0.2722
 2270TIP3   OH228300   4.526   5.721   4.707  0.0688 -0.3911 -0.0390
 2270TIP3    H128301   4.552   5.648   4.650 -0.2212  0.8206 -1.7500
 2270TIP3    H228302   4.608   5.755   4.743  0.3454 -0.4858 -0.5768
 2271TIP3   OH228303   3.010   6.553   0.446  0.0384 -0.1754  0.0904
 2271TIP3    H128304   3.008   6.604   0.366 -0.9501  0.3074  0.4153
 2271TIP3    H228305   3.012   6.462   0.416 -0.9465 -0.0179 -0.4877
 2272TIP3   OH228306   3.296   2.285   4.064 -0.1508 -0.2050  0.0462
 2272TIP3    H128307   3.278   2.330   3.982  0.8290 -0.9967 -0.6181
 2272TIP3    H228308   3.351   2.346   4.114 -0.3832  0.1003 -0.0764
 2273TIP3   OH228309   6.598   2.307  10.756  0.6752  0.8411  0.6642
 2273TIP3    H128310   6.621   2.324  10.665  1.8182 -0.5334  0.6769
 2273TIP3    H228311   6.592   2.212  10.762 -0.1398  0.9532  1.8546
 2274TIP3   OH228312   3.702   6.442  14.507 -0.3444  0.2845  0.1406
 2274TIP3    H128313   3.625   6.396  14.473  0.7108 -1.9661  0.6982
 2274TIP3    H228314   3.705   6.523  14.457 -1.7272 -0.6650 -1.5453
 2275TIP3   OH228315   4.993   5.470   5.286 -0.9778 -0.0429 -0.5897
 2275TIP3    H128316   4.974   5.524   5.363  0.4940 -0.8567  0.3605
 2275TIP3    H228317   4.975   5.380   5.315  3.0839 -0.7474  0.0052
 2276TIP3   OH228318   0.641   2.230   2.088 -0.0418 -0.3202 -0.2775
 2276TIP3    H128319   0.621   2.196   2.175  1.1268 -0.7845 -0.1808
 2276TIP3    H228320   0.728   2.269   2.097 -0.8958  1.7254 -0.6608
 2277TIP3   OH228321   6.217   0.717  17.144 -0.0975 -0.1000  0.1374
 2277TIP3    H128322   6.227   0.752  17.055 -2.6431  0.5448  0.0499
 2277TIP3    H228323   6.290   0.755  17.193  0.5363  0.6664 -1.3465
 2278TIP3   OH228324   1.423   0.941  13.464 -0.4147 -0.2105 -0.3940
 2278TIP3    H128325   1.360   0.915  13.398 -1.1151 -2.2251  1.0246
 2278TIP3    H228326   1.399   0.891  13.542  1.2485  1.0514  0.9792
 2279TIP3   OH228327   4.911   0.883   3.974 -0.5683 -0.5083 -0.0012
 2279TIP3    H128328   4.946   0.819   4.035  0.1288  0.0945  0.2353
 2279TIP3    H228329   4.921   0.967   4.019  1.3133  0.1167 -1.5281
 2280TIP3   OH228330   6.575   6.309  12.370  0.0043  0.5669  0.2169
 2280TIP3    H128331   6.552   6.235  12.427 -0.1063  1.6321  1.6019
 2280TIP3    H228332   6.669   6.322  12.385  0.2394  0.0760 -0.7979
 2281TIP3   OH228333   4.692   6.355   4.395 -0.0096  0.1989  0.1120
 2281TIP3    H128334   4.672   6.368   4.303 -1.9014  1.4757  0.6577
 2281TIP3    H228335   4.615   6.389   4.441  0.0459 -2.2040  2.0909
 2282TIP3   OH228336   6.240   3.957   1.448 -0.5291 -0.0281 -0.1959
 2282TIP3    H128337   6.279   4.039   1.479 -1.3538 -0.2579  1.5162
 2282TIP3    H228338   6.174   3.984   1.385  0.1838  0.5370 -0.7101
 2283TIP3   OH228339   4.953   2.734  11.478  0.3365 -0.2236 -0.2786
 2283TIP3    H128340   4.876   2.789  11.465 -1.0339 -2.2384 -0.9057
 2283TIP3    H228341   5.006   2.749  11.400  0.8892  1.6282  0.4338
 2284TIP3   OH228342   1.374   0.970   3.363 -0.1732 -0.1331  0.1219
 2284TIP3    H128343   1.440   0.921   3.314 -1.5224 -3.1342  1.1261
 2284TIP3    H228344   1.377   1.058   3.327  0.4108 -1.6667 -3.8317
 2285TIP3   OH228345   2.229   0.405  12.903  0.3403  0.5266 -0.0599
 2285TIP3    H128346   2.176   0.353  12.842  1.2562  0.2682 -0.6541
 2285TIP3    H228347   2.262   0.478  12.850  0.4476  0.7658  0.3381
 2286TIP3   OH228348   0.004   0.575  11.629  0.1843 -0.0637 -0.0285
 2286TIP3    H128349  -0.006   0.518  11.554  0.0752  0.5248 -0.4661
 2286TIP3    H228350  -0.029   0.525  11.703  0.0078 -0.5267 -0.4232
 2287TIP3   OH228351   3.445   2.466  15.220  0.8804  0.1195 -0.2674
 2287TIP3    H128352   3.489   2.384  15.241  1.7050  0.5105 -0.4233
 2287TIP3    H228353   3.441   2.513  15.304  1.8043  0.5687 -0.4682
 2288TIP3   OH228354   3.865   3.631  11.690 -0.0487  0.0394  0.6299
 2288TIP3    H128355   3.785   3.679  11.666  0.0980  0.0526  0.1678
 2288TIP3    H228356   3.919   3.696  11.736  1.1922  1.0180 -2.1060
 2289TIP3   OH228357   1.226   6.802  17.014  0.2356 -0.0845 -0.0193
 2289TIP3    H128358   1.300   6.825  17.070 -1.1215  0.4629  1.6223
 2289TIP3    H228359   1.245   6.714  16.983  1.2584 -0.2092  0.9301
 2290TIP3   OH228360   2.977   0.154   3.981  0.1034  0.2233  0.2361
 2290TIP3    H128361   3.034   0.084   4.013 -0.5698  0.5347  2.1640
 2290TIP3    H228362   2.900   0.150   4.037 -0.5217  1.6704 -0.4919
 2291TIP3   OH228363   5.257   4.317   1.766  0.2997 -0.1105  0.3016
 2291TIP3    H128364   5.166   4.345   1.776  0.8833  1.6862  0.7590
 2291TIP3    H228365   5.270   4.251   1.835 -0.5219 -0.0728  0.4978
 2292TIP3   OH228366   2.043   5.417   6.128  0.8152  0.4275  0.2379
 2292TIP3    H128367   2.111   5.482   6.111  1.1018  0.5014  1.5873
 2292TIP3    H228368   2.043   5.407   6.223  0.6518 -1.4366  0.0606
 2293TIP3   OH228369   0.186   6.054  10.984 -0.3097  0.3878  0.2702
 2293TIP3    H128370   0.152   6.096  10.905 -2.9542 -0.3551  0.9289
 2293TIP3    H228371   0.262   6.004  10.955 -0.3498  1.3258 -1.5104
 2294TIP3   OH228372   4.419   1.365  15.554 -0.1537  0.9162 -0.0829
 2294TIP3    H128373   4.370   1.352  15.635  0.0845  0.9577  0.0702
 2294TIP3    H228374   4.407   1.458  15.533 -1.1024  0.6606 -0.6849
 2295TIP3   OH228375   4.273   2.807   6.680  0.5274 -0.5433 -0.2993
 2295TIP3    H128376   4.254   2.889   6.636 -0.5949 -0.1008  0.9859
 2295TIP3    H228377   4.368   2.806   6.690  0.4666  1.0594  0.5350
 2296TIP3   OH228378   5.827   1.891  13.111  0.0049 -0.0966  0.3360
 2296TIP3    H128379   5.919   1.914  13.100 -0.1664  0.4027 -0.0805
 2296TIP3    H228380   5.822   1.852  13.198  0.5348  0.2974  0.5449
 2297TIP3   OH228381   4.530   2.687  15.835  0.3956  0.2257 -0.5289
 2297TIP3    H128382   4.484   2.739  15.768 -1.2538 -1.0803 -0.4366
 2297TIP3    H228383   4.556   2.751  15.901 -1.8974  0.9094 -0.2602
 2298TIP3   OH228384   5.047   5.846  11.126 -0.3224 -0.0693  0.0418
 2298TIP3    H128385   4.957   5.850  11.157 -0.7340  1.3219 -1.3151
 2298TIP3    H228386   5.084   5.770  11.171 -0.8214  1.9757  4.1339
 2299TIP3   OH228387   1.981   2.240  14.612 -0.1301  0.3420  0.2511
 2299TIP3    H128388   2.023   2.160  14.645  2.1746  2.0020  1.4864
 2299TIP3    H228389   2.030   2.260  14.532 -2.4985 -0.9504 -1.5773
 2300TIP3   OH228390   2.125   4.224  13.737 -0.4090  0.3897 -0.2098
 2300TIP3    H128391   2.123   4.178  13.821 -0.6227 -1.1406 -1.0355
 2300TIP3    H228392   2.193   4.290  13.747  0.6918 -0.8503  0.6140
 2301TIP3   OH228393   3.194   1.610   0.205 -1.0321  0.0697 -0.2110
 2301TIP3    H128394   3.182   1.703   0.187  2.0355  0.4534 -0.6885
 2301TIP3    H228395   3.114   1.568   0.175 -1.2646  2.2314 -2.7559
 2302TIP3   OH228396   2.037   3.001   0.738  0.1245  0.5835 -0.0059
 2302TIP3    H128397   2.076   3.089   0.733  0.6431  0.3134 -0.8838
 2302TIP3    H228398   1.955   3.014   0.785  0.5399  1.4232  0.4987
 2303TIP3   OH228399   6.014   6.507  14.319  0.7930 -0.0735 -0.0269
 2303TIP3    H128400   6.104   6.530  14.297  0.9985 -0.0004  0.8665
 2303TIP3    H228401   5.962   6.543  14.247  1.3939  0.6229 -0.1242
 2304TIP3   OH228402   2.098   3.130   2.697  0.0036  0.0874 -1.0676
 2304TIP3    H128403   2.115   3.036   2.698  1.5010  0.3226 -2.1232
 2304TIP3    H228404   2.005   3.138   2.718  0.4629 -1.4637  1.8299
 2305TIP3   OH228405   0.045   0.619  14.098 -0.0901  0.0797 -0.3477
 2305TIP3    H128406  -0.035   0.672  14.104  0.0563  0.2817 -0.1497
 2305TIP3    H228407   0.111   0.671  14.145  0.1615 -0.0760 -0.5315
 2306TIP3   OH228408   4.650   6.078  16.059  0.0180 -1.0333  0.1230
 2306TIP3    H128409   4.687   6.153  16.105 -2.5860 -0.6149  1.6069
 2306TIP3    H228410   4.596   6.116  15.990  0.7927 -1.6197 -0.8294
 2307TIP3   OH228411   3.634   0.496  13.786  0.1184 -0.1443 -0.5044
 2307TIP3    H128412   3.648   0.546  13.866 -2.1014 -0.9685  0.4284
 2307TIP3    H228413   3.663   0.555  13.716 -2.5654  2.5673  0.5586
 2308TIP3   OH228414   5.448   4.188   0.693  0.4761 -0.2338 -0.1883
 2308TIP3    H128415   5.443   4.103   0.649  1.3467 -0.5277  0.2642
 2308TIP3    H228416   5.406   4.173   0.778  1.1679 -0.3760  0.1316
 2309TIP3   OH228417   2.702   2.352  15.193  0.2364 -0.0567 -0.3766
 2309TIP3    H128418   2.764   2.376  15.261 -1.1543 -0.1217  0.9577
 2309TIP3    H228419   2.656   2.434  15.173 -0.7517 -0.4412  0.2474
 2310TIP3   OH228420   1.601   5.455  13.193 -0.9229  0.1229 -0.0849
 2310TIP3    H128421   1.518   5.431  13.234 -0.0892 -0.5439  1.2534
 2310TIP3    H228422   1.665   5.450  13.264 -0.2301  3.5850 -0.3621
 2311TIP3   OH228423   5.299   3.560  11.553 -0.3541  0.6000 -0.1163
 2311TIP3    H128424   5.227   3.621  11.537 -0.2610  0.9000  0.5691
 2311TIP3    H228425   5.283   3.487  11.493 -1.2475  0.6467  0.0568
 2312TIP3   OH228426   0.299   3.129   3.154  0.1760 -0.1305 -0.0628
 2312TIP3    H128427   0.244   3.104   3.080  1.4767 -2.2548 -0.3572
 2312TIP3    H228428   0.272   3.218   3.176 -1.6880 -0.2687 -1.7298
 2313TIP3   OH228429   5.840   3.314  11.264 -0.2057  0.0578 -0.5688
 2313TIP3    H128430   5.815   3.369  11.190  0.4330  1.4648  0.2539
 2313TIP3    H228431   5.772   3.329  11.329  0.6252  0.8014  0.1237
 2314TIP3   OH228432   0.335   6.087  11.937 -0.0885  0.4608 -0.0758
 2314TIP3    H128433   0.282   6.008  11.927  0.9269 -0.0232 -1.7611
 2314TIP3    H228434   0.348   6.118  11.848  1.9523  0.9065  0.3625
 2315TIP3   OH228435   0.020   2.996   6.250 -0.1192 -0.5308  0.1930
 2315TIP3    H128436  -0.066   3.029   6.223 -0.4886 -0.8686  0.9454
 2315TIP3    H228437   0.004   2.905   6.276  0.4509 -0.5741  0.3969
 2316TIP3   OH228438   3.457   1.129  15.308 -0.2038 -0.2995 -0.0076
 2316TIP3    H128439   3.387   1.092  15.362 -1.2693  2.2853  0.4622
 2316TIP3    H228440   3.450   1.081  15.225  1.9561 -4.8489  2.2726
 2317TIP3   OH228441   2.142   1.443   3.691  0.1595  0.0687  0.2142
 2317TIP3    H128442   2.163   1.427   3.783 -0.0808 -1.5583  0.0046
 2317TIP3    H228443   2.226   1.440   3.645  0.2315  0.4602  0.3192
 2318TIP3   OH228444   4.142   0.981  14.249  0.2436  0.4510 -0.0458
 2318TIP3    H128445   4.077   1.036  14.205  1.6693  0.1792 -2.5877
 2318TIP3    H228446   4.147   0.903  14.194  2.4137  0.3151  0.3316
 2319TIP3   OH228447   4.747   0.913   1.201 -0.4776 -0.1084  0.0713
 2319TIP3    H128448   4.827   0.861   1.203 -0.6021 -0.3610 -1.0707
 2319TIP3    H228449   4.768   0.992   1.251  0.8964  0.3957 -1.2702
 2320TIP3   OH228450   4.552   0.686   6.005 -0.1638  0.1210 -0.1564
 2320TIP3    H128451   4.603   0.738   6.068 -0.1484  0.5355 -0.5056
 2320TIP3    H228452   4.562   0.734   5.922 -1.6805  0.5754 -0.0785
 2321TIP3   OH228453   6.136   1.543  15.272 -0.0095  0.4603 -0.2744
 2321TIP3    H128454   6.053   1.508  15.304  1.8011 -1.6611  2.4001
 2321TIP3    H228455   6.168   1.476  15.211  0.4494  0.5231 -0.1045
 2322TIP3   OH228456   2.128   0.462   5.916 -0.2418  0.6176 -0.1443
 2322TIP3    H128457   2.034   0.457   5.899 -0.0920 -0.7629 -0.6257
 2322TIP3    H228458   2.141   0.411   5.996  0.3429 -0.7973 -1.1186
 2323TIP3   OH228459   5.345   0.304  14.113  0.0409  0.4314 -0.0342
 2323TIP3    H128460   5.251   0.294  14.094  0.0990 -0.4712  0.1489
 2323TIP3    H228461   5.349   0.312  14.208  0.3924 -2.4312  0.2196
 2324TIP3   OH228462   1.257   2.331   5.863 -0.2415  0.7420 -0.2466
 2324TIP3    H128463   1.195   2.284   5.806 -0.8476 -0.4101  1.3084
 2324TIP3    H228464   1.213   2.333   5.948  1.4604  0.7330  0.6425
 2325TIP3   OH228465   1.664   6.461   3.759 -0.3778 -0.1616 -0.2559
 2325TIP3    H128466   1.692   6.379   3.716 -0.1814 -0.5787  0.6600
 2325TIP3    H228467   1.569   6.457   3.759 -0.4482  0.7835 -2.4621
 2326TIP3   OH228468   5.294   6.430  16.677 -0.0714  0.0299  0.2819
 2326TIP3    H128469   5.340   6.446  16.760  0.3713 -0.4382  0.1308
 2326TIP3    H228470   5.241   6.352  16.694 -0.3897  0.2502  0.2894
 2327TIP3   OH228471   0.715   1.956   3.798 -0.2976 -0.0723 -0.1908
 2327TIP3    H128472   0.699   1.924   3.887 -0.2584 -1.2350 -0.5924
 2327TIP3    H228473   0.810   1.968   3.795 -0.5535  2.6639  0.7982
 2328TIP3   OH228474   1.087   6.087  15.589 -0.6191 -0.5105  0.6169
 2328TIP3    H128475   1.061   6.163  15.642 -0.3701 -0.3944  0.5734
 2328TIP3    H228476   1.169   6.114  15.548  0.2525 -1.3382  1.7625
 2329TIP3   OH228477   3.615   4.145  17.062 -0.4946  0.2871  0.0980
 2329TIP3    H128478   3.531   4.105  17.082 -1.0703  0.8681 -1.1165
 2329TIP3    H228479   3.660   4.079  17.009 -0.3124  0.1109  0.4705
 2330TIP3   OH228480   2.642   2.864   4.805  0.0870 -0.3008 -0.0735
 2330TIP3    H128481   2.577   2.800   4.835 -0.7558  1.1202  1.2349
 2330TIP3    H228482   2.616   2.884   4.715 -1.0379 -0.0779  0.2861
 2331TIP3   OH228483   2.507   0.022  14.352 -0.6087 -0.2483 -0.1292
 2331TIP3    H128484   2.473  -0.004  14.266 -0.0067  0.4280 -0.5759
 2331TIP3    H228485   2.441   0.080  14.389  0.0640  1.1174 -1.0237
 2332TIP3   OH228486   1.924   3.750  12.230  0.0574  0.1053  0.5762
 2332TIP3    H128487   1.903   3.765  12.138  0.4207 -0.2950  0.4264
 2332TIP3    H228488   1.880   3.821  12.277 -1.3917 -0.5578  0.2422
 2333TIP3   OH228489   6.628   0.832   4.134  0.3014 -0.4357  0.4608
 2333TIP3    H128490   6.598   0.923   4.124  1.0037 -0.1460  1.0184
 2333TIP3    H228491   6.645   0.822   4.227  2.5125 -0.4175  0.0809
 2334TIP3   OH228492   6.009   1.712   2.544 -0.0660  0.2381 -0.1535
 2334TIP3    H128493   6.014   1.793   2.494  0.8202 -0.0817 -0.5877
 2334TIP3    H228494   5.992   1.645   2.477 -0.0078 -0.0386  0.1121
 2335TIP3   OH228495   4.718   4.357   3.657  0.0064 -0.2694  0.1188
 2335TIP3    H128496   4.713   4.402   3.573  0.9810 -1.5295 -0.6298
 2335TIP3    H228497   4.696   4.266   3.637  0.2114 -0.5706  1.2255
 2336TIP3   OH228498   4.470   0.858  15.367 -0.4495  0.4494  0.4486
 2336TIP3    H128499   4.497   0.902  15.447 -0.3551  0.4311  0.4278
 2336TIP3    H228500   4.448   0.930  15.307  1.3643  0.4987 -0.1640
 2337TIP3   OH228501   4.849   5.280  11.433 -0.1579 -0.5898 -0.4446
 2337TIP3    H128502   4.831   5.188  11.449 -0.5954 -0.4710 -0.2301
 2337TIP3    H228503   4.799   5.327  11.501 -0.0018 -0.1958 -0.5984
 2338TIP3   OH228504   3.790   3.282  16.981  0.0726 -0.0663  0.0219
 2338TIP3    H128505   3.713   3.239  17.018  0.9249 -0.8373  0.9108
 2338TIP3    H228506   3.763   3.307  16.892 -1.1446 -0.4650  0.2678
 2339TIP3   OH228507   2.212   3.292   3.279 -0.6662 -0.5135  0.2806
 2339TIP3    H128508   2.132   3.260   3.236 -0.6887  0.3863 -0.3578
 2339TIP3    H228509   2.187   3.307   3.370 -1.0092 -1.0094  0.2710
 2340TIP3   OH228510   4.518   4.836   0.360 -0.1180  0.1224 -0.4063
 2340TIP3    H128511   4.550   4.920   0.326  1.8022 -0.5313 -0.2396
 2340TIP3    H228512   4.504   4.851   0.453 -0.7389  0.5287 -0.5590
 2341TIP3   OH228513   5.199   0.331   5.852 -0.1672 -0.0308 -0.3097
 2341TIP3    H128514   5.187   0.391   5.778 -1.4322 -0.9614 -0.8678
 2341TIP3    H228515   5.118   0.337   5.901 -0.0141 -0.7649  0.0231
 2342TIP3   OH228516   3.164   6.022   5.097 -0.1254 -0.1840  0.1305
 2342TIP3    H128517   3.119   6.043   5.179 -1.5520  0.7092 -0.8542
 2342TIP3    H228518   3.230   6.091   5.087  1.4833 -1.4529  1.5350
 2343TIP3   OH228519   3.676   3.414  10.281  0.3071  0.4344 -0.5581
 2343TIP3    H128520   3.711   3.502  10.293  0.1154  0.3626  0.5396
 2343TIP3    H228521   3.609   3.424  10.213  1.8441  0.7165 -2.0814
 2344TIP3   OH228522   5.104   2.560  11.934  0.2331  0.1638 -0.4956
 2344TIP3    H128523   5.175   2.550  11.996  1.4717 -2.4662 -2.2394
 2344TIP3    H228524   5.119   2.646  11.894  1.1424  0.5748  0.7055
 2345TIP3   OH228525   6.310   5.295   6.257  0.1862  0.2519 -0.5652
 2345TIP3    H128526   6.288   5.241   6.333  0.7807  0.4516 -0.2530
 2345TIP3    H228527   6.226   5.314   6.216 -0.0597 -0.6210 -0.4744
 2346TIP3   OH228528   3.783   4.773   5.780  0.2582  0.5210 -1.1816
 2346TIP3    H128529   3.774   4.678   5.776  2.1006  0.3008 -0.6484
 2346TIP3    H228530   3.838   4.795   5.705  0.7191  1.0358 -0.7028
 2347TIP3   OH228531   0.233   5.342   4.811  0.3775  0.5683  0.0780
 2347TIP3    H128532   0.198   5.431   4.803  0.3708  0.4851 -0.8262
 2347TIP3    H228533   0.279   5.342   4.895  0.9663  1.6276 -0.2341
 2348TIP3   OH228534   5.485   3.005   2.982  0.1702  0.0648  0.3155
 2348TIP3    H128535   5.533   2.938   3.032  0.1207 -0.8302 -0.8269
 2348TIP3    H228536   5.552   3.048   2.929  0.2239  1.0332  1.1309
 2349TIP3   OH228537   3.859   4.109  13.740  0.1695 -0.1666 -0.3683
 2349TIP3    H128538   3.782   4.073  13.696  0.7690 -1.1400 -0.6303
 2349TIP3    H228539   3.897   4.036  13.788  0.2690  0.5857  0.7259
 2350TIP3   OH228540   1.143   3.291   3.837  0.5885  0.0944  0.7609
 2350TIP3    H128541   1.134   3.196   3.829 -0.2407  0.2243  0.1352
 2350TIP3    H228542   1.099   3.312   3.920  1.4299 -0.1493  1.2813
 2351TIP3   OH228543   0.474   1.364  15.725 -0.2547  0.0226  0.2128
 2351TIP3    H128544   0.430   1.374  15.809  0.1007 -1.0920  0.5380
 2351TIP3    H228545   0.422   1.299  15.678  1.0704 -1.3599  0.6257
 2352TIP3   OH228546   6.799   3.526  13.414 -0.1428 -0.2770 -0.2319
 2352TIP3    H128547   6.768   3.614  13.436  0.8863 -0.0697  0.4168
 2352TIP3    H228548   6.865   3.541  13.346  0.0894 -0.5509 -0.0614
 2353TIP3   OH228549   4.743   4.556  12.905 -0.4033  0.2620  0.4976
 2353TIP3    H128550   4.663   4.510  12.933 -0.6516  1.1965  1.3336
 2353TIP3    H228551   4.805   4.485  12.886 -0.6381 -0.4440  2.2206
 2354TIP3   OH228552   4.365   0.033  14.012  0.1596  0.0225  0.1407
 2354TIP3    H128553   4.375  -0.041  14.072 -0.3301 -0.0293  0.1594
 2354TIP3    H228554   4.432   0.095  14.040 -0.4654  0.2561  1.1353
 2355TIP3   OH228555   0.323   6.654   2.676 -0.5013 -0.5247 -0.2467
 2355TIP3    H128556   0.338   6.632   2.768 -1.7668  1.7208  0.5429
 2355TIP3    H228557   0.269   6.583   2.643  0.2048 -1.4999  0.6785
 2356TIP3   OH228558   1.400   3.439  14.447 -0.6288 -0.2737 -0.3713
 2356TIP3    H128559   1.405   3.421  14.541 -1.3772 -2.0502 -0.6432
 2356TIP3    H228560   1.482   3.405  14.411  0.3439  1.8039 -0.1716
 2357TIP3   OH228561   5.825   4.844  14.513  0.1760 -0.1820  0.1398
 2357TIP3    H128562   5.910   4.810  14.539 -0.7351 -2.7865 -0.1022
 2357TIP3    H228563   5.766   4.818  14.584 -0.6737  0.4805 -0.3106
 2358TIP3   OH228564   0.269   2.063   1.662 -0.7369  0.0216 -0.2833
 2358TIP3    H128565   0.249   2.150   1.696 -1.6295 -0.2343 -0.1473
 2358TIP3    H228566   0.188   2.013   1.672  0.1735 -1.2573  0.9828
 2359TIP3   OH228567   2.716   4.093   3.022  0.4079 -0.0309  0.0629
 2359TIP3    H128568   2.756   4.177   3.001  0.3643  0.4473  1.8019
 2359TIP3    H228569   2.780   4.028   2.993  0.8110  0.6265 -0.5280
 2360TIP3   OH228570   4.067   6.616   5.729  0.1189 -0.4726  0.0312
 2360TIP3    H128571   4.024   6.539   5.691 -0.2686 -1.6533  2.7524
 2360TIP3    H228572   4.024   6.629   5.814  3.0466  0.1509  1.4934
 2361TIP3   OH228573   3.026   5.206   3.548  0.0362 -0.2049  0.1862
 2361TIP3    H128574   3.039   5.275   3.483  2.1439 -1.4961 -0.8261
 2361TIP3    H228575   3.030   5.125   3.497  0.9063 -1.1971  1.8197
 2362TIP3   OH228576   2.681   3.516   4.947  0.0633 -0.5702 -0.3660
 2362TIP3    H128577   2.736   3.595   4.944 -1.6227  0.7995  2.5200
 2362TIP3    H228578   2.743   3.445   4.961  1.6145  0.1830 -2.9217
 2363TIP3   OH228579   2.454   3.996  16.079  0.0092 -0.2000 -0.7783
 2363TIP3    H128580   2.494   4.069  16.033 -0.9550 -0.3540 -1.8862
 2363TIP3    H228581   2.516   3.974  16.148  0.3770  1.5560 -0.5263
 2364TIP3   OH228582   2.313   2.248  14.694  0.0712  0.2602  0.3762
 2364TIP3    H128583   2.260   2.328  14.693 -0.1736  0.1047  0.6010
 2364TIP3    H228584   2.369   2.258  14.771  0.4696  0.4874  0.0597
 2365TIP3   OH228585   2.644   2.712   5.651 -0.4451 -0.3150  0.0514
 2365TIP3    H128586   2.611   2.625   5.629 -1.0720  0.1025 -0.6468
 2365TIP3    H228587   2.576   2.751   5.706  0.1074 -0.4860  0.8846
 2366TIP3   OH228588   1.930   3.603   3.425 -0.0050 -0.3898  0.0297
 2366TIP3    H128589   1.840   3.601   3.393  0.2088 -0.1017 -0.6149
 2366TIP3    H228590   1.923   3.602   3.520 -0.7065  0.2287 -0.0151
 2367TIP3   OH228591   4.057   6.515  16.483 -0.3100  0.3010 -0.5151
 2367TIP3    H128592   3.968   6.545  16.504  0.2090 -0.5737  3.2952
 2367TIP3    H228593   4.043   6.430  16.441 -1.2969 -0.2502  0.8681
 2368TIP3   OH228594   5.654   1.403  14.373 -0.0642 -0.4099 -0.4890
 2368TIP3    H128595   5.609   1.468  14.320  1.1871 -0.2404 -1.3788
 2368TIP3    H228596   5.723   1.451  14.419 -1.4093 -0.4765  1.6729
 2369TIP3   OH228597   5.492   3.417   1.831  0.1842  0.1895  0.1137
 2369TIP3    H128598   5.411   3.399   1.880 -0.2119 -0.6758 -0.8521
 2369TIP3    H228599   5.561   3.379   1.885 -0.2356 -0.6518  0.0653
 2370TIP3   OH228600   4.506   1.632  16.753 -0.1125 -0.3263 -0.0648
 2370TIP3    H128601   4.530   1.724  16.743  0.3782 -0.6829 -2.4638
 2370TIP3    H228602   4.410   1.631  16.749 -0.3203  0.4372  3.5384
 2371TIP3   OH228603   2.916   2.224   3.108  1.1197 -0.3739  0.2318
 2371TIP3    H128604   2.939   2.301   3.057  0.5755 -2.0549 -2.6785
 2371TIP3    H228605   2.958   2.151   3.061 -1.4516 -2.2611  0.7647
 2372TIP3   OH228606   2.951   6.705  17.096  0.1812  0.3291  0.2616
 2372TIP3    H128607   2.881   6.745  17.044 -0.6789 -0.2173  0.9675
 2372TIP3    H228608   3.028   6.757  17.078 -0.4233  0.9616 -0.5215
 2373TIP3   OH228609   1.725   3.546  15.999 -0.2407  0.4245  0.7524
 2373TIP3    H128610   1.673   3.511  15.927  0.9013 -1.3983  0.7984
 2373TIP3    H228611   1.685   3.509  16.078 -0.5893  1.2454  0.9618
 2374TIP3   OH228612   4.928   0.892   2.500  0.7529  0.1338  0.4596
 2374TIP3    H128613   4.980   0.913   2.578  0.4869 -0.6762  0.8527
 2374TIP3    H228614   4.979   0.929   2.428  1.3120  0.3365  0.9506
 2375TIP3   OH228615   2.308   5.205  11.285 -0.3170 -0.3233  0.3248
 2375TIP3    H128616   2.262   5.246  11.359  0.3836  0.9009  0.0994
 2375TIP3    H228617   2.325   5.115  11.314  0.0239  0.1664  1.6859
 2376TIP3   OH228618   6.338   3.519   0.727  0.1659  0.5385  0.6319
 2376TIP3    H128619   6.327   3.431   0.761 -0.7076  0.9956  1.5799
 2376TIP3    H228620   6.431   3.526   0.707  0.0373 -0.9623 -0.5035
 2377TIP3   OH228621   1.949   4.088   5.454  0.1809 -0.5250 -0.1725
 2377TIP3    H128622   1.989   4.087   5.541 -0.3342 -1.0470  0.0645
 2377TIP3    H228623   1.908   4.174   5.447  1.0744 -0.1024 -0.2949
 2378TIP3   OH228624   2.232   3.338  14.556 -0.0820 -0.5908  0.1996
 2378TIP3    H128625   2.240   3.417  14.609  1.0020  0.0157 -0.8552
 2378TIP3    H228626   2.320   3.321  14.523 -0.8007 -0.7468 -1.7141
 2379TIP3   OH228627   4.002   3.875  15.302  0.4049 -0.2593 -0.3524
 2379TIP3    H128628   4.026   3.966  15.284  0.2103 -0.1692 -0.1600
 2379TIP3    H228629   3.923   3.881  15.356  0.0772 -0.5533 -0.7985
 2380TIP3   OH228630   0.719   0.351   5.309 -0.2427 -0.4978  0.2836
 2380TIP3    H128631   0.777   0.366   5.384  0.3239 -0.7065 -0.1140
 2380TIP3    H228632   0.691   0.438   5.283  0.5850 -0.3359 -0.0708
 2381TIP3   OH228633   4.289   4.794  16.015 -0.3253 -0.5279 -0.2006
 2381TIP3    H128634   4.346   4.802  16.091 -0.5213 -1.3215  0.0320
 2381TIP3    H228635   4.305   4.706  15.981  0.8396  0.3394 -1.9556
 2382TIP3   OH228636   6.396   6.395  15.039  0.5446 -0.3695 -0.1202
 2382TIP3    H128637   6.312   6.370  15.077 -0.3251  0.9255 -1.1405
 2382TIP3    H228638   6.441   6.312  15.024  1.2076 -0.9395  4.2782
 2383TIP3   OH228639   6.522   5.240  12.636  0.1667 -0.0581 -0.3089
 2383TIP3    H128640   6.484   5.164  12.592  1.4761 -1.7236  1.3796
 2383TIP3    H228641   6.617   5.227  12.629  0.4128  2.1104 -1.1700
 2384TIP3   OH228642   3.076   6.344   2.487  0.4302  0.8047 -0.3072
 2384TIP3    H128643   2.986   6.311   2.497  0.0941  1.1535 -2.0251
 2384TIP3    H228644   3.123   6.274   2.443  0.5329  1.3333 -1.0494
 2385TIP3   OH228645   5.858   1.427  14.722 -0.2316  0.0440 -0.3204
 2385TIP3    H128646   5.873   1.497  14.659  0.9300 -0.7970 -0.9800
 2385TIP3    H228647   5.819   1.356  14.671  0.6353 -0.6111 -0.0799
 2386TIP3   OH228648   4.243   1.367   6.307 -0.3171  0.4807  0.9054
 2386TIP3    H128649   4.337   1.358   6.295 -0.3015 -0.4843  1.6568
 2386TIP3    H228650   4.233   1.442   6.366 -0.1415  1.9080 -0.8412
 2387TIP3   OH228651   4.692   3.829   6.054 -0.2192  0.3845 -0.2115
 2387TIP3    H128652   4.764   3.829   6.118 -0.5281  0.0695  0.1359
 2387TIP3    H228653   4.613   3.844   6.106 -0.6254 -1.2675 -0.3368
 2388TIP3   OH228654   4.633   6.143   2.618  0.3485 -0.4911  0.7416
 2388TIP3    H128655   4.555   6.140   2.563  0.5488  2.0756  0.2270
 2388TIP3    H228656   4.603   6.179   2.702  0.5652 -1.6636  1.3288
 2389TIP3   OH228657   3.096   3.770   0.530 -0.1812  0.1784 -0.1672
 2389TIP3    H128658   3.078   3.834   0.461  1.2749  0.9598  0.1493
 2389TIP3    H228659   3.178   3.729   0.503  0.3221  0.3874  1.0070
 2390TIP3   OH228660   4.871   0.611   5.863 -0.2149 -0.2206 -0.0720
 2390TIP3    H128661   4.901   0.666   5.936  0.4622  0.2181 -0.6767
 2390TIP3    H228662   4.951   0.572   5.828 -0.2197  1.6621 -2.2781
 2391TIP3   OH228663   4.132   4.730   3.598  0.1043  0.7528  0.7508
 2391TIP3    H128664   4.122   4.786   3.521  0.4574  0.1998  0.3069
 2391TIP3    H228665   4.055   4.749   3.651 -1.0413 -0.1408 -0.5531
 2392TIP3   OH228666   3.488   2.132   2.822 -0.2053 -0.4944 -0.1467
 2392TIP3    H128667   3.535   2.134   2.905 -0.9635  0.8749  0.2626
 2392TIP3    H228668   3.550   2.167   2.758 -0.8518  1.9971  0.5149
 2393TIP3   OH228669   3.869   3.808   4.286  0.2431  0.3904 -0.3917
 2393TIP3    H128670   3.956   3.776   4.308 -0.9217 -0.9440  2.5892
 2393TIP3    H228671   3.834   3.743   4.225  1.1643  0.7200 -1.2814
 2394TIP3   OH228672   3.352   1.370   5.131  0.7502  0.1621  0.1921
 2394TIP3    H128673   3.422   1.435   5.135  0.9145  0.0338 -0.5283
 2394TIP3    H228674   3.370   1.310   5.204  0.9885  0.5246  0.4312
 2395TIP3   OH228675   1.229   1.853   0.373  0.2265 -0.3687  0.0742
 2395TIP3    H128676   1.261   1.831   0.286  0.7824 -0.5674  0.3211
 2395TIP3    H228677   1.200   1.944   0.366 -0.7153 -0.7172 -0.5766
 2396TIP3   OH228678   2.852   5.742   3.892 -0.3293 -0.0595 -0.4514
 2396TIP3    H128679   2.902   5.702   3.821 -0.0979 -0.4980 -0.0420
 2396TIP3    H228680   2.776   5.685   3.903 -0.8410  0.5170 -0.9659
 2397TIP3   OH228681   2.232   0.873  14.442  0.9608  0.3375  0.9638
 2397TIP3    H128682   2.142   0.843  14.455  0.5735  1.3553  0.6294
 2397TIP3    H228683   2.238   0.955  14.491  0.9969  1.5127 -0.9642
 2398TIP3   OH228684   5.865   0.926   5.551 -0.7123  0.3150  0.6667
 2398TIP3    H128685   5.849   0.861   5.619 -1.8112  0.3418  0.4531
 2398TIP3    H228686   5.833   1.008   5.589  0.6813  0.7404  0.9448
 2399TIP3   OH228687   4.005   4.419  13.560 -0.5947  0.4626  0.3979
 2399TIP3    H128688   3.929   4.368  13.587 -0.1590 -0.6588 -0.4281
 2399TIP3    H228689   4.049   4.442  13.642 -1.4859  0.5779  0.8408
 2400TIP3   OH228690   2.058   4.721  14.423 -0.1195 -0.8814 -0.0508
 2400TIP3    H128691   2.025   4.810  14.412  1.8514 -0.1967 -0.5391
 2400TIP3    H228692   1.979   4.668  14.430 -1.3284  0.9018  0.3231
 2401TIP3   OH228693   6.814   6.208  11.511  0.2417  0.0795  0.0239
 2401TIP3    H128694   6.861   6.230  11.430  0.0927  0.3449  0.0116
 2401TIP3    H228695   6.805   6.291  11.557  1.8670 -0.3357  1.1327
 2402TIP3   OH228696   1.836   4.086  10.664 -0.0597 -0.3099  0.0515
 2402TIP3    H128697   1.775   4.160  10.668  0.7511  0.3409  0.4560
 2402TIP3    H228698   1.829   4.045  10.750  0.8538  0.3944  0.4639
 2403TIP3   OH228699   0.434   5.245  15.992 -0.3740 -0.4145 -0.2208
 2403TIP3    H128700   0.409   5.152  15.987 -1.9169 -0.0970  1.2657
 2403TIP3    H228701   0.530   5.243  16.001 -0.3959 -1.8604 -0.0856
 2404TIP3   OH228702   0.900   5.203  15.707 -0.2667  0.5636 -0.1302
 2404TIP3    H128703   0.879   5.110  15.718 -1.8512  1.1257  1.9573
 2404TIP3    H228704   0.847   5.231  15.632  0.1173 -0.1901 -0.6840
 2405TIP3   OH228705   5.943   2.989  16.513  0.1790 -0.0007 -0.2062
 2405TIP3    H128706   5.883   2.939  16.458 -0.0336 -1.2827  1.1755
 2405TIP3    H228707   5.956   2.935  16.590  2.6307  0.5411 -0.1999
 2406TIP3   OH228708   3.965   4.435  11.745  0.1514 -0.0482 -0.1699
 2406TIP3    H128709   3.883   4.412  11.789 -0.2911  0.2876 -0.8079
 2406TIP3    H228710   4.013   4.353  11.739 -1.2738 -0.7832 -2.1711
 2407TIP3   OH228711   4.148   1.632   1.472 -0.6917  0.4207 -0.1713
 2407TIP3    H128712   4.202   1.711   1.474 -1.3352  0.8544  0.5297
 2407TIP3    H228713   4.063   1.661   1.505 -0.5096 -0.8648  1.4843
 2408TIP3   OH228714   6.009   0.784   5.164 -0.1969 -0.0377 -0.0361
 2408TIP3    H128715   5.988   0.700   5.205 -0.7218  0.3860  0.5679
 2408TIP3    H228716   6.083   0.765   5.106 -0.1098 -0.8518  0.3420
 2409TIP3   OH228717   3.727   4.129   2.277  0.1950 -0.4310 -0.2279
 2409TIP3    H128718   3.669   4.183   2.223 -0.1724 -0.4713  0.1278
 2409TIP3    H228719   3.726   4.043   2.235 -0.6532 -0.6576  0.2522
 2410TIP3   OH228720   3.636   5.830  10.866  0.3990  0.1730  0.3130
 2410TIP3    H128721   3.678   5.906  10.825 -1.1307  0.6775 -0.3453
 2410TIP3    H228722   3.693   5.756  10.844  2.0833  1.1626  1.2518
 2411TIP3   OH228723   4.346   6.398   5.718  0.0476 -0.4622 -0.0161
 2411TIP3    H128724   4.283   6.359   5.779  1.1336 -1.2983  0.5907
 2411TIP3    H228725   4.373   6.479   5.761  1.6721 -1.6095  1.1958
 2412TIP3   OH228726   6.101   0.436  14.299  0.0070 -0.5101  0.1865
 2412TIP3    H128727   6.042   0.504  14.266  1.5856  0.7296 -0.1325
 2412TIP3    H228728   6.119   0.462  14.389  2.8107  1.0596 -0.7838
 2413TIP3   OH228729   5.079   4.108  10.668 -0.0693 -0.0024 -0.8271
 2413TIP3    H128730   5.060   4.201  10.659 -0.0294  0.2263  1.2112
 2413TIP3    H228731   5.147   4.104  10.735 -1.1012 -1.6023  0.1580
 2414TIP3   OH228732   5.007   3.518   5.118 -0.0851  0.9365 -0.5269
 2414TIP3    H128733   4.949   3.568   5.060 -1.9149 -0.0447  0.3893
 2414TIP3    H228734   5.005   3.565   5.201  1.4905  1.6248 -0.8825
 2415TIP3   OH228735   6.762   2.362   3.623  0.3320 -0.4268 -0.2274
 2415TIP3    H128736   6.779   2.281   3.671  0.3760 -0.3579 -0.1257
 2415TIP3    H228737   6.700   2.410   3.678  0.1610 -0.4748 -0.3784
 2416TIP3   OH228738   6.485   2.208  12.978  0.1599  0.2001 -0.2925
 2416TIP3    H128739   6.462   2.198  12.885 -1.9977  1.2976  0.0865
 2416TIP3    H228740   6.404   2.187  13.025  1.2484 -0.4053  1.3535
 2417TIP3   OH228741   5.591   3.013  14.766 -0.5971  0.2027  0.1419
 2417TIP3    H128742   5.545   3.097  14.766  1.2192  1.2284 -1.1591
 2417TIP3    H228743   5.532   2.952  14.722 -0.6727  1.5318 -1.6140
 2418TIP3   OH228744   0.073   5.740  15.186  0.2877  0.2564  0.0587
 2418TIP3    H128745   0.052   5.648  15.167  2.9937 -0.4464  0.3531
 2418TIP3    H228746   0.050   5.786  15.106  0.5084 -0.9296 -0.7021
 2419TIP3   OH228747   2.108   3.463   6.134 -0.4805 -0.1943  0.1642
 2419TIP3    H128748   2.031   3.500   6.090  0.3224  0.4698 -0.6945
 2419TIP3    H228749   2.071   3.404   6.200 -1.7442  0.8219  0.3970
 2420TIP3   OH228750   3.784   1.590   3.850 -0.1398  0.1734  0.2729
 2420TIP3    H128751   3.704   1.537   3.844 -0.6507  1.0237 -0.5993
 2420TIP3    H228752   3.757   1.667   3.901  0.1854  0.3453  0.1841
 2421TIP3   OH228753   2.929   3.166  11.174 -0.0763 -0.0306 -0.1729
 2421TIP3    H128754   2.861   3.125  11.227 -0.1620 -0.9835 -1.0111
 2421TIP3    H228755   2.892   3.252  11.150 -0.6143 -0.1741  0.1312
 2422TIP3   OH228756   0.189   6.462  16.459  0.6580 -0.6406  0.2566
 2422TIP3    H128757   0.172   6.368  16.471  1.9722 -1.0780 -1.1023
 2422TIP3    H228758   0.107   6.497  16.426  1.1164 -2.0014 -2.5289
 2423TIP3   OH228759   6.404   2.027  14.130  0.1006 -0.0513  0.3458
 2423TIP3    H128760   6.403   2.089  14.203  2.6765  0.0743  0.3096
 2423TIP3    H228761   6.493   2.031  14.096 -0.3788 -1.9577 -1.2396
 2424TIP3   OH228762   1.656   1.178   4.623  0.4343 -0.2738  0.4930
 2424TIP3    H128763   1.618   1.114   4.562  0.2698  0.9203 -0.6800
 2424TIP3    H228764   1.726   1.220   4.572  1.1300 -0.1268  1.5485
 2425TIP3   OH228765   3.457   0.012  15.114  0.8141 -0.7526  0.6357
 2425TIP3    H128766   3.409   0.047  15.039  1.2912 -2.1339 -0.3168
 2425TIP3    H228767   3.419   0.058  15.189  2.4014  2.9184 -0.6941
 2426TIP3   OH228768   5.309   3.863  11.752 -0.1791 -0.7357  0.0084
 2426TIP3    H128769   5.225   3.824  11.776  1.1034 -3.3924  0.3731
 2426TIP3    H228770   5.300   3.884  11.659 -0.9985 -1.6511 -0.1212
 2427TIP3   OH228771   0.004   1.844  14.342 -0.4108 -0.4174 -0.6583
 2427TIP3    H128772  -0.040   1.918  14.384 -0.5951 -1.8458  1.7350
 2427TIP3    H228773   0.092   1.845  14.377 -0.3954 -1.3015 -0.6487
 2428TIP3   OH228774   5.061   4.098  16.867  0.0088  0.5131  0.4766
 2428TIP3    H128775   5.029   4.172  16.919 -1.4144 -0.0994  0.5072
 2428TIP3    H228776   5.086   4.032  16.932  1.8827  1.1832  0.4681
 2429TIP3   OH228777   3.960   1.921   3.074 -0.2135  0.0098  0.0881
 2429TIP3    H128778   3.974   1.932   3.168  0.6029  2.4245 -0.2830
 2429TIP3    H228779   4.043   1.890   3.040  0.3067  1.6390 -0.1854
 2430TIP3   OH228780   3.432   1.160  13.291  0.5667 -0.5377  0.5713
 2430TIP3    H128781   3.415   1.248  13.326  2.0989  0.1061 -0.2436
 2430TIP3    H228782   3.346   1.118  13.289 -0.1072  0.7426  1.4912
 2431TIP3   OH228783   0.890   0.929   3.347  0.2240 -0.4453 -0.5348
 2431TIP3    H128784   0.913   1.020   3.329  1.1529 -1.0692 -2.6196
 2431TIP3    H228785   0.973   0.881   3.343 -0.3235 -1.4709  0.0492
 2432TIP3   OH228786   5.121   6.785   1.306 -0.0357  0.0466 -0.1606
 2432TIP3    H128787   5.120   6.839   1.385 -2.0048  0.2503 -0.3121
 2432TIP3    H228788   5.149   6.699   1.337  1.7830  0.7855  0.3052
 2433TIP3   OH228789   3.549   4.805  11.367  0.2576 -0.3555  0.2246
 2433TIP3    H128790   3.501   4.833  11.289 -1.8483  1.1215  1.9879
 2433TIP3    H228791   3.591   4.885  11.399  0.5150 -0.8005  1.0050
 2434TIP3   OH228792   4.787   2.829   1.840  0.1708 -0.1708 -0.1908
 2434TIP3    H128793   4.823   2.881   1.768  1.6605  1.2969  1.5622
 2434TIP3    H228794   4.694   2.853   1.843  0.3926  0.7959 -0.7795
 2435TIP3   OH228795   2.245   3.844  15.221 -0.1723  0.0627 -0.5442
 2435TIP3    H128796   2.185   3.799  15.280  1.1993 -0.1788  0.6944
 2435TIP3    H228797   2.248   3.789  15.143 -1.6130  0.1228 -0.6468
 2436TIP3   OH228798   1.432   0.846  10.541  0.2330  0.1130 -0.2637
 2436TIP3    H128799   1.406   0.871  10.629  0.3674 -1.4092  0.2230
 2436TIP3    H228800   1.506   0.903  10.520 -0.5299  1.2646  0.1553
 2437TIP3   OH228801   6.273   2.562   0.532 -0.3664 -0.1631  0.0242
 2437TIP3    H128802   6.291   2.504   0.606 -1.4630  1.1418  1.3567
 2437TIP3    H228803   6.188   2.532   0.498 -1.0236  0.7455  0.8308
 2438TIP3   OH228804   0.248   1.428  13.930 -0.4375 -0.4043  0.2188
 2438TIP3    H128805   0.230   1.335  13.945 -2.3232  0.1441  1.4648
 2438TIP3    H228806   0.166   1.472  13.950  1.1416  1.7791  2.2288
 2439TIP3   OH228807   5.900   3.292   0.084  0.3885  0.0665  0.0435
 2439TIP3    H128808   5.972   3.306   0.022 -0.9774  1.0998 -1.3539
 2439TIP3    H228809   5.863   3.379   0.098 -1.1562 -0.5603  0.0163
 2440TIP3   OH228810   3.646   6.504  16.492  0.2066  0.0212  0.0788
 2440TIP3    H128811   3.701   6.556  16.434  0.5462 -0.2384  0.1641
 2440TIP3    H228812   3.636   6.420  16.447  0.6164 -0.2437  0.4756
 2441TIP3   OH228813   5.098   1.713   4.250  0.3602  0.0293 -0.4044
 2441TIP3    H128814   5.032   1.773   4.284 -3.8967 -3.5181 -2.0667
 2441TIP3    H228815   5.147   1.766   4.187 -1.6857  2.4081 -0.0838
 2442TIP3   OH228816   1.923   6.659   2.408  0.6744  0.1375  0.1105
 2442TIP3    H128817   1.937   6.679   2.315 -1.1998 -1.3194 -0.5153
 2442TIP3    H228818   1.832   6.684   2.424  0.5217 -1.0644  1.1578
 2443TIP3   OH228819   2.760   2.298  12.975 -0.1966 -0.3133 -0.4157
 2443TIP3    H128820   2.696   2.254  13.031  1.2025 -0.7661  0.8462
 2443TIP3    H228821   2.824   2.230  12.954 -0.2684  0.0627 -1.9224
 2444TIP3   OH228822   6.356   4.768  13.648  0.1394 -0.5086 -0.5839
 2444TIP3    H128823   6.371   4.863  13.644  0.5074 -0.5734 -0.8029
 2444TIP3    H228824   6.362   4.739  13.557 -1.1115 -0.5720 -0.6484
 2445TIP3   OH228825   5.178   5.477  13.049  0.2380  0.3001 -0.6590
 2445TIP3    H128826   5.100   5.520  13.016  0.1611  0.1068 -0.7288
 2445TIP3    H228827   5.241   5.483  12.977  0.0865 -0.0774 -0.8244
 2446TIP3   OH228828   0.310   3.511  14.466  0.2406 -0.1592 -0.4194
 2446TIP3    H128829   0.381   3.574  14.479  3.0932 -3.4266  0.6013
 2446TIP3    H228830   0.307   3.462  14.549 -0.3554 -2.8530 -1.9940
 2447TIP3   OH228831   1.502   2.482   2.774 -0.3546  0.2664 -0.5118
 2447TIP3    H128832   1.445   2.555   2.747 -0.5498  0.4113  0.2869
 2447TIP3    H228833   1.554   2.518   2.846  0.1973 -0.1087 -0.7237
 2448TIP3   OH228834   5.483   3.469  10.381  0.8044 -0.3538  0.1400
 2448TIP3    H128835   5.543   3.423  10.440  0.5914  0.3881  0.9337
 2448TIP3    H228836   5.539   3.502  10.311  1.6785  2.1608  1.9509
 2449TIP3   OH228837   6.023   3.119  13.050  0.2797  0.5180 -0.4636
 2449TIP3    H128838   6.082   3.176  13.001 -1.4386  0.7932 -2.2938
 2449TIP3    H228839   5.968   3.178  13.101 -0.0154  0.4034 -0.6433
 2450TIP3   OH228840   3.644   0.111   0.274  0.3018  0.5789  0.3435
 2450TIP3    H128841   3.699   0.052   0.325 -0.0535  0.3218  0.4301
 2450TIP3    H228842   3.565   0.060   0.256  0.1032  0.9399  0.2015
 2451TIP3   OH228843   2.534   2.489   5.937 -0.2291 -0.3562  0.2788
 2451TIP3    H128844   2.595   2.441   5.993 -1.4044 -0.3615  1.5621
 2451TIP3    H228845   2.518   2.572   5.983  0.9957  0.8675 -1.4293
 2452TIP3   OH228846   1.141   3.683   5.920 -0.0271 -0.1693  0.0806
 2452TIP3    H128847   1.116   3.739   5.846  1.4633  2.2238  1.3381
 2452TIP3    H228848   1.058   3.660   5.961 -0.6325  2.0520  0.1774
 2453TIP3   OH228849   3.162   6.344   1.856 -0.2900  0.7791 -0.4678
 2453TIP3    H128850   3.108   6.324   1.779 -0.1088 -0.1291 -0.3626
 2453TIP3    H228851   3.171   6.260   1.901 -0.3717  1.3077  0.5339
 2454TIP3   OH228852   3.140   5.492  14.352  0.5656  0.1095 -0.3351
 2454TIP3    H128853   3.061   5.496  14.297  0.1949 -0.7798  0.1283
 2454TIP3    H228854   3.110   5.453  14.434  1.3789  0.2844  0.0457
 2455TIP3   OH228855   3.265   1.540   2.282  0.3258  0.4281 -0.4070
 2455TIP3    H128856   3.293   1.519   2.371 -1.4824 -0.8942 -0.1189
 2455TIP3    H228857   3.207   1.616   2.293 -1.5449 -0.9977 -0.1792
 2456TIP3   OH228858   3.854   0.505   5.878 -0.2716  0.0227 -0.3589
 2456TIP3    H128859   3.809   0.563   5.939 -1.9845 -0.9363 -0.6779
 2456TIP3    H228860   3.934   0.480   5.924 -0.6478  0.7592  0.7316
 2457TIP3   OH228861   6.347   6.498  11.751 -0.1682  0.0626 -0.8913
 2457TIP3    H128862   6.439   6.474  11.765  0.0391  1.3884  0.1881
 2457TIP3    H228863   6.350   6.592  11.730 -1.2427  0.0056 -1.3149
 2458TIP3   OH228864   5.737   3.715  16.482 -0.0261 -0.1919  0.2983
 2458TIP3    H128865   5.795   3.676  16.417  0.3818 -0.5788  0.8992
 2458TIP3    H228866   5.666   3.753  16.430 -0.5245 -1.8699 -0.2803
 2459TIP3   OH228867   6.793   3.754  12.387 -0.2187 -0.0407  0.3467
 2459TIP3    H128868   6.837   3.736  12.304  3.0911 -0.1064  2.0253
 2459TIP3    H228869   6.751   3.672  12.411  0.1882 -0.4834 -0.4491
 2460TIP3   OH228870   4.020   3.016  11.708  0.7956 -0.1376  0.6684
 2460TIP3    H128871   4.003   3.065  11.788 -2.0205 -0.5002  0.3420
 2460TIP3    H228872   3.949   3.041  11.649  0.2872 -3.2238 -0.1152
 2461TIP3   OH228873   2.968   0.650  13.687  0.4342 -0.2188 -0.0505
 2461TIP3    H128874   2.984   0.563  13.723 -0.4234 -0.4614 -0.2624
 2461TIP3    H228875   2.926   0.698  13.759  0.7393 -0.0262  0.0047
 2462TIP3   OH228876   1.005   3.172   1.246 -0.5847 -0.4099 -0.5533
 2462TIP3    H128877   1.075   3.235   1.261 -1.4487  0.7178 -1.1377
 2462TIP3    H228878   1.035   3.120   1.172  0.7014 -1.5515  0.7352
 2463TIP3   OH228879   6.083   0.279   4.975  0.2958 -0.5774 -0.0488
 2463TIP3    H128880   6.084   0.217   5.048 -0.4159 -0.6535 -0.0942
 2463TIP3    H228881   6.146   0.244   4.912 -0.3611 -1.4473 -0.2326
 2464TIP3   OH228882   5.989   5.288  16.116  0.2573  0.5583  0.3644
 2464TIP3    H128883   5.898   5.277  16.146  0.2738 -0.1997  0.1571
 2464TIP3    H228884   5.982   5.335  16.033  0.0458  0.4137  0.2987
 2465TIP3   OH228885   1.293   3.808  16.460 -0.7590  0.2992 -0.2633
 2465TIP3    H128886   1.382   3.776  16.446  0.1238  2.1700  0.8719
 2465TIP3    H228887   1.300   3.903  16.449 -2.5991  0.4779 -0.0747
 2466TIP3   OH228888   1.657   2.524  11.447 -0.4124 -0.2421 -0.1524
 2466TIP3    H128889   1.747   2.557  11.442 -0.2917 -0.6369 -0.6307
 2466TIP3    H228890   1.657   2.465  11.522  0.1661 -1.5518 -1.1452
 2467TIP3   OH228891   5.429   5.845   3.844 -0.1779 -0.2478 -0.2367
 2467TIP3    H128892   5.483   5.924   3.845  1.8187 -1.5764  0.4104
 2467TIP3    H228893   5.396   5.838   3.934  0.6601 -0.8113  0.0325
 2468TIP3   OH228894   3.034   3.658   0.208 -0.6325 -0.2236  0.1490
 2468TIP3    H128895   3.125   3.654   0.181 -0.9095 -0.7928 -0.7050
 2468TIP3    H228896   3.035   3.711   0.288  0.0387  2.4494 -1.5556
 2469TIP3   OH228897   4.535   3.814  12.134 -0.3932 -0.2274  0.7270
 2469TIP3    H128898   4.544   3.722  12.158 -0.0600 -0.5690 -0.6396
 2469TIP3    H228899   4.624   3.842  12.113 -0.6178  0.1551  0.2767
 2470TIP3   OH228900   4.913   2.297  12.181  0.2589 -0.6295 -0.1378
 2470TIP3    H128901   4.936   2.204  12.174 -0.4964 -0.7247 -1.6736
 2470TIP3    H228902   4.876   2.306  12.268  0.1463 -1.8268 -0.0509
 2471TIP3   OH228903   3.728   3.016  16.502 -0.0317  0.2210  0.0968
 2471TIP3    H128904   3.751   2.924  16.511  0.0421  0.2964  0.6484
 2471TIP3    H228905   3.781   3.061  16.566 -0.4041  0.5983  0.1421
 2472TIP3   OH228906   5.185   0.820  10.940  0.1357  0.0115  0.1365
 2472TIP3    H128907   5.274   0.794  10.916  0.9654  1.4059  1.5634
 2472TIP3    H228908   5.135   0.739  10.940  0.8647 -0.4988 -2.8681
 2473TIP3   OH228909   4.636   0.096  12.503 -0.2467  0.2004 -0.3286
 2473TIP3    H128910   4.579   0.031  12.545  0.3955  0.2658  0.6566
 2473TIP3    H228911   4.579   0.141  12.441 -1.0378 -0.3910 -0.0376
 2474TIP3   OH228912   5.745   4.738  16.238  0.1888  0.3507 -0.0629
 2474TIP3    H128913   5.706   4.695  16.315  0.1121  0.6946  0.0941
 2474TIP3    H228914   5.691   4.817  16.226  0.9737  0.9491  0.2880
 2475TIP3   OH228915   1.660   1.723   1.395  0.7096  0.5467 -0.0932
 2475TIP3    H128916   1.716   1.800   1.385  1.1053  0.1628 -0.8433
 2475TIP3    H228917   1.647   1.691   1.306 -1.6931  1.3284 -0.0527
 2476TIP3   OH228918   5.511   2.133   6.622  0.3599 -0.4134 -0.2732
 2476TIP3    H128919   5.439   2.167   6.569  1.3139  1.0347 -0.6871
 2476TIP3    H228920   5.493   2.164   6.710 -1.0139 -2.4765  0.1880
 2477TIP3   OH228921   0.489   1.056   4.347  0.0130 -0.1105 -0.5011
 2477TIP3    H128922   0.583   1.074   4.352 -0.0688  0.3819 -0.7212
 2477TIP3    H228923   0.454   1.123   4.288 -0.4822 -0.2708 -0.3975
 2478TIP3   OH228924   0.402   0.499  12.670  0.2412 -0.1770  0.1318
 2478TIP3    H128925   0.359   0.530  12.750  1.7604  0.7391  0.6028
 2478TIP3    H228926   0.411   0.578  12.616 -0.2164 -0.6814 -0.6945
 2479TIP3   OH228927   6.693   5.214  15.855 -0.7723 -0.3210 -0.4998
 2479TIP3    H128928   6.744   5.215  15.936 -1.4772  1.1571 -0.0549
 2479TIP3    H228929   6.657   5.302  15.848  0.2747 -0.0751 -3.0806
 2480TIP3   OH228930   3.002   2.581  15.943  0.3138 -0.5654  0.2878
 2480TIP3    H128931   2.968   2.599  16.031 -0.1256  1.2274 -0.2181
 2480TIP3    H228932   3.097   2.582  15.953  0.3647  3.3738  0.1108
 2481TIP3   OH228933   0.235   4.849   5.162 -0.1026 -0.2671 -0.0041
 2481TIP3    H128934   0.275   4.827   5.077 -0.5361  2.2642 -0.8861
 2481TIP3    H228935   0.308   4.845   5.224  0.5696 -0.3814 -0.7914
 2482TIP3   OH228936   0.012   6.754  11.962 -0.1434 -0.3717 -0.1777
 2482TIP3    H128937   0.102   6.778  11.939  0.7945 -2.3572  1.2656
 2482TIP3    H228938  -0.014   6.691  11.895 -1.5735  2.3327 -2.2928
 2483TIP3   OH228939   1.852   5.684  16.595 -0.0053  0.5728 -0.4844
 2483TIP3    H128940   1.939   5.664  16.562 -0.3973 -1.5789 -0.2519
 2483TIP3    H228941   1.856   5.668  16.689 -1.0132 -0.9251 -0.6720
 2484TIP3   OH228942   2.789   1.157   5.332 -0.4362 -0.0191  0.5177
 2484TIP3    H128943   2.747   1.155   5.418 -0.2417  0.9797  0.6422
 2484TIP3    H228944   2.874   1.198   5.347  0.3297 -1.4574  0.1545
 2485TIP3   OH228945   3.499   5.906  11.922  0.0298 -0.3031 -0.0484
 2485TIP3    H128946   3.440   5.968  11.962 -1.6761 -0.3599 -2.3723
 2485TIP3    H228947   3.495   5.828  11.978 -1.8074 -0.1590  0.0373
 2486TIP3   OH228948   1.403   2.644  14.627  0.0500  0.5096 -0.1727
 2486TIP3    H128949   1.459   2.651  14.705  0.7996 -0.7528 -0.5875
 2486TIP3    H228950   1.446   2.577  14.573 -1.3520  0.2075 -0.9189
 2487TIP3   OH228951   4.630   4.448  15.674 -0.3748  0.2703 -0.2888
 2487TIP3    H128952   4.616   4.404  15.758  1.4102  0.7471  0.2677
 2487TIP3    H228953   4.716   4.418  15.645 -1.3538 -0.5776 -2.4014
 2488TIP3   OH228954   3.545   5.303  13.318 -0.7135 -0.1201 -0.2381
 2488TIP3    H128955   3.599   5.332  13.392 -0.6575  0.0210 -0.3352
 2488TIP3    H228956   3.575   5.214  13.300 -0.3301  0.0584 -0.4697
 2489TIP3   OH228957   5.167   1.910  13.505  0.0459  0.2873 -0.1098
 2489TIP3    H128958   5.084   1.907  13.458  0.0924 -1.4587 -0.0911
 2489TIP3    H228959   5.187   1.819  13.526  1.5369  0.7665  0.6457
 2490TIP3   OH228960   0.293   3.825   2.652 -0.4143  0.2852  0.0109
 2490TIP3    H128961   0.323   3.882   2.581  3.7824  0.0319  1.4936
 2490TIP3    H228962   0.372   3.784   2.686 -2.3976 -0.1775  4.4055
 2491TIP3   OH228963   5.368   2.703   0.429  0.1051 -0.1579  0.2873
 2491TIP3    H128964   5.454   2.737   0.403 -1.1620  2.1205 -1.1078
 2491TIP3    H228965   5.360   2.620   0.383  2.2068 -1.1815  1.6993
 2492TIP3   OH228966   6.220   3.921  15.247  0.0549 -0.0189 -0.0772
 2492TIP3    H128967   6.269   3.900  15.167  0.2224 -0.7173  0.2000
 2492TIP3    H228968   6.244   4.011  15.267 -0.3253  0.3056 -1.0577
 2493TIP3   OH228969   3.647   2.434   6.512  0.6660  0.6594  0.1841
 2493TIP3    H128970   3.567   2.467   6.472  1.3121  1.1793 -0.7111
 2493TIP3    H228971   3.718   2.477   6.463  1.5036 -1.0186 -0.1280
 2494TIP3   OH228972   6.709   0.682  12.617  0.0899  0.3940 -0.3762
 2494TIP3    H128973   6.706   0.775  12.596  0.9227  0.2651 -1.1082
 2494TIP3    H228974   6.799   0.656  12.600  0.5069 -0.0081  2.2432
 2495TIP3   OH228975   1.293   4.951   6.659 -0.3027 -0.0313  0.1272
 2495TIP3    H128976   1.289   5.005   6.580  1.8546 -1.6943 -1.1855
 2495TIP3    H228977   1.265   5.009   6.729  0.1744  2.2439 -1.5044
 2496TIP3   OH228978   4.853   3.253  16.415 -0.2202  0.3975 -0.3286
 2496TIP3    H128979   4.796   3.207  16.354  0.5778 -0.3275 -0.5439
 2496TIP3    H228980   4.877   3.334  16.369 -1.4309  0.9165 -0.0501
 2497TIP3   OH228981   3.626   0.555   2.102  0.0391  0.4831 -0.5898
 2497TIP3    H128982   3.694   0.591   2.045  0.3399  0.4149 -0.2763
 2497TIP3    H228983   3.645   0.462   2.106 -0.0135  0.4797 -0.4221
 2498TIP3   OH228984   6.528   4.047   2.477 -0.1738 -0.1729  0.3652
 2498TIP3    H128985   6.564   4.103   2.546  1.1362 -1.3008  0.6295
 2498TIP3    H228986   6.591   3.976   2.469 -0.6824 -0.4521 -1.4977
 2499TIP3   OH228987   4.864   2.648  11.100  0.0748 -0.2314 -0.0126
 2499TIP3    H128988   4.890   2.597  11.023 -0.6244 -0.1279 -0.3219
 2499TIP3    H228989   4.879   2.739  11.074  1.5205 -0.2830  0.6142
 2500TIP3   OH228990   2.218   2.427   5.184 -0.3149 -0.3115 -0.4142
 2500TIP3    H128991   2.127   2.413   5.213  0.0089 -0.8330  0.3712
 2500TIP3    H228992   2.224   2.382   5.100 -0.6829 -0.5882 -0.2953
 2501TIP3   OH228993   2.028   5.463  11.511  0.4524 -0.0606 -0.2241
 2501TIP3    H128994   2.104   5.449  11.567 -1.1652 -2.2125  1.4910
 2501TIP3    H228995   1.953   5.440  11.565 -1.3974  1.0957 -2.1907
 2502TIP3   OH228996   1.735   5.641  15.863  0.0596 -0.0126  0.0121
 2502TIP3    H128997   1.758   5.558  15.906 -4.4400 -1.5087 -0.2017
 2502TIP3    H228998   1.697   5.694  15.933  1.9514  1.5296 -0.0824
 2503TIP3   OH228999   4.087   6.221  10.961 -0.5055 -0.0121  0.6907
 2503TIP3    H129000   4.039   6.150  10.918 -2.5229  0.9676  1.2488
 2503TIP3    H229001   4.078   6.296  10.902 -0.9225  0.5744  1.4774
 2504TIP3   OH229002   2.195   5.581  14.170  0.1941  0.1037 -0.7088
 2504TIP3    H129003   2.227   5.648  14.110 -0.1011  0.7208 -0.1797
 2504TIP3    H229004   2.180   5.505  14.115 -0.6572  0.8517 -1.5157
 2505TIP3   OH229005   6.726   1.535   2.375 -0.6545 -0.3468 -0.6586
 2505TIP3    H129006   6.646   1.585   2.386 -1.3967 -1.5976 -0.1975
 2505TIP3    H229007   6.708   1.475   2.302 -0.0030 -0.3687 -0.8093
 2506TIP3   OH229008   6.686   3.386   1.310  0.4121  0.5351 -0.5202
 2506TIP3    H129009   6.610   3.334   1.334  1.6928 -1.4273 -0.5364
 2506TIP3    H229010   6.721   3.342   1.232  2.3610  0.5238  0.3247
 2507TIP3   OH229011   5.328   0.293  11.990 -0.1440 -0.2768  0.3631
 2507TIP3    H129012   5.319   0.361  11.923 -1.8783 -1.2507 -0.4126
 2507TIP3    H229013   5.347   0.341  12.071  0.2616  1.0115 -0.4904
 2508TIP3   OH229014   1.492   2.913  14.471  0.4180 -0.2484  0.3559
 2508TIP3    H129015   1.494   2.912  14.566 -0.5813  0.7113  0.3940
 2508TIP3    H229016   1.552   2.983  14.446 -0.9603  0.9463  0.3479
 2509TIP3   OH229017   1.104   3.595  17.075 -0.1498  0.1187 -0.5732
 2509TIP3    H129018   1.126   3.680  17.114 -0.1194 -0.1196 -0.0602
 2509TIP3    H229019   1.041   3.616  17.006 -0.4719  0.5188 -0.1659
 2510TIP3   OH229020   4.151   0.951  12.853  0.0836  0.0777  0.5324
 2510TIP3    H129021   4.170   1.004  12.775 -0.9583 -0.3188 -0.0089
 2510TIP3    H229022   4.082   0.891  12.824  0.1632 -0.5224  1.5813
 2511TIP3   OH229023   3.475   6.395   0.046 -0.4527  0.0393 -0.2319
 2511TIP3    H129024   3.524   6.452  -0.014  1.1775 -0.3783  0.6602
 2511TIP3    H229025   3.469   6.311  -0.001  2.0987 -0.7318  0.7250
 2512TIP3   OH229026   3.673   2.859   4.242 -0.3555 -0.1208  0.2525
 2512TIP3    H129027   3.618   2.895   4.312 -1.1535 -0.5409 -0.1513
 2512TIP3    H229028   3.617   2.862   4.164 -0.4481 -2.2295  0.2084
 2513TIP3   OH229029   1.001   6.324  15.687 -0.3722 -0.3827 -0.4715
 2513TIP3    H129030   0.999   6.411  15.647  0.5470 -0.3515 -0.4603
 2513TIP3    H229031   0.949   6.333  15.766  2.6250  1.1391  1.4268
 2514TIP3   OH229032   1.348   0.208   5.157 -0.0628  0.1298  0.1911
 2514TIP3    H129033   1.412   0.218   5.087 -0.4617  1.9507  0.0759
 2514TIP3    H229034   1.264   0.207   5.112 -0.2062 -0.9340  0.4618
 2515TIP3   OH229035   0.600   3.740  11.771  0.1979 -0.5893 -0.0891
 2515TIP3    H129036   0.619   3.660  11.819 -1.8045 -0.5943  0.7359
 2515TIP3    H229037   0.627   3.720  11.681  1.6427 -1.4491  0.5163
 2516TIP3   OH229038   0.568   2.403  14.144 -0.1183 -0.1358  0.4170
 2516TIP3    H129039   0.641   2.358  14.102 -0.1407  1.5636 -1.4701
 2516TIP3    H229040   0.490   2.356  14.115  0.1592 -2.0282  2.5305
 2517TIP3   OH229041   3.573   1.512  13.281  0.4592 -0.5004 -1.0382
 2517TIP3    H129042   3.514   1.513  13.206  0.0524 -0.2984 -0.7223
 2517TIP3    H229043   3.551   1.592  13.329  1.6005  0.0246 -1.3801
 2518TIP3   OH229044   1.952   1.944   3.040 -0.0957 -0.4237 -0.7277
 2518TIP3    H129045   2.020   2.001   3.075 -0.7016  0.2131 -0.5772
 2518TIP3    H229046   1.984   1.919   2.953 -0.1609  0.7436 -1.0957
 2519TIP3   OH229047   0.513   2.935  14.750  0.5990  0.1410  0.2387
 2519TIP3    H129048   0.576   3.002  14.775  0.6355  0.1331  0.1697
 2519TIP3    H229049   0.427   2.973  14.770  0.5825  0.5291 -0.5484
 2520TIP3   OH229050   1.993   0.737  14.490 -0.2439 -0.4570  0.3567
 2520TIP3    H129051   1.999   0.768  14.581 -1.4206 -1.7653  0.8993
 2520TIP3    H229052   1.905   0.765  14.462 -1.9041 -4.3982  1.3211
 2521TIP3   OH229053   2.975   2.277  11.705 -0.1236 -0.2010  0.0100
 2521TIP3    H129054   2.885   2.268  11.736  0.4182 -0.5155  1.5547
 2521TIP3    H229055   3.004   2.361  11.739 -0.0170  0.1581 -0.9648
 2522TIP3   OH229056   1.651   2.728   3.172 -0.1615  0.1068 -1.1334
 2522TIP3    H129057   1.744   2.713   3.189 -0.4994 -0.1111  0.5859
 2522TIP3    H229058   1.627   2.802   3.227 -1.2114 -0.4282 -0.8454
 2523TIP3   OH229059   2.407   4.363  14.878 -0.2430 -0.0377  0.3946
 2523TIP3    H129060   2.480   4.425  14.876  0.0228 -0.3307  1.1051
 2523TIP3    H229061   2.391   4.346  14.971 -2.6750  1.7237  0.3498
 2524TIP3   OH229062   1.895   2.255   1.116 -0.6577  0.3407 -0.4741
 2524TIP3    H129063   1.826   2.208   1.069  0.2928 -1.4741 -0.1276
 2524TIP3    H229064   1.861   2.263   1.206 -1.8572  2.5329 -1.0777
 2525TIP3   OH229065   4.070   4.569  15.023 -0.2638 -0.2659  0.3024
 2525TIP3    H129066   4.014   4.555  15.099 -1.9110 -1.2047 -1.0261
 2525TIP3    H229067   4.056   4.661  14.999 -1.5081 -0.5692 -0.1921
 2526TIP3   OH229068   3.038   4.210   4.988  0.1783  0.0455 -0.8497
 2526TIP3    H129069   3.088   4.289   4.968 -0.9610  0.5113 -1.9466
 2526TIP3    H229070   3.104   4.141   4.991  1.1135  0.9290 -0.5183
 2527TIP3   OH229071   6.230   3.185   1.196 -0.2758  0.2618 -0.0664
 2527TIP3    H129072   6.165   3.182   1.126 -0.7328 -0.9639  0.3861
 2527TIP3    H229073   6.198   3.122   1.261  1.2501 -0.2263  0.2507
 2528TIP3   OH229074   3.592   2.188  16.004  0.1577 -0.0528  0.2277
 2528TIP3    H129075   3.684   2.200  15.979  0.3144  0.0291  0.8282
 2528TIP3    H229076   3.551   2.272  15.987  0.5239  0.3632  1.3267
 2529TIP3   OH229077   3.967   4.164   3.824  0.0219 -0.1139  0.3404
 2529TIP3    H129078   4.004   4.166   3.736 -2.0235  0.6220 -0.5466
 2529TIP3    H229079   4.035   4.124   3.879  1.5001 -0.1307 -1.4735
 2530TIP3   OH229080   3.010   1.110  13.441 -0.3308 -0.0419 -0.2237
 2530TIP3    H129081   2.974   1.198  13.455  0.9193  0.3838  0.4304
 2530TIP3    H229082   3.007   1.097  13.347  1.6819  1.6699 -0.5512
 2531TIP3   OH229083   1.283   3.839  13.313  0.0789  0.2572  0.1772
 2531TIP3    H129084   1.205   3.789  13.338 -0.9620  0.9916 -1.4942
 2531TIP3    H229085   1.282   3.839  13.218  1.5569  1.1767  0.1441
 2532TIP3   OH229086   3.663   4.187  10.843  0.1578  0.5626  0.0190
 2532TIP3    H129087   3.743   4.235  10.868  0.7114  0.5848 -1.7205
 2532TIP3    H229088   3.603   4.201  10.916  2.2907 -0.7750  2.1368
 2533TIP3   OH229089   2.686   2.802   4.337 -0.1728 -0.3148  0.3205
 2533TIP3    H129090   2.683   2.864   4.265 -1.0708 -0.6482  0.0583
 2533TIP3    H229091   2.626   2.839   4.403  0.1057 -0.3632  0.5985
 2534TIP3   OH229092   3.893   1.799  12.558 -0.4210  0.6676  0.4927
 2534TIP3    H129093   3.889   1.801  12.462 -0.5181  1.1882  0.5088
 2534TIP3    H229094   3.844   1.876  12.586 -0.3272  0.5575  0.9604
 2535TIP3   OH229095   6.573   0.915  16.046 -0.4908  0.1535  0.0939
 2535TIP3    H129096   6.518   0.911  16.124 -1.1576 -0.1885 -0.3930
 2535TIP3    H229097   6.657   0.877  16.074 -0.1414  1.6203  1.1173
 2536TIP3   OH229098   6.802   6.195   0.817 -0.1215  0.2507 -0.4486
 2536TIP3    H129099   6.868   6.193   0.748  0.7244  0.2586  0.3493
 2536TIP3    H229100   6.731   6.248   0.781 -0.2563 -0.8363 -1.8161
 2537TIP3   OH229101   1.311   2.578  12.346 -0.3902 -0.1832 -0.2020
 2537TIP3    H129102   1.265   2.624  12.276  0.9609  0.6895 -0.5422
 2537TIP3    H229103   1.251   2.509  12.373 -1.6906  0.6331 -0.9495
 2538TIP3   OH229104   3.401   4.158  16.494 -0.3208 -0.4608 -0.1063
 2538TIP3    H129105   3.482   4.154  16.445  0.0154  0.9700  0.2989
 2538TIP3    H229106   3.382   4.252  16.502 -0.0406 -0.6064  2.9730
 2539TIP3   OH229107   5.464   1.190   1.469  0.4045  0.1789  0.3597
 2539TIP3    H129108   5.437   1.241   1.546 -1.3202  0.9236 -0.7124
 2539TIP3    H229109   5.394   1.204   1.405  1.4399 -1.0541 -1.0753
 2540TIP3   OH229110   1.999   4.927  13.616  0.7569 -0.3276  0.4172
 2540TIP3    H129111   2.070   4.941  13.553 -0.8965 -3.2698 -2.2337
 2540TIP3    H229112   1.946   5.006  13.611  1.6767  0.2460 -0.5019
 2541TIP3   OH229113   1.682   4.187  15.257 -0.2036 -0.3204 -0.5617
 2541TIP3    H129114   1.742   4.197  15.182 -0.0471 -2.7613 -0.7988
 2541TIP3    H229115   1.668   4.276  15.288 -0.8016  0.8301 -3.9131
 2542TIP3   OH229116   3.102   5.194   4.055  0.1953  0.1521 -0.1730
 2542TIP3    H129117   3.054   5.208   3.974  0.3695 -0.0238 -0.3064
 2542TIP3    H229118   3.124   5.282   4.085  1.8467  0.1649 -1.3454
 2543TIP3   OH229119   1.794   5.483  13.387 -0.3502  0.3264  0.4057
 2543TIP3    H129120   1.752   5.530  13.460  1.0489  1.3511  0.5523
 2543TIP3    H229121   1.870   5.535  13.365 -1.0034  0.2711 -2.1319
 2544TIP3   OH229122   3.170   0.133   4.569  0.4377 -0.4191  0.1377
 2544TIP3    H129123   3.176   0.045   4.530 -1.9627 -0.3476 -0.5122
 2544TIP3    H229124   3.095   0.173   4.526  0.6375  1.4555  1.4506
 2545TIP3   OH229125   1.731   6.033  14.857  0.0181 -0.4551  0.0089
 2545TIP3    H129126   1.700   5.995  14.940 -0.2987  1.4819  0.7986
 2545TIP3    H229127   1.718   6.127  14.868  2.0745  0.0035 -1.3990
 2546TIP3   OH229128   2.731   1.060  15.525  0.5314 -0.6927  0.2420
 2546TIP3    H129129   2.713   0.997  15.454 -0.5432 -0.9165  0.7102
 2546TIP3    H229130   2.653   1.115  15.528  0.0255 -1.4810  2.0826
 2547TIP3   OH229131   5.880   0.381   6.554 -0.0318 -0.3368  0.3879
 2547TIP3    H129132   5.850   0.354   6.641  2.5513 -1.1072  1.0734
 2547TIP3    H229133   5.902   0.473   6.564  1.6084 -0.7760  0.9450
 2548TIP3   OH229134   0.817   1.464  11.928  0.2480 -0.0607  0.0081
 2548TIP3    H129135   0.840   1.433  12.016 -0.1612  1.7331  0.7750
 2548TIP3    H229136   0.897   1.503  11.894  0.1635  0.0533 -0.0606
 2549TIP3   OH229137   0.692   3.988   3.482 -0.2140 -0.4260 -0.2987
 2549TIP3    H129138   0.710   4.060   3.421 -2.9036 -0.1131 -0.7801
 2549TIP3    H229139   0.699   3.909   3.429  1.4212 -0.4688 -0.0651
 2550TIP3   OH229140   5.356   0.254   6.093 -0.3089  0.4564  0.3830
 2550TIP3    H129141   5.276   0.261   6.145 -0.6929  1.5358 -0.3160
 2550TIP3    H229142   5.327   0.269   6.003  0.7133  1.1252  0.1521
 2551TIP3   OH229143   4.041   2.345   5.801 -0.0868  0.5015  0.4075
 2551TIP3    H129144   4.046   2.289   5.723  1.0052  1.1598  0.0068
 2551TIP3    H229145   4.078   2.292   5.871 -1.0588 -0.0881  0.4797
 2552TIP3   OH229146   1.188   5.493  17.120  0.2254 -0.0382  0.9693
 2552TIP3    H129147   1.270   5.468  17.162 -0.3235  0.0291  2.1084
 2552TIP3    H229148   1.134   5.414  17.125  0.8448 -0.6469 -1.4078
 2553TIP3   OH229149   1.346   0.755   0.021 -0.3673  0.1701  0.8726
 2553TIP3    H129150   1.286   0.779   0.091 -0.9538 -1.0769  0.8023
 2553TIP3    H229151   1.413   0.701   0.063 -1.4394 -1.6806  0.2598
 2554TIP3   OH229152   4.968   4.577   5.537  0.0940  0.6409  0.0747
 2554TIP3    H129153   4.955   4.526   5.456 -0.4773 -0.6598  0.9727
 2554TIP3    H229154   4.884   4.619   5.553 -0.7502 -1.5159  1.6056
 2555TIP3   OH229155   4.142   3.807   0.451  0.1873 -0.5233  0.1660
 2555TIP3    H129156   4.091   3.791   0.531  2.3295  1.0796  1.8854
 2555TIP3    H229157   4.209   3.738   0.451 -0.9176 -1.6540 -1.2718
 2556TIP3   OH229158   4.755   2.574  15.719 -0.2670  0.0819 -0.1093
 2556TIP3    H129159   4.786   2.660  15.693 -1.4991  0.5850  0.0485
 2556TIP3    H229160   4.682   2.592  15.779 -0.1270 -1.0597  0.4175
 2557TIP3   OH229161   3.706   0.164   5.560  0.1959 -0.0935 -0.3739
 2557TIP3    H129162   3.784   0.210   5.532 -0.1453  0.6229 -0.1480
 2557TIP3    H229163   3.737   0.101   5.625  0.5133  0.5394  0.0918
 2558TIP3   OH229164   2.913   4.871   6.619  0.6788 -0.4383  0.3098
 2558TIP3    H129165   2.880   4.948   6.571 -2.1769 -1.1622  1.0148
 2558TIP3    H229166   2.925   4.805   6.551  0.8387 -0.0996  0.0051
 2559TIP3   OH229167   3.466   4.276   4.702 -0.3240 -0.0881  0.4796
 2559TIP3    H129168   3.452   4.257   4.795 -1.9755 -0.0914  0.2345
 2559TIP3    H229169   3.561   4.286   4.694  0.0034 -1.9155  1.8153
 2560TIP3   OH229170   3.554   2.259   2.579  0.0094  0.4142  0.1801
 2560TIP3    H129171   3.592   2.325   2.521 -0.6853  1.9691  1.4544
 2560TIP3    H229172   3.474   2.300   2.612 -0.7453 -1.3091  0.5293
 2561TIP3   OH229173   6.711   3.669   4.367  0.1154  0.1207  0.2586
 2561TIP3    H129174   6.639   3.724   4.337  2.4057  2.9727 -0.1504
 2561TIP3    H229175   6.746   3.630   4.287 -1.2009 -1.6402  0.5023
 2562TIP3   OH229176   6.008   0.695   1.051  0.3803 -0.3551 -0.8414
 2562TIP3    H129177   5.967   0.781   1.052  2.4083  0.6487  0.3461
 2562TIP3    H229178   6.035   0.680   1.142  1.3931 -1.5796 -1.3212
 2563TIP3   OH229179   5.321   2.485   6.241  0.3122  0.0627  0.4754
 2563TIP3    H129180   5.336   2.424   6.169  0.0792  1.1261 -0.4876
 2563TIP3    H229181   5.373   2.562   6.218  0.6381  0.2082  1.7026
 2564TIP3   OH229182   2.139   5.605  12.634  0.0700  0.1204 -0.3913
 2564TIP3    H129183   2.053   5.572  12.663 -0.4961  1.9649  0.1048
 2564TIP3    H229184   2.200   5.574  12.702 -0.5808  0.8000  0.5181
 2565TIP3   OH229185   6.633   5.755  14.346  0.0543  0.6791  0.0746
 2565TIP3    H129186   6.601   5.700  14.274  0.6664  0.0022  0.3162
 2565TIP3    H229187   6.725   5.771  14.326 -0.4587  2.8082 -0.7250
 2566TIP3   OH229188   1.271   5.370  14.898 -0.0062 -0.7686  0.6158
 2566TIP3    H129189   1.224   5.441  14.942 -2.8573 -0.7987 -2.2304
 2566TIP3    H229190   1.348   5.413  14.860 -1.2249  0.6466 -0.3047
 2567TIP3   OH229191   1.277   5.846   1.663  0.3003 -0.2956  0.1777
 2567TIP3    H129192   1.268   5.846   1.567  0.5804 -0.8881  0.1506
 2567TIP3    H229193   1.203   5.899   1.694  0.5141  0.3459 -0.3934
 2568TIP3   OH229194   1.326   3.658   0.285  0.2445  0.5536 -0.3601
 2568TIP3    H129195   1.422   3.659   0.281  0.2531  1.1867 -0.0711
 2568TIP3    H229196   1.300   3.604   0.211  0.8206  0.5914 -0.5978
 2569TIP3   OH229197   2.802   4.285  12.545 -0.1848 -0.1038 -0.0242
 2569TIP3    H129198   2.852   4.359  12.510 -1.2538  1.5939  1.9409
 2569TIP3    H229199   2.863   4.240  12.603  0.2169 -0.3231 -0.6020
 2570TIP3   OH229200   5.495   2.162   3.445 -0.3934  0.0710 -0.2967
 2570TIP3    H129201   5.411   2.117   3.436 -0.5301 -0.0373  1.3764
 2570TIP3    H229202   5.477   2.251   3.413 -1.2092  0.1057  0.2284
 2571TIP3   OH229203   6.615   0.674   1.049 -0.8358  0.6343 -0.0576
 2571TIP3    H129204   6.549   0.698   1.114  0.5859  0.9935  1.2953
 2571TIP3    H229205   6.566   0.664   0.967 -2.7519 -0.3839  1.1686
 2572TIP3   OH229206   6.459   4.155   0.275 -0.6908 -0.1013 -0.4715
 2572TIP3    H129207   6.489   4.102   0.201  1.7393  0.8512 -0.2170
 2572TIP3    H229208   6.513   4.234   0.271 -2.7523  1.4074  0.4448
 2573TIP3   OH229209   0.341   2.587  15.142 -0.2692 -0.1223  0.3112
 2573TIP3    H129210   0.345   2.649  15.069 -1.8948 -1.5092 -1.0096
 2573TIP3    H229211   0.326   2.641  15.219  1.0065  1.3310 -0.4288
 2574TIP3   OH229212   2.844   1.318  13.396 -0.4726  0.4601  0.1808
 2574TIP3    H129213   2.812   1.292  13.310  0.5899 -0.0621 -0.0582
 2574TIP3    H229214   2.794   1.263  13.457  1.7000 -2.1709 -0.3179
 2575TIP3   OH229215   4.125   5.511   5.624 -0.0554 -0.2416  0.3166
 2575TIP3    H129216   4.135   5.504   5.719  0.6240  1.7216  0.4096
 2575TIP3    H229217   4.031   5.520   5.610  0.0741  3.0184  1.1140
 2576TIP3   OH229218   5.291   0.111  13.641 -0.2059  0.6463  0.2457
 2576TIP3    H129219   5.333   0.142  13.721  0.4285 -0.6768  0.4515
 2576TIP3    H229220   5.197   0.120  13.657 -0.0847  0.3294  1.1765
 2577TIP3   OH229221   0.317   2.031   2.064 -0.4151  0.7982  0.5908
 2577TIP3    H129222   0.398   2.003   2.021 -1.3001  0.6790 -1.0450
 2577TIP3    H229223   0.316   2.126   2.054 -0.1165  0.8767  1.2749
 2578TIP3   OH229224   3.607   1.563  16.017 -0.2933  0.0559 -0.5480
 2578TIP3    H129225   3.674   1.619  16.057 -0.0225 -0.0230 -0.8839
 2578TIP3    H229226   3.588   1.497  16.083  1.5639 -1.2376 -1.2465
 2579TIP3   OH229227   5.499   2.688  13.982  0.4344 -0.0285  0.0698
 2579TIP3    H129228   5.463   2.745  13.914 -1.6658 -0.5790  0.6654
 2579TIP3    H229229   5.524   2.748  14.053 -0.1530  0.3112 -0.0039
 2580TIP3   OH229230   3.488   5.335   1.346  0.1191  0.3926 -0.2168
 2580TIP3    H129231   3.409   5.372   1.384  0.6110  0.5250  0.6814
 2580TIP3    H229232   3.466   5.243   1.331  0.8306 -0.3631  3.0215
 2581TIP3   OH229233   1.528   2.125   4.412  0.6347 -0.2508  0.1787
 2581TIP3    H129234   1.505   2.065   4.483 -1.3743  2.1183  1.6220
 2581TIP3    H229235   1.572   2.198   4.456 -0.2611  1.0608 -1.0516
 2582TIP3   OH229236   5.683   0.824   4.203 -0.2365 -0.3019 -0.7911
 2582TIP3    H129237   5.742   0.867   4.265 -0.8719 -0.5756 -0.0050
 2582TIP3    H229238   5.657   0.743   4.245 -0.9606 -0.3184 -1.2554
 2583TIP3   OH229239   4.693   0.219   3.637  0.0337 -0.3795  0.2316
 2583TIP3    H129240   4.643   0.164   3.577  0.5841 -1.1385  0.4715
 2583TIP3    H229241   4.638   0.296   3.651  0.2562  0.2205 -1.9552
 2584TIP3   OH229242   2.097   5.511  14.658  0.2468  0.0042 -0.0251
 2584TIP3    H129243   2.135   5.489  14.574  1.3987  1.5400  0.0841
 2584TIP3    H229244   2.106   5.431  14.710 -3.4534 -2.0989 -2.3333
 2585TIP3   OH229245   3.041   0.243  16.991  0.0150  0.5388  0.6835
 2585TIP3    H129246   3.017   0.302  17.062 -0.1802 -0.6254  1.5966
 2585TIP3    H229247   3.110   0.187  17.028  0.3058  0.2889 -0.2116
 2586TIP3   OH229248   5.349   5.603   5.113 -0.5654 -0.3035 -0.2878
 2586TIP3    H129249   5.437   5.622   5.080 -0.9794  2.4283  0.0654
 2586TIP3    H229250   5.351   5.634   5.204 -1.1008 -2.7163  0.5902
 2587TIP3   OH229251   6.775   1.416   1.190 -0.0829  0.0517 -0.7631
 2587TIP3    H129252   6.718   1.354   1.144  0.8824  0.2971 -2.3137
 2587TIP3    H229253   6.798   1.372   1.272 -2.4522 -0.0730 -0.1273
 2588TIP3   OH229254   6.040   0.384   1.552  0.4294  0.3445 -0.6071
 2588TIP3    H129255   6.072   0.299   1.582  2.3980  0.2681 -2.7297
 2588TIP3    H229256   5.958   0.398   1.599 -0.8651 -3.5489 -1.5469
 2589TIP3   OH229257   5.831   3.500   3.220 -0.3169 -0.2426  0.1266
 2589TIP3    H129258   5.779   3.576   3.192 -1.7037 -1.3268 -0.2488
 2589TIP3    H229259   5.905   3.539   3.267 -0.4195  1.4014 -1.0195
 2590TIP3   OH229260   2.572   0.742   4.791  0.0216 -0.0752  0.2600
 2590TIP3    H129261   2.588   0.727   4.884  0.5213  0.3673  0.2495
 2590TIP3    H229262   2.646   0.796   4.762 -0.8601  0.9935 -0.0658
 2591TIP3   OH229263   3.164   0.373  13.041  0.3256  0.1060 -0.2448
 2591TIP3    H129264   3.232   0.356  13.106 -0.7658 -0.0339  0.8773
 2591TIP3    H229265   3.187   0.317  12.967  0.9483 -0.5883  0.4719
 2592TIP3   OH229266   2.144   2.140   1.063 -0.1234  0.3101 -0.6640
 2592TIP3    H129267   2.100   2.071   1.013 -1.8351  0.3439  0.7410
 2592TIP3    H229268   2.074   2.200   1.088  0.7777  0.5909  1.2821
 2593TIP3   OH229269   6.242   2.336   5.250  0.0518  0.7450 -0.3110
 2593TIP3    H129270   6.291   2.278   5.191 -0.5930  1.3671 -1.4656
 2593TIP3    H229271   6.151   2.309   5.240  0.0876 -0.0767  1.4711
 2594TIP3   OH229272   4.959   1.179   2.187 -0.2274  0.3928 -0.8379
 2594TIP3    H129273   4.909   1.107   2.225  0.8590 -0.8534 -1.6977
 2594TIP3    H229274   5.030   1.135   2.138  0.7253  2.0588 -0.9792
 2595TIP3   OH229275   5.059   1.186  14.063  0.1728  0.4686  0.0917
 2595TIP3    H129276   5.065   1.118  14.130  1.7452 -0.4714 -0.9779
 2595TIP3    H229277   4.976   1.169  14.018  0.0424 -0.0637  0.5320
 2596TIP3   OH229278   0.408   1.588   3.045 -0.3469  0.0718  0.7996
 2596TIP3    H129279   0.314   1.572   3.056 -0.5692  1.3520  0.7659
 2596TIP3    H229280   0.414   1.658   2.980  0.5940  0.7410  1.5873
 2597TIP3   OH229281   1.562   3.590  12.606 -0.0236 -0.4232  0.2526
 2597TIP3    H129282   1.497   3.553  12.546 -1.1253  1.6299  0.1488
 2597TIP3    H229283   1.521   3.583  12.692 -1.3744  2.8394 -0.0519
 2598TIP3   OH229284   5.360   6.299  15.018 -0.0171 -0.2597  0.2881
 2598TIP3    H129285   5.279   6.328  14.977  0.0139  0.8726  0.9984
 2598TIP3    H229286   5.430   6.336  14.963  0.0141 -0.0759  0.4481
 2599TIP3   OH229287   3.758   6.803  11.905  0.2448 -0.1135 -0.6188
 2599TIP3    H129288   3.741   6.709  11.897  0.3944 -0.1570 -0.4298
 2599TIP3    H229289   3.813   6.824  11.829 -1.2472  0.1791 -1.6353
 2600TIP3   OH229290   3.264   3.223  16.482 -0.2812  0.3407 -0.0097
 2600TIP3    H129291   3.231   3.157  16.543  0.3805  0.5647  0.5999
 2600TIP3    H229292   3.195   3.290  16.479 -0.2507  0.4008  0.6114
 2601TIP3   OH229293   4.858   2.605  13.399 -0.2699  0.2198  0.0608
 2601TIP3    H129294   4.903   2.685  13.371 -2.5092  1.4453 -0.1445
 2601TIP3    H229295   4.910   2.572  13.473 -0.0718  2.6099  1.0200
 2602TIP3   OH229296   1.295   1.932  11.464 -0.0282  0.4160  0.8800
 2602TIP3    H129297   1.359   1.934  11.393  0.1503 -1.1350  0.9936
 2602TIP3    H229298   1.303   2.018  11.506  2.5994 -0.0895  1.4669
 2603TIP3   OH229299   0.378   3.921  15.893 -0.0401  0.0895 -0.1585
 2603TIP3    H129300   0.415   3.860  15.956 -0.3188 -1.3974 -1.4090
 2603TIP3    H229301   0.287   3.893  15.884 -0.1129  0.5657 -0.9021
 2604TIP3   OH229302   5.327   6.674  14.459 -0.8803  0.2117  0.1170
 2604TIP3    H129303   5.370   6.723  14.389 -2.9702  2.0969  0.0969
 2604TIP3    H229304   5.313   6.587  14.422  1.7017 -0.0481 -0.3179
 2605TIP3   OH229305   5.606   6.634   0.115  0.5834 -0.0113  0.4583
 2605TIP3    H129306   5.537   6.568   0.111  0.2339  0.3299  0.8918
 2605TIP3    H229307   5.592   6.679   0.198  1.3514  0.0363  0.5680
 2606TIP3   OH229308   6.444   5.342  15.665 -0.0338 -0.5809 -0.1661
 2606TIP3    H129309   6.477   5.391  15.741 -1.9337  1.5266 -0.6597
 2606TIP3    H229310   6.522   5.324  15.613  0.8966  0.6043  0.7721
 2607TIP3   OH229311   3.151   0.556   0.237  0.3203 -0.2180 -0.1079
 2607TIP3    H129312   3.092   0.595   0.303 -0.3238 -0.6985 -0.3961
 2607TIP3    H229313   3.200   0.631   0.203 -1.6329  0.5143 -1.3806
 2608TIP3   OH229314   1.695   0.870   5.882  0.0171  0.2530 -0.9216
 2608TIP3    H129315   1.728   0.959   5.894  2.3394 -0.6436 -0.3539
 2608TIP3    H229316   1.739   0.818   5.949 -0.2271 -1.5819 -2.1326
 2609TIP3   OH229317   5.669   2.385   1.630 -0.2484 -0.6197 -0.3163
 2609TIP3    H129318   5.698   2.369   1.540  2.1107 -2.6723  0.7659
 2609TIP3    H229319   5.699   2.474   1.649  0.9615 -0.8879 -0.9068
 2610TIP3   OH229320   1.204   2.265  16.661  0.2451 -0.3522  0.0935
 2610TIP3    H129321   1.125   2.231  16.617 -1.4866  1.1763  1.9364
 2610TIP3    H229322   1.190   2.360  16.665  0.9401 -0.3390  2.8189
 2611TIP3   OH229323   0.817   5.529  12.506  0.9513  0.0797 -0.0252
 2611TIP3    H129324   0.731   5.563  12.531  1.9393  1.8082  1.0673
 2611TIP3    H229325   0.864   5.605  12.473  2.3253 -0.7159  0.0725
 2612TIP3   OH229326   4.271   5.091  11.991  0.3764  0.0720 -0.5548
 2612TIP3    H129327   4.311   5.173  12.020 -0.7563 -0.0289  1.4066
 2612TIP3    H229328   4.212   5.117  11.920 -0.2810  1.0463  0.3177
 2613TIP3   OH229329   4.792   4.925  12.095  0.2424 -0.1379 -0.5742
 2613TIP3    H129330   4.707   4.952  12.130  0.5353  2.0251 -1.4758
 2613TIP3    H229331   4.836   5.007  12.072  2.4111 -1.2486 -0.5190
 2614TIP3   OH229332   0.847   4.519   2.887  0.2786 -0.0026  0.2234
 2614TIP3    H129333   0.779   4.452   2.887  1.1652 -0.9424 -2.0075
 2614TIP3    H229334   0.927   4.472   2.863  1.1158  1.6422 -0.2931
 2615TIP3   OH229335   5.556   5.220  11.753  0.3941 -0.2524 -0.6340
 2615TIP3    H129336   5.488   5.158  11.726  0.5445  0.2918 -2.3395
 2615TIP3    H229337   5.637   5.183  11.717  0.9725 -0.6772  1.0278
 2616TIP3   OH229338   5.656   3.975  11.948  0.2116  0.3329 -0.7415
 2616TIP3    H129339   5.717   3.948  11.879  0.3985 -1.1401 -0.0187
 2616TIP3    H229340   5.654   4.070  11.941  0.3989  0.2360 -2.6378
 2617TIP3   OH229341   3.396   5.126   2.586  0.0080  0.7620 -0.3295
 2617TIP3    H129342   3.317   5.072   2.591  0.8973 -0.5580 -0.1641
 2617TIP3    H229343   3.401   5.154   2.495  0.5734 -1.0429 -0.8690
 2618TIP3   OH229344   4.144   6.268  14.854  0.0009  0.6053 -0.5836
 2618TIP3    H129345   4.207   6.281  14.784  0.7573  2.0045  0.3308
 2618TIP3    H229346   4.058   6.269  14.811  0.5613 -1.2215 -1.8264
 2619TIP3   OH229347   2.745   3.001   5.017 -0.7891 -0.3749  0.1479
 2619TIP3    H129348   2.711   2.989   4.928  0.8450  1.2259 -0.7101
 2619TIP3    H229349   2.837   3.022   5.005 -0.8117  0.9732  2.1811
 2620TIP3   OH229350   1.594   4.613   0.128 -0.1686 -0.2698  0.5428
 2620TIP3    H129351   1.662   4.545   0.124  2.3274  2.2007 -1.5144
 2620TIP3    H229352   1.633   4.683   0.180 -1.0188  1.2985 -0.8723
 2621TIP3   OH229353   0.858   6.754  11.147  0.9472  0.0026 -0.3646
 2621TIP3    H129354   0.821   6.796  11.069 -0.3619  0.0952  0.2860
 2621TIP3    H229355   0.905   6.825  11.192  0.7377  0.2135 -0.4773
 2622TIP3   OH229356   1.127   4.040   0.809 -0.5817 -0.2467 -0.1354
 2622TIP3    H129357   1.086   3.965   0.851 -1.3052 -0.1127 -0.5929
 2622TIP3    H229358   1.061   4.072   0.747  0.2899 -0.1697 -1.0464
 2623TIP3   OH229359   0.728   6.007   3.971 -0.0519  0.1468  0.9157
 2623TIP3    H129360   0.769   5.972   3.892  1.9868  1.5184  1.3346
 2623TIP3    H229361   0.639   6.030   3.943  0.2528 -0.5034 -0.6711
 2624TIP3   OH229362   0.996   5.460   2.811 -0.2896 -0.2560  0.0304
 2624TIP3    H129363   1.075   5.470   2.864  0.5732  1.9498 -1.6115
 2624TIP3    H229364   0.991   5.366   2.792  2.7831 -0.2295 -1.0974
 2625TIP3   OH229365   3.002   3.794  10.834  0.0787  0.1743  0.0718
 2625TIP3    H129366   3.068   3.790  10.903 -0.8416 -0.0003  0.9516
 2625TIP3    H229367   3.000   3.706  10.797  0.1562  0.1153  0.2108
 2626TIP3   OH229368   4.098   0.458  13.855  0.1487 -0.5394  0.5785
 2626TIP3    H129369   4.171   0.490  13.907  0.6777 -0.5654 -0.1372
 2626TIP3    H229370   4.113   0.363  13.848  2.0823 -0.0714 -2.6373
 2627TIP3   OH229371   4.381   0.269  16.882 -0.3481 -0.5539 -0.0924
 2627TIP3    H129372   4.346   0.188  16.846 -1.9936 -0.0265  0.2854
 2627TIP3    H229373   4.476   0.263  16.867 -0.4608 -2.4882 -0.1367
 2628TIP3   OH229374   3.307   2.937   1.008  0.5606  0.3699  0.1487
 2628TIP3    H129375   3.271   2.865   0.956  0.9187  0.0122  0.3968
 2628TIP3    H229376   3.387   2.901   1.046  0.0165  0.4451  1.3980
 2629TIP3   OH229377   0.654   5.692  12.851  0.9038 -0.3377  0.6236
 2629TIP3    H129378   0.578   5.696  12.793 -0.0818 -0.5936  1.8735
 2629TIP3    H229379   0.638   5.615  12.906  2.8563 -1.3464 -0.1649
 2630TIP3   OH229380   6.774   2.806   6.026 -0.1789  0.6426  0.4786
 2630TIP3    H129381   6.698   2.771   6.072  0.8001 -1.3208  0.6601
 2630TIP3    H229382   6.805   2.733   5.972  1.8140  1.2595  0.7417
 2631TIP3   OH229383   0.318   1.881  13.013 -0.0299  0.4400  0.0514
 2631TIP3    H129384   0.233   1.837  13.004 -0.8630  2.4374 -2.2499
 2631TIP3    H229385   0.379   1.825  12.964 -0.2997 -0.2026  0.4421
 2632TIP3   OH229386   4.722   2.912  11.466  0.7881 -0.3930  0.0728
 2632TIP3    H129387   4.677   2.970  11.527 -1.2501  0.1291 -1.8502
 2632TIP3    H229388   4.771   2.971  11.409  2.2657 -0.8466  0.8481
 2633TIP3   OH229389   3.875   0.205  15.464 -0.1033  0.5730  0.7503
 2633TIP3    H129390   3.908   0.122  15.429  0.5222  1.1565 -0.0655
 2633TIP3    H229391   3.869   0.262  15.388  0.7460  1.6946  1.5069
 2634TIP3   OH229392   2.824   0.389   0.907 -0.6972  0.1393  0.0916
 2634TIP3    H129393   2.798   0.299   0.888 -0.2487  0.1573 -0.5917
 2634TIP3    H229394   2.904   0.403   0.857  1.2092 -0.2212  2.9021
 2635TIP3   OH229395   3.832   3.921   4.752 -0.3397 -0.6518 -0.9184
 2635TIP3    H129396   3.900   3.977   4.714  0.5210  0.2596  1.8693
 2635TIP3    H229397   3.775   3.980   4.800 -1.3847 -1.7769 -0.7440
 2636TIP3   OH229398   4.437   4.017   5.828  0.6536  0.0420 -0.3737
 2636TIP3    H129399   4.525   4.054   5.833  0.4706  0.5575 -0.9465
 2636TIP3    H229400   4.406   4.018   5.919  0.4035  1.9242 -0.4601
 2637TIP3   OH229401   4.187   3.945   3.046 -0.3460 -0.7371  0.3435
 2637TIP3    H129402   4.266   3.943   3.100  0.8391 -0.5263 -1.3572
 2637TIP3    H229403   4.218   3.971   2.959 -2.5907  1.6299  0.1838
 2638TIP3   OH229404   0.367   0.334  12.115 -0.3193 -0.2672  0.0476
 2638TIP3    H129405   0.360   0.317  12.209  3.1539  1.8869  0.7671
 2638TIP3    H229406   0.290   0.389  12.096 -0.4172  0.2615  1.8628
 2639TIP3   OH229407   4.902   4.263   3.089  0.0550 -0.3647  0.6052
 2639TIP3    H129408   4.908   4.357   3.104 -2.3783 -0.0283 -0.2687
 2639TIP3    H229409   4.811   4.242   3.109  0.6471 -2.6113  1.1113
 2640TIP3   OH229410   2.528   1.755  15.977 -0.6058  0.1762  0.7336
 2640TIP3    H129411   2.497   1.702  15.904 -0.0258 -1.1604  1.4255
 2640TIP3    H229412   2.509   1.845  15.952 -1.0890 -0.3199 -0.7252
 2641TIP3   OH229413   0.977   6.143  16.332 -0.4085 -0.0949 -0.2889
 2641TIP3    H129414   0.893   6.116  16.294  0.3702 -1.5594 -1.0100
 2641TIP3    H229415   1.041   6.128  16.262  0.5747  0.2357  0.5297
 2642TIP3   OH229416   2.100   5.838  11.140 -0.1642 -0.0264  0.8466
 2642TIP3    H129417   2.186   5.799  11.122  0.3298  1.7833 -0.8988
 2642TIP3    H229418   2.051   5.826  11.058 -1.1346  0.1214  1.3987
 2643TIP3   OH229419   5.824   2.962  16.168  0.4304 -0.0266 -0.1839
 2643TIP3    H129420   5.831   3.055  16.145  0.1286  0.3949  1.3368
 2643TIP3    H229421   5.807   2.918  16.085  0.6391  1.2739 -0.9383
 2644TIP3   OH229422   2.484   6.445  16.445  0.0498  0.2497 -0.0508
 2644TIP3    H129423   2.498   6.398  16.363  0.8968 -2.8771  1.8078
 2644TIP3    H229424   2.459   6.378  16.508 -0.3930  2.5491  2.3459
 2645TIP3   OH229425   0.545   1.006  16.409 -0.1074 -0.0995  0.3017
 2645TIP3    H129426   0.466   0.953  16.414 -0.2540  0.1207  0.3204
 2645TIP3    H229427   0.616   0.943  16.395 -0.1561 -0.3837  1.3472
 2646TIP3   OH229428   6.317   1.125   6.072  0.3712 -0.4231 -0.2557
 2646TIP3    H129429   6.226   1.150   6.056 -0.5337 -3.1299  0.3001
 2646TIP3    H229430   6.360   1.206   6.099 -2.1503  0.6696  0.6725
 2647TIP3   OH229431   3.848   1.656   1.282  0.0087  0.0479 -0.0869
 2647TIP3    H129432   3.913   1.642   1.213  1.3834 -0.2723  1.2425
 2647TIP3    H229433   3.897   1.701   1.351 -1.3953  0.5244  0.6144
 2648TIP3   OH229434   3.923   4.721   4.442  0.0761 -0.1887  0.8239
 2648TIP3    H129435   3.924   4.633   4.404 -0.9520 -0.8728  2.3424
 2648TIP3    H229436   3.880   4.711   4.527 -0.4632  1.8472  0.8411
 2649TIP3   OH229437   3.672   4.463  13.921 -0.3636  0.1051  0.5954
 2649TIP3    H129438   3.692   4.556  13.907  1.7919 -0.3520  0.5706
 2649TIP3    H229439   3.615   4.463  13.998 -0.6513  1.4760  0.4007
 2650TIP3   OH229440   4.557   6.818   4.731 -0.8151  0.2694 -0.3087
 2650TIP3    H129441   4.529   6.888   4.672 -0.4265  0.0675 -0.7414
 2650TIP3    H229442   4.533   6.737   4.686 -1.4474  0.1213  0.2839
 2651TIP3   OH229443   4.252   1.777   0.635  0.1066 -0.6749 -0.2400
 2651TIP3    H129444   4.340   1.743   0.625 -0.3760 -1.5985 -1.4639
 2651TIP3    H229445   4.239   1.832   0.557 -0.9210 -1.7192 -0.8153
 2652TIP3   OH229446   0.307   3.661  13.386 -0.4053  0.6742 -0.0631
 2652TIP3    H129447   0.401   3.664  13.365 -0.7479  0.0676 -1.8076
 2652TIP3    H229448   0.302   3.609  13.466  0.7454  0.5610 -0.0511
 2653TIP3   OH229449   1.102   0.686   2.710 -0.5037  0.7601  0.5687
 2653TIP3    H129450   1.176   0.732   2.751 -0.8093  0.2382  1.7165
 2653TIP3    H229451   1.111   0.706   2.616  0.8376  1.0673  0.7441
 2654TIP3   OH229452   5.941   3.707  13.355 -0.1104 -0.5083 -0.1777
 2654TIP3    H129453   5.986   3.791  13.353 -1.6782  0.3722  0.0955
 2654TIP3    H229454   6.001   3.645  13.313  0.3420  1.1063 -1.9507
 2655TIP3   OH229455   5.864   1.960  16.860 -0.4045 -0.3626 -0.1085
 2655TIP3    H129456   5.910   1.878  16.877 -0.2684 -0.2117  0.2515
 2655TIP3    H229457   5.804   1.940  16.788  1.7491 -0.0214 -2.0749
 2656TIP3   OH229458   5.387   5.447   1.057 -0.3112  0.1435 -0.2019
 2656TIP3    H129459   5.304   5.401   1.073 -0.3453  0.2652 -0.0294
 2656TIP3    H229460   5.412   5.420   0.968  0.7588 -1.8960  0.6656
 2657TIP3   OH229461   3.315   3.303  12.403  0.0275  0.1337  0.4408
 2657TIP3    H129462   3.237   3.275  12.451  0.8813 -1.0335  1.1745
 2657TIP3    H229463   3.365   3.356  12.465  0.0152  0.5496  0.1023
 2658TIP3   OH229464   3.514   0.002   5.306  0.1007  0.1995 -0.2276
 2658TIP3    H129465   3.458   0.016   5.230  1.1009  0.1795 -0.9838
 2658TIP3    H229466   3.506   0.083   5.357 -1.4045 -0.2090  0.2152
 2659TIP3   OH229467   0.400   1.694   0.566  0.3398  0.3212 -0.0471
 2659TIP3    H129468   0.363   1.611   0.536 -0.8005  0.7622  0.1368
 2659TIP3    H229469   0.366   1.759   0.506 -0.0025  0.8730  0.7426
 2660TIP3   OH229470   1.033   6.442   4.889  0.1302 -0.4388 -0.1498
 2660TIP3    H129471   1.080   6.517   4.852  0.2288  0.7011  2.2288
 2660TIP3    H229472   0.952   6.437   4.838  1.1616 -0.1546 -1.8462
 2661TIP3   OH229473   1.369   5.748  16.109  0.2494 -0.3218 -0.6059
 2661TIP3    H129474   1.391   5.661  16.075  0.8246 -2.0887  3.9314
 2661TIP3    H229475   1.274   5.747  16.120  0.1899 -0.1475 -1.0866
 2662TIP3   OH229476   1.860   0.542  17.149  0.5233  0.7021 -0.3691
 2662TIP3    H129477   1.829   0.488  17.076  0.5685  1.0673 -0.6616
 2662TIP3    H229478   1.781   0.581  17.186  0.3939 -0.3640  0.4842
 2663TIP3   OH229479   6.014   4.151  10.908 -0.1946 -0.1854  0.2079
 2663TIP3    H129480   6.011   4.058  10.886  0.2964  0.1091 -1.1348
 2663TIP3    H229481   6.045   4.193  10.828  1.2063  0.9543  1.3391
 2664TIP3   OH229482   0.163   6.606  16.097  0.2573 -0.0722 -0.1055
 2664TIP3    H129483   0.085   6.634  16.145  1.3258  0.0806  1.6014
 2664TIP3    H229484   0.144   6.517  16.068 -1.0552  0.4404 -0.8684
 2665TIP3   OH229485   3.077   3.141   4.446  0.4439 -0.1484  0.0853
 2665TIP3    H129486   3.050   3.103   4.530 -1.6082  0.2954 -0.3390
 2665TIP3    H229487   3.000   3.132   4.390  1.6111  0.0757 -1.5861
 2666TIP3   OH229488   0.711   4.895   4.423 -0.3512 -0.2564  0.0673
 2666TIP3    H129489   0.724   4.874   4.516  0.1271 -1.1016 -0.1847
 2666TIP3    H229490   0.744   4.985   4.414 -0.2085 -0.2454  0.6729
 2667TIP3   OH229491   3.644   3.317  11.291  0.0236 -0.0438 -0.0361
 2667TIP3    H129492   3.732   3.336  11.324  0.3581  0.8018 -1.3955
 2667TIP3    H229493   3.633   3.376  11.217 -1.3586 -0.7731 -0.4268
 2668TIP3   OH229494   2.708   5.649   5.902  0.4894 -0.0336 -0.0325
 2668TIP3    H129495   2.770   5.704   5.951 -0.6450 -0.0561  1.4638
 2668TIP3    H229496   2.674   5.708   5.834 -0.8146  1.2147  1.6388
 2669TIP3   OH229497   0.266   5.435  12.898 -0.1386  0.2007 -0.6148
 2669TIP3    H129498   0.261   5.454  12.992 -0.1977  0.3696 -0.6509
 2669TIP3    H229499   0.251   5.340  12.892 -1.8659  0.4447 -0.5779
 2670TIP3   OH229500   2.533   3.888   4.522 -0.0326  0.2001  0.1511
 2670TIP3    H129501   2.492   3.969   4.492 -0.3272  0.5273  1.4098
 2670TIP3    H229502   2.578   3.912   4.604  0.8868 -0.6359 -0.0911
 2671TIP3   OH229503   6.066   1.355   0.419 -0.3127 -0.2436 -0.0374
 2671TIP3    H129504   6.029   1.436   0.453  0.3396 -0.3544  0.9539
 2671TIP3    H229505   6.054   1.361   0.324 -0.1290  1.0802  0.0142
 2672TIP3   OH229506   2.286   4.015   6.313 -0.5513  0.3683 -0.1885
 2672TIP3    H129507   2.280   4.068   6.392 -0.0041 -0.3251  0.3198
 2672TIP3    H229508   2.379   4.019   6.288 -0.8971  1.3754 -1.3397
 2673TIP3   OH229509   0.399   5.603   4.380  0.1479 -0.5823  0.2374
 2673TIP3    H129510   0.307   5.591   4.357  0.2131 -1.0865  0.2490
 2673TIP3    H229511   0.397   5.665   4.453 -0.0900  0.5687 -0.7324
 2674TIP3   OH229512   6.209   5.938   6.070  0.0940  0.9353  0.9190
 2674TIP3    H129513   6.256   5.915   5.991 -0.4146 -1.5873  1.3114
 2674TIP3    H229514   6.275   5.975   6.128  1.4516 -1.7219  1.1236
 2675TIP3   OH229515   0.137   5.557   5.846 -0.2843  0.1391  0.1057
 2675TIP3    H129516   0.217   5.515   5.816 -0.5934 -1.1748  1.1184
 2675TIP3    H229517   0.150   5.570   5.940  0.1444  3.0626 -0.3110
 2676TIP3   OH229518   2.523   3.095   0.124  0.3061 -0.8603  0.5308
 2676TIP3    H129519   2.478   3.052   0.197 -0.5925  0.8008  0.9864
 2676TIP3    H229520   2.512   3.189   0.141  1.9911 -0.4378 -0.5770
 2677TIP3   OH229521   5.431   6.245  10.643  0.0917 -0.6144 -1.0403
 2677TIP3    H129522   5.524   6.269  10.639 -0.0819  0.2472 -0.0722
 2677TIP3    H229523   5.427   6.171  10.704  0.0860 -0.3460 -0.7138
 2678TIP3   OH229524   4.531   0.462   3.592  0.0565  0.2645  0.1874
 2678TIP3    H129525   4.441   0.450   3.562  0.5497 -1.0365 -0.7837
 2678TIP3    H229526   4.543   0.557   3.593 -0.9770  0.4110 -0.6878
 2679TIP3   OH229527   0.461   4.255  11.520 -0.0700  0.0763  0.5894
 2679TIP3    H129528   0.396   4.197  11.561  0.1949 -1.0212 -0.5001
 2679TIP3    H229529   0.499   4.304  11.592 -0.6184 -0.7977  1.4864
 2680TIP3   OH229530   0.824   0.186   0.940  0.0109  0.6749  0.0483
 2680TIP3    H129531   0.776   0.256   0.897  0.8391  1.8504  0.9941
 2680TIP3    H229532   0.877   0.147   0.871  0.1957  1.5434 -0.3064
 2681TIP3   OH229533   0.982   4.040   4.506  0.2542  0.4284 -0.2569
 2681TIP3    H129534   0.898   4.069   4.540 -0.5510  1.9110 -3.3135
 2681TIP3    H229535   0.962   3.960   4.457  1.1051 -0.6943  1.1678
 2682TIP3   OH229536   6.171   2.714   1.328 -0.0783  0.3232 -0.1009
 2682TIP3    H129537   6.096   2.655   1.337  0.5524 -0.5178 -0.2391
 2682TIP3    H229538   6.240   2.672   1.379  0.1231  1.4098  0.5294
 2683TIP3   OH229539   5.043   5.990  11.410 -0.5484  0.2107 -0.0744
 2683TIP3    H129540   5.064   6.032  11.494  0.7463  0.8033 -0.6807
 2683TIP3    H229541   5.125   5.948  11.384 -1.0258 -0.2026 -0.9077
 2684TIP3   OH229542   2.921   0.229   1.601 -0.2119 -0.2759 -0.7515
 2684TIP3    H129543   2.869   0.277   1.536 -1.8410  0.1557  0.8509
 2684TIP3    H229544   2.887   0.259   1.685  1.4165 -1.3601  0.3012
 2685TIP3   OH229545   4.357   5.085  10.278  0.3631 -0.4176 -0.0175
 2685TIP3    H129546   4.430   5.137  10.245  0.8503  0.3785  2.2458
 2685TIP3    H229547   4.386   4.994  10.269  2.6528 -0.0580  3.0459
 2686TIP3   OH229548   1.652   4.431   3.087 -0.1150 -0.7578  0.1481
 2686TIP3    H129549   1.617   4.517   3.063  1.8599 -0.4632 -1.8184
 2686TIP3    H229550   1.653   4.382   3.005  1.9015 -1.5217  0.6212
 2687TIP3   OH229551   3.749   0.083   4.890  0.4816  0.0588 -0.3386
 2687TIP3    H129552   3.683   0.013   4.892  1.5221 -1.0706 -3.1860
 2687TIP3    H229553   3.697   0.164   4.892 -0.8991 -0.7941 -0.5115
 2688TIP3   OH229554   5.260   3.923   4.427  0.3205 -0.2981  0.3379
 2688TIP3    H129555   5.186   3.954   4.479  0.7516  0.8434  0.2845
 2688TIP3    H229556   5.312   3.870   4.488 -0.3034 -0.7515  0.4852
 2689TIP3   OH229557   2.360   3.192   5.876  0.0486  0.2462  0.7529
 2689TIP3    H129558   2.312   3.202   5.958 -1.8859  1.4325 -0.4916
 2689TIP3    H229559   2.315   3.249   5.814  2.3590  0.4939 -0.7852
 2690TIP3   OH229560   5.077   2.472  12.577  0.4714  0.0350  0.0159
 2690TIP3    H129561   5.048   2.383  12.598  0.8481 -0.4341 -1.4308
 2690TIP3    H229562   4.997   2.523  12.571  0.0981 -0.7067 -1.4258
 2691TIP3   OH229563   4.870   4.645   5.021  0.2232 -0.2976  0.0125
 2691TIP3    H129564   4.933   4.716   5.030  0.3110 -0.4996  0.9944
 2691TIP3    H229565   4.792   4.676   5.068 -0.0453 -0.4957 -0.2940
 2692TIP3   OH229566   5.212   3.034   1.407  0.3067 -0.5400  0.2079
 2692TIP3    H129567   5.246   3.077   1.329  0.1334  0.7001  0.8186
 2692TIP3    H229568   5.145   2.974   1.374  1.6251 -1.5014 -0.7910
 2693TIP3   OH229569   6.470   1.987  16.201  0.1000  0.3571 -0.3357
 2693TIP3    H129570   6.478   1.923  16.130  1.8092 -0.3215  0.4330
 2693TIP3    H229571   6.407   2.051  16.168  0.6011 -0.1241 -2.3308
 2694TIP3   OH229572   1.586   4.567   1.376  0.2942 -0.3723 -0.4366
 2694TIP3    H129573   1.680   4.583   1.388  0.2008  0.7707 -1.1518
 2694TIP3    H229574   1.558   4.528   1.458  0.9317  1.4477  0.6669
 2695TIP3   OH229575   0.987   5.840   4.773  0.5808 -0.7625 -0.0108
 2695TIP3    H129576   1.000   5.928   4.808  0.1866 -0.5619 -0.3595
 2695TIP3    H229577   0.920   5.801   4.829  0.6942 -0.8087  0.0918
 2696TIP3   OH229578   1.538   6.477   5.660  0.2370 -0.1882 -0.0109
 2696TIP3    H129579   1.505   6.500   5.573 -1.0195 -1.0891  0.2188
 2696TIP3    H229580   1.460   6.455   5.710  1.0856 -1.1540  0.9005
 2697TIP3   OH229581   5.545   2.901  11.793  0.4579  0.2053 -0.2973
 2697TIP3    H129582   5.513   2.836  11.855  0.2707 -0.3029 -0.9209
 2697TIP3    H229583   5.625   2.862  11.758 -0.3806 -0.2986 -1.6762
 2698TIP3   OH229584   5.982   5.852  12.710 -0.0036  0.3049 -0.0363
 2698TIP3    H129585   6.015   5.806  12.788  1.0551 -1.5846 -1.5655
 2698TIP3    H229586   5.999   5.792  12.638 -1.8352  1.6436 -1.6261
 2699TIP3   OH229587   1.900   6.512  10.856  0.3256 -0.2635  0.0635
 2699TIP3    H129588   1.957   6.565  10.800 -0.3199  0.9551  0.5275
 2699TIP3    H229589   1.951   6.496  10.935 -0.6066  2.4129  1.2645
 2700TIP3   OH229590   1.219   6.333   1.513 -0.2255 -0.4027 -0.4968
 2700TIP3    H129591   1.292   6.340   1.451 -0.9805 -0.3317 -1.3769
 2700TIP3    H229592   1.257   6.287   1.588 -0.0432 -3.1448 -2.2042
 2701TIP3   OH229593   2.898   5.807   6.028 -0.4044 -0.2591  0.2783
 2701TIP3    H129594   2.956   5.848   6.092  0.1997 -1.2625  0.3803
 2701TIP3    H229595   2.869   5.879   5.972  2.4239 -0.0056 -0.9611
 2702TIP3   OH229596   1.656   1.730   1.111 -0.9049  0.6364 -0.4158
 2702TIP3    H129597   1.589   1.720   1.043 -0.1547 -1.3783 -0.8706
 2702TIP3    H229598   1.737   1.746   1.062 -0.5488  0.2579  0.0516
 2703TIP3   OH229599   1.289   1.356  14.590  0.4538  0.7517 -0.0757
 2703TIP3    H129600   1.324   1.271  14.616  2.8821  0.8439 -2.7296
 2703TIP3    H229601   1.278   1.404  14.672 -0.1938 -1.7982  1.4001
 2704TIP3   OH229602   5.862   5.015   5.078 -0.3428 -0.1145 -0.2938
 2704TIP3    H129603   5.884   5.062   5.159  1.0648 -0.7634 -0.2946
 2704TIP3    H229604   5.943   4.970   5.053 -1.4391 -1.8847 -0.7459
 2705TIP3   OH229605   2.770   4.015   2.588 -0.2753 -0.1944 -0.1884
 2705TIP3    H129606   2.865   4.008   2.594 -0.0989  2.3903  0.8816
 2705TIP3    H229607   2.755   4.091   2.531 -1.6973 -0.9376 -0.8273
 2706TIP3   OH229608   0.468   6.817   3.871  0.3012 -0.2595  0.1993
 2706TIP3    H129609   0.389   6.787   3.915  0.1017  0.5497  0.4017
 2706TIP3    H229610   0.540   6.782   3.923  0.0888 -1.6848 -0.4438
 2707TIP3   OH229611   2.040   0.093   4.357 -0.1260  0.1558  0.1195
 2707TIP3    H129612   2.068   0.009   4.322 -1.7228  0.0146 -0.8819
 2707TIP3    H229613   2.111   0.120   4.414  0.9328 -1.3155 -0.4652
 2708TIP3   OH229614   3.917   1.010  11.844 -0.5511  0.0324  0.1565
 2708TIP3    H129615   3.880   0.981  11.928 -0.6972 -0.8303 -0.2004
 2708TIP3    H229616   3.884   0.946  11.780 -3.2561  2.6040 -1.1293
 2709TIP3   OH229617   5.238   1.709   5.042  0.2407  0.0125  0.1571
 2709TIP3    H129618   5.301   1.669   4.982  0.4271 -0.2300  0.5074
 2709TIP3    H229619   5.194   1.776   4.991  0.4977 -0.0992 -0.2095
 2710TIP3   OH229620   3.728   2.473   2.134  0.2092 -0.2157  0.5101
 2710TIP3    H129621   3.821   2.488   2.148  0.5549  1.6018 -3.3133
 2710TIP3    H229622   3.685   2.548   2.175  0.3683 -1.1612  2.4580
 2711TIP3   OH229623   5.899   3.276  12.089 -0.5140 -0.1281  0.5180
 2711TIP3    H129624   5.861   3.191  12.115 -1.3886  0.6446  1.8661
 2711TIP3    H229625   5.952   3.302  12.164  0.2240  0.2458 -0.1311
 2712TIP3   OH229626   1.665   5.158   4.307 -0.4063  0.4859  0.0279
 2712TIP3    H129627   1.620   5.075   4.291 -0.6264  0.5261  0.4281
 2712TIP3    H229628   1.749   5.133   4.346  0.1263  0.3889 -1.1867
 2713TIP3   OH229629   5.751   1.172  12.424  0.4471 -0.1079 -0.0528
 2713TIP3    H129630   5.766   1.158  12.517  0.4367  2.4450  0.3738
 2713TIP3    H229631   5.835   1.201  12.390  0.7475 -2.1476 -1.0878
 2714TIP3   OH229632   5.883   6.390   5.815 -0.4217  0.1518 -0.0484
 2714TIP3    H129633   5.845   6.327   5.875 -0.6439  2.5322  2.4070
 2714TIP3    H229634   5.977   6.389   5.834 -0.3090 -0.0395 -0.6007
 2715TIP3   OH229635   0.462   4.412  15.518  0.0502 -0.1128  0.1875
 2715TIP3    H129636   0.454   4.334  15.573 -1.2381 -1.4953 -1.8722
 2715TIP3    H229637   0.555   4.416  15.496 -0.3735 -3.3418 -2.7441
 2716TIP3   OH229638   4.209   1.904   3.312 -0.4657  0.2026  0.1746
 2716TIP3    H129639   4.239   1.968   3.247 -1.4821  0.8080  0.2892
 2716TIP3    H229640   4.235   1.820   3.276 -0.8952  0.5405 -0.9626
 2717TIP3   OH229641   6.225   0.722   4.580 -0.0698  0.6296  0.4179
 2717TIP3    H129642   6.303   0.695   4.628 -0.0468 -0.4703 -0.2386
 2717TIP3    H229643   6.161   0.652   4.595 -0.8380  1.3682  0.6900
 2718TIP3   OH229644   0.399   1.787   1.493  0.2938  0.3175  0.0492
 2718TIP3    H129645   0.363   1.780   1.581  0.2551 -0.6548 -0.0395
 2718TIP3    H229646   0.492   1.763   1.503  0.2023 -0.1678 -0.2333
 2719TIP3   OH229647   1.451   1.571  14.374 -0.0758  0.6430  0.0582
 2719TIP3    H129648   1.379   1.605  14.428 -0.4714 -0.2649  0.1117
 2719TIP3    H229649   1.480   1.493  14.421 -2.4353 -1.9189 -2.5992
 2720TIP3   OH229650   1.862   3.931   3.047  0.1745  0.4257 -0.6874
 2720TIP3    H129651   1.889   3.859   2.991  0.1236 -0.2017  0.0832
 2720TIP3    H229652   1.897   3.909   3.134 -0.0861  1.1789 -0.3862
 2721TIP3   OH229653   0.073   4.313  12.744  0.4076 -0.1449 -0.2316
 2721TIP3    H129654   0.160   4.289  12.711 -0.2934 -1.8762 -0.8934
 2721TIP3    H229655   0.087   4.336  12.835  1.3564 -1.8954  0.0917
 2722TIP3   OH229656   1.615   2.523   4.237 -0.1070  0.0199  0.1928
 2722TIP3    H129657   1.606   2.491   4.327 -1.8570  0.7299  0.2857
 2722TIP3    H229658   1.532   2.500   4.195  0.7361 -0.3866 -1.2668
 2723TIP3   OH229659   4.788   2.832   0.238  0.3265 -0.2448  0.1198
 2723TIP3    H129660   4.836   2.821   0.320  2.3032  1.6075 -0.7039
 2723TIP3    H229661   4.696   2.822   0.261  0.9137 -0.5678  2.4023
 2724TIP3   OH229662   5.734   0.937   0.375  0.5244  0.2100  0.1045
 2724TIP3    H129663   5.775   0.937   0.288 -1.2726 -2.4284 -0.8071
 2724TIP3    H229664   5.764   1.019   0.415  1.6027  1.3708 -2.8923
 2725TIP3   OH229665   4.944   6.592  11.963 -0.1011 -0.8222 -0.0215
 2725TIP3    H129666   4.984   6.669  11.922 -0.2441 -0.7227  0.0263
 2725TIP3    H229667   4.873   6.627  12.016 -1.1200 -1.1008 -1.1638
 2726TIP3   OH229668   1.443   1.306  15.115 -0.0868  0.0956 -0.2563
 2726TIP3    H129669   1.527   1.271  15.084  1.3176  0.3591  3.0114
 2726TIP3    H229670   1.460   1.398  15.132 -2.0614  0.9928 -2.9203
 2727TIP3   OH229671   2.047   2.415  12.699 -0.0003  0.5648  0.0222
 2727TIP3    H129672   1.966   2.392  12.653 -0.4023  1.5118  0.2463
 2727TIP3    H229673   2.019   2.445  12.785  0.4925  1.8994 -0.2561
 2728TIP3   OH229674   5.474   4.452  17.082 -0.2396 -0.3923 -0.1857
 2728TIP3    H129675   5.528   4.373  17.090 -1.5169 -1.0627  2.1775
 2728TIP3    H229676   5.395   4.421  17.037 -0.9753 -0.6131  1.2230
 2729TIP3   OH229677   4.605   1.248   2.790 -0.4412 -0.4562 -0.4175
 2729TIP3    H129678   4.527   1.194   2.797  0.4050 -1.4657  1.5332
 2729TIP3    H229679   4.647   1.242   2.875  0.6100  1.8784 -0.7146
 2730TIP3   OH229680   3.451   1.211  10.698  0.0418  0.2552 -0.0038
 2730TIP3    H129681   3.508   1.186  10.625 -0.7178  0.8249 -0.8037
 2730TIP3    H229682   3.363   1.212  10.660 -0.4639 -0.2425  1.1269
 2731TIP3   OH229683   6.336   1.536   0.806  0.4270  0.8792 -0.0875
 2731TIP3    H129684   6.374   1.465   0.858 -3.5538 -1.3478 -0.0101
 2731TIP3    H229685   6.313   1.603   0.870 -0.8151 -0.1560  0.5812
 2732TIP3   OH229686   4.990   6.349   2.896  0.4368  0.0611 -0.0474
 2732TIP3    H129687   4.943   6.405   2.957 -2.5261  0.6429 -2.7777
 2732TIP3    H229688   4.979   6.261   2.932 -1.3849  0.3715  0.1789
 2733TIP3   OH229689   2.760   3.691   3.411  0.0167  0.3558 -0.4163
 2733TIP3    H129690   2.732   3.780   3.388 -2.3940 -0.6552 -1.5453
 2733TIP3    H229691   2.809   3.661   3.334  0.8686  0.7126 -0.0175
 2734TIP3   OH229692   6.223   5.604   5.914 -0.2612 -0.5139 -0.3264
 2734TIP3    H129693   6.139   5.617   5.959  0.4982  0.6325  0.8220
 2734TIP3    H229694   6.275   5.554   5.976  0.0531 -0.8379 -0.8550
 2735TIP3   OH229695   6.382   6.746  13.602 -0.1170 -0.2532 -0.2752
 2735TIP3    H129696   6.400   6.735  13.508 -1.1156  0.0501 -0.5209
 2735TIP3    H229697   6.311   6.811  13.604 -0.1746 -0.3475  0.6843
 2736TIP3   OH229698   0.099   1.153  13.743 -0.9006 -0.6574  0.1044
 2736TIP3    H129699   0.022   1.171  13.798 -0.2938  0.5434  0.5638
 2736TIP3    H229700   0.151   1.092  13.795  0.1183  1.1805  1.2776
 2737TIP3   OH229701   4.631   2.764   5.156 -0.6750 -0.2249 -0.4636
 2737TIP3    H129702   4.673   2.718   5.083 -0.6267 -1.3695  0.2666
 2737TIP3    H229703   4.538   2.761   5.136 -0.5411  0.8209 -1.2448
 2738TIP3   OH229704   1.605   2.143  13.415 -0.6280  0.4915 -0.4954
 2738TIP3    H129705   1.574   2.116  13.501  1.2553 -0.7303 -0.1907
 2738TIP3    H229706   1.574   2.233  13.406 -0.8615  0.6180  1.4340
 2739TIP3   OH229707   2.448   5.418  14.559  0.4769 -0.0241 -0.6552
 2739TIP3    H129708   2.385   5.397  14.489 -0.9298  0.5324  0.4179
 2739TIP3    H229709   2.450   5.339  14.614  0.1474  0.2317 -0.2736
 2740TIP3   OH229710   5.511   0.019  15.658  0.0182 -0.6192 -0.1054
 2740TIP3    H129711   5.557  -0.059  15.626 -0.5679 -1.2462  0.5408
 2740TIP3    H229712   5.484  -0.005  15.747 -1.5491 -0.2634 -0.4709
 2741TIP3   OH229713   6.302   1.449   0.157  0.0738 -0.1470 -0.2278
 2741TIP3    H129714   6.270   1.359   0.170 -0.7671  0.1301 -0.3613
 2741TIP3    H229715   6.371   1.459   0.223  0.7127 -1.1530 -0.7228
 2742TIP3   OH229716   1.983   3.191   3.147  0.0382  0.4059  0.0205
 2742TIP3    H129717   1.944   3.105   3.132  1.1984 -0.0727 -0.2897
 2742TIP3    H229718   2.044   3.203   3.075 -0.4211  1.6882 -0.1751
 2743TIP3   OH229719   1.180   1.006   4.969  0.0309 -0.3087  0.3397
 2743TIP3    H129720   1.139   1.067   5.031  0.6515 -0.8304  1.2795
 2743TIP3    H229721   1.191   0.925   5.019  0.1425 -0.8791 -0.5930
 2744TIP3   OH229722   0.267   3.308   2.542  0.4236  0.1118  0.6297
 2744TIP3    H129723   0.212   3.264   2.607  0.9660 -1.1693  0.2494
 2744TIP3    H229724   0.344   3.251   2.534  0.6865  0.6275 -0.6033
 2745TIP3   OH229725   3.618   0.001  16.841 -0.1768 -0.0322 -0.3558
 2745TIP3    H129726   3.550  -0.055  16.804  0.2515 -0.0838 -1.0639
 2745TIP3    H229727   3.679   0.016  16.769 -1.0208  2.5342 -0.5770
 2746TIP3   OH229728   2.948   2.663   2.715  0.4464  0.1730 -0.2660
 2746TIP3    H129729   2.998   2.724   2.661  0.7961  0.8096  0.7615
 2746TIP3    H229730   2.946   2.704   2.802  0.3259 -1.0788  0.3282
 2747TIP3   OH229731   4.072   5.142  16.432 -0.1049  0.1944 -0.2329
 2747TIP3    H129732   4.012   5.132  16.506  1.8593 -0.5111  1.3113
 2747TIP3    H229733   4.069   5.057  16.387  0.1507 -0.0410  0.1895
 2748TIP3   OH229734   5.579   5.269   1.548 -0.1391  0.1414  0.3987
 2748TIP3    H129735   5.649   5.249   1.485 -1.4400 -1.5784 -0.5642
 2748TIP3    H229736   5.539   5.349   1.515  1.3068  1.1203  0.9320
 2749TIP3   OH229737   0.016   4.522  15.294 -0.8226 -0.0066 -0.0076
 2749TIP3    H129738   0.044   4.571  15.217  0.7854  1.8309  1.6574
 2749TIP3    H229739   0.095   4.475  15.323 -1.0399  0.3732  1.2413
 2750TIP3   OH229740   3.742   1.598  12.658 -0.0233  0.1322 -0.2628
 2750TIP3    H129741   3.781   1.679  12.626  1.1818 -0.5742 -0.5929
 2750TIP3    H229742   3.749   1.537  12.585 -0.8456 -0.3100  0.0172
 2751TIP3   OH229743   4.498   0.410   3.884  0.0024  0.5035 -0.5348
 2751TIP3    H129744   4.429   0.450   3.936 -0.0084  0.6406 -0.6553
 2751TIP3    H229745   4.482   0.441   3.795  0.1648  0.4614 -0.5789
 2752TIP3   OH229746   5.540   2.292  14.976 -0.3970 -0.4194 -0.0529
 2752TIP3    H129747   5.515   2.365  14.921  0.3818 -0.4567 -0.4685
 2752TIP3    H229748   5.467   2.281  15.037 -1.5485 -0.7839 -1.4689
 2753TIP3   OH229749   4.636   4.073   5.493  0.2725 -0.0946 -0.8463
 2753TIP3    H129750   4.579   4.147   5.517  2.0636  0.4967  1.7669
 2753TIP3    H229751   4.575   4.001   5.477 -1.3287  0.9849  0.1658
 2754TIP3   OH229752   5.871   2.443   1.828 -0.0020  0.1537 -0.1712
 2754TIP3    H129753   5.789   2.406   1.794  0.5941 -1.2300 -0.1181
 2754TIP3    H229754   5.875   2.530   1.789 -1.5574  0.2816 -0.0949
 2755TIP3   OH229755   3.345   0.991  12.132  0.6643  0.4140  0.2966
 2755TIP3    H129756   3.350   1.086  12.142  0.7815  0.3076  1.2330
 2755TIP3    H229757   3.254   0.969  12.153  0.8220  0.2304  0.7794
 2756TIP3   OH229758   3.989   0.923   3.623  0.1691  0.1223  0.2376
 2756TIP3    H129759   4.004   1.017   3.624  1.5857 -0.0434 -1.6214
 2756TIP3    H229760   3.903   0.912   3.665  1.0726  1.9813  2.6737
 2757TIP3   OH229761   5.582   1.400  13.177 -0.3790 -0.4823 -0.2530
 2757TIP3    H129762   5.569   1.494  13.173  0.0287 -0.3433  1.4037
 2757TIP3    H229763   5.618   1.377  13.091  1.3892  1.1811  0.0166
 2758TIP3   OH229764   3.331   3.956  14.192 -0.1394 -0.0469  0.3797
 2758TIP3    H129765   3.272   3.984  14.261 -1.4437  1.9175 -1.4619
 2758TIP3    H229766   3.399   4.023  14.189  1.2580 -1.3942  1.3402
 2759TIP3   OH229767   6.754   0.747   3.682 -0.2478 -0.0778  0.0132
 2759TIP3    H129768   6.678   0.749   3.625  0.4258 -0.4057 -0.9005
 2759TIP3    H229769   6.788   0.658   3.676  0.0217 -0.0301  0.6730
 2760TIP3   OH229770   1.509   1.054   0.921 -0.0130  0.4669  0.0104
 2760TIP3    H129771   1.468   1.007   0.994  1.3573  0.8114  1.0238
 2760TIP3    H229772   1.449   1.127   0.904  0.1833  1.0117  1.5201
 2761TIP3   OH229773   3.286   6.205   2.371  0.0329 -0.1259  0.3752
 2761TIP3    H129774   3.324   6.213   2.284 -1.6392 -1.0746 -0.4865
 2761TIP3    H229775   3.359   6.217   2.431  0.9139  2.2824 -1.1107
 2762TIP3   OH229776   3.884   0.340  12.261 -0.7632  0.5380 -0.1307
 2762TIP3    H129777   3.918   0.295  12.339 -1.4148  1.0767  0.4615
 2762TIP3    H229778   3.835   0.272  12.214 -2.6612  0.8894  1.3174
 2763TIP3   OH229779   5.761   3.970   5.141 -0.6126 -0.3191  0.0627
 2763TIP3    H129780   5.821   3.923   5.082  0.1555 -1.4486  1.7219
 2763TIP3    H229781   5.810   4.047   5.168 -0.4296 -0.5373  0.3501
 2764TIP3   OH229782   3.916   6.686  15.644  0.9708  0.5068 -0.2158
 2764TIP3    H129783   3.829   6.648  15.653  0.4428  1.6809 -0.2591
 2764TIP3    H229784   3.928   6.698  15.550  2.3826 -2.3703 -0.4434
 2765TIP3   OH229785   0.742   1.375  16.830 -0.2917  0.2798  0.0244
 2765TIP3    H129786   0.714   1.287  16.805 -1.7276  0.2381  1.7028
 2765TIP3    H229787   0.747   1.373  16.926 -1.3105  2.3028  0.1537
 2766TIP3   OH229788   0.351   2.072  14.236  0.1640 -0.2316 -0.2710
 2766TIP3    H129789   0.337   2.079  14.330 -0.6135  2.4944 -0.5534
 2766TIP3    H229790   0.407   1.995  14.226  0.5991 -0.3160  2.4477
 2767TIP3   OH229791   3.958   0.911   5.427 -0.0398  0.2009  0.1554
 2767TIP3    H129792   3.915   0.982   5.473  0.7410  1.7998 -1.5246
 2767TIP3    H229793   3.985   0.850   5.497 -0.0775  1.8854  1.6724
 2768TIP3   OH229794   5.734   4.462  13.408  0.6291  0.5035 -0.0971
 2768TIP3    H129795   5.709   4.389  13.352  0.1864  0.4195  0.2085
 2768TIP3    H229796   5.654   4.484  13.456  1.5138 -0.7738  2.0446
 2769TIP3   OH229797   1.258   4.890  14.270  0.3512 -0.0104  0.3483
 2769TIP3    H129798   1.260   4.874  14.365 -0.3737 -0.2489  0.3223
 2769TIP3    H229799   1.314   4.822  14.233  0.6371  0.0838  0.6018
 2770TIP3   OH229800   4.116   5.388  12.652 -0.0864  0.7467  0.5202
 2770TIP3    H129801   4.183   5.366  12.588  0.5656 -1.2624  1.8434
 2770TIP3    H229802   4.033   5.367  12.608  0.3762 -0.9806  0.4407
 2771TIP3   OH229803   3.785   3.741   2.416  0.2551  0.2444  0.3322
 2771TIP3    H129804   3.696   3.762   2.387 -0.1209  1.0826  2.0079
 2771TIP3    H229805   3.772   3.692   2.497  1.3159 -0.1918  0.2365
 2772TIP3   OH229806   5.615   5.917  16.158  0.2939  0.3128 -0.5870
 2772TIP3    H129807   5.673   5.981  16.201 -0.4443  2.6060 -2.8417
 2772TIP3    H229808   5.669   5.877  16.091  0.2344 -0.1278 -0.3769
 2773TIP3   OH229809   4.563   6.041  12.181 -0.0606 -0.0997  0.3964
 2773TIP3    H129810   4.538   6.015  12.270 -1.6429 -1.2777 -0.3561
 2773TIP3    H229811   4.484   6.082  12.146  0.5306  0.2896 -0.4797
 2774TIP3   OH229812   6.263   4.015   3.155  0.1386 -0.1325  0.5465
 2774TIP3    H129813   6.320   4.088   3.128 -2.3396  1.7118  0.0901
 2774TIP3    H229814   6.286   3.943   3.096 -0.5846  1.7755 -2.1750
 2775TIP3   OH229815   6.638   0.999   6.714 -0.1024  0.0656  0.4166
 2775TIP3    H129816   6.659   1.092   6.703 -1.3406  0.3808  0.5703
 2775TIP3    H229817   6.593   0.995   6.799 -0.7906 -0.5350  0.0271
 2776TIP3   OH229818   4.068   1.585   5.337  0.0350 -0.0651 -0.7811
 2776TIP3    H129819   4.026   1.508   5.375 -1.0750  0.5242 -0.7896
 2776TIP3    H229820   4.161   1.573   5.355 -0.1380 -1.3699 -0.7179
 2777TIP3   OH229821   0.975   3.717   3.345 -0.1180 -0.6592  0.2379
 2777TIP3    H129822   1.007   3.649   3.286 -1.4170 -1.5262  0.4945
 2777TIP3    H229823   1.001   3.686   3.432 -1.7425 -1.4657  0.4653
 2778TIP3   OH229824   1.069   3.827   5.690 -0.0785 -0.5020 -1.0973
 2778TIP3    H129825   1.128   3.853   5.619  0.1615 -1.6432 -1.3150
 2778TIP3    H229826   0.996   3.784   5.646 -1.0259  0.7639 -0.8184
 2779TIP3   OH229827   2.332   2.943  12.975 -0.0230 -0.2175  0.1861
 2779TIP3    H129828   2.277   3.011  12.934  0.6048 -0.0502 -0.3920
 2779TIP3    H229829   2.361   2.983  13.057 -0.4670 -0.1651  0.3213
 2780TIP3   OH229830   6.771   2.627  10.527  0.4450 -0.2891  0.1514
 2780TIP3    H129831   6.844   2.689  10.523  1.4678 -1.3506  1.6245
 2780TIP3    H229832   6.698   2.678  10.564  0.6992  0.5283 -0.4541
 2781TIP3   OH229833   6.710   5.553   2.198 -0.4474 -0.5810 -0.0382
 2781TIP3    H129834   6.683   5.617   2.265  0.0619  0.7724 -1.1113
 2781TIP3    H229835   6.627   5.519   2.164 -0.7656  1.1440 -1.0128
 2782TIP3   OH229836   6.732   4.437  15.894  0.7515  0.1922  0.8787
 2782TIP3    H129837   6.813   4.482  15.871 -0.1951  1.4104 -0.1345
 2782TIP3    H229838   6.716   4.377  15.821  0.4181  0.3867  0.7942
 2783TIP3   OH229839   0.727   2.734  16.969 -0.5529 -0.0109 -0.3121
 2783TIP3    H129840   0.804   2.792  16.969 -1.1896  0.8498  0.5784
 2783TIP3    H229841   0.761   2.650  16.939  0.5965  0.5533 -0.6323
 2784TIP3   OH229842   4.759   0.505   0.192 -0.3212  0.6009 -0.5604
 2784TIP3    H129843   4.786   0.421   0.228 -1.3827  0.9354  1.0689
 2784TIP3    H229844   4.828   0.528   0.130  1.7171  0.1376  1.4707
 2785TIP3   OH229845   6.367   0.924   1.394  0.4976  0.4263 -0.5769
 2785TIP3    H129846   6.273   0.943   1.387  0.3629 -0.9709 -3.3119
 2785TIP3    H229847   6.378   0.891   1.483 -1.4197  1.5220  0.1111
 2786TIP3   OH229848   0.680   1.346  14.915  0.2213  0.0251  0.1559
 2786TIP3    H129849   0.621   1.285  14.959 -0.4852 -1.0233 -2.1859
 2786TIP3    H229850   0.624   1.395  14.855  1.4337  0.1853 -0.8761
 2787TIP3   OH229851   0.074   5.142   0.573  0.2587  0.3305  0.1763
 2787TIP3    H129852   0.035   5.140   0.661 -0.2030  0.7010 -0.0216
 2787TIP3    H229853   0.058   5.230   0.541  2.2525  0.8474  0.5278
 2788TIP3   OH229854   2.641   0.924   3.315 -0.0573  0.2135  0.1821
 2788TIP3    H129855   2.614   0.868   3.242  0.1953 -1.7080  1.5283
 2788TIP3    H229856   2.680   0.864   3.379  0.3144  1.9376  1.6274
 2789TIP3   OH229857   2.295   2.356   4.933  0.6643 -0.7343 -1.1980
 2789TIP3    H129858   2.285   2.430   4.874 -1.7725 -0.4093 -0.4125
 2789TIP3    H229859   2.324   2.284   4.877  2.0129  0.5189 -2.1441
 2790TIP3   OH229860   2.310   3.070  13.221  0.5121  0.0278 -0.8250
 2790TIP3    H129861   2.218   3.096  13.210 -0.2953 -2.4272 -0.0890
 2790TIP3    H229862   2.339   3.118  13.299  0.0816  1.3384 -1.4511
 2791TIP3   OH229863   2.413   4.330   3.442  0.0764  0.3177  0.9574
 2791TIP3    H129864   2.363   4.251   3.461  0.1632 -0.6448 -2.4657
 2791TIP3    H229865   2.459   4.310   3.361  1.1175  3.4427  0.7075
 2792TIP3   OH229866   6.598   0.670   2.658  0.2300  0.7939  0.7035
 2792TIP3    H129867   6.676   0.626   2.692  0.4686 -0.8778 -1.8701
 2792TIP3    H229868   6.524   0.621   2.695  0.4755 -0.2013 -0.0960
 2793TIP3   OH229869   3.673   1.426   2.230 -0.0249  0.0740  0.0753
 2793TIP3    H129870   3.585   1.422   2.266  0.0082  0.7322  0.2376
 2793TIP3    H229871   3.676   1.508   2.181 -0.0806 -0.8388 -1.4992
 2794TIP3   OH229872   3.042   4.062   3.606 -0.2423  0.1791  0.1129
 2794TIP3    H129873   3.016   3.997   3.672  0.7094 -0.3519 -0.0339
 2794TIP3    H229874   3.079   4.010   3.535  2.1634  0.9928  0.7551
 2795TIP3   OH229875   1.625   4.821   3.944  0.8566 -0.0179  0.2849
 2795TIP3    H129876   1.634   4.726   3.941  2.4727  0.0875  1.2665
 2795TIP3    H229877   1.713   4.853   3.962  0.2185  1.6442  0.5336
 2796TIP3   OH229878   2.852   5.312   5.132 -0.0482 -0.4900  0.3851
 2796TIP3    H129879   2.920   5.341   5.071  0.6099 -0.1192  1.2751
 2796TIP3    H229880   2.892   5.240   5.180 -2.0084 -3.6081 -2.4732
 2797TIP3   OH229881   4.551   3.789   2.248  0.5111  0.0851 -0.1171
 2797TIP3    H129882   4.465   3.823   2.275  0.5094  0.1951 -0.2575
 2797TIP3    H229883   4.531   3.717   2.189  0.5149 -0.0078 -0.0043
 2798TIP3   OH229884   3.055   3.454   4.458  0.0036  0.1770 -0.0292
 2798TIP3    H129885   3.037   3.362   4.437 -0.5215  0.0070  1.0858
 2798TIP3    H229886   3.020   3.503   4.384  2.5631 -0.6424 -1.8391
 2799TIP3   OH229887   0.909   6.771  13.928  0.0105 -0.1957 -0.2123
 2799TIP3    H129888   0.884   6.696  13.873 -0.3668  0.0442 -0.3697
 2799TIP3    H229889   1.004   6.775  13.921  0.1786 -1.5786  0.9872
 2800TIP3   OH229890   0.870   0.085   1.352  0.3457  0.2890 -0.4726
 2800TIP3    H129891   0.881   0.069   1.446 -0.6036  1.3297 -0.1782
 2800TIP3    H229892   0.788   0.041   1.330  0.6800 -0.1389 -0.8625
 2801TIP3   OH229893   3.148   5.023  16.287 -0.1120 -0.4251 -0.0156
 2801TIP3    H129894   3.082   5.081  16.326  0.5635  1.0996 -1.1068
 2801TIP3    H229895   3.229   5.044  16.335  0.2083 -0.1929 -0.6483
 2802TIP3   OH229896   0.943   1.925  13.645 -0.0703 -0.3019  0.2939
 2802TIP3    H129897   0.909   2.013  13.629 -0.2197  0.5955  4.8394
 2802TIP3    H229898   1.038   1.937  13.648  0.1119 -0.9269 -2.2419
 2803TIP3   OH229899   4.890   2.757   5.249 -0.0054 -0.7374 -0.0133
 2803TIP3    H129900   4.815   2.722   5.200 -1.3715  1.3025  0.5392
 2803TIP3    H229901   4.886   2.713   5.334 -1.9224  0.9091  0.8072
 2804TIP3   OH229902   3.718   0.735  16.393 -0.2670 -0.4601 -0.0025
 2804TIP3    H129903   3.690   0.696  16.310 -0.2744  1.3622 -0.8934
 2804TIP3    H229904   3.791   0.792  16.369 -0.5652  0.4479  1.1711
 2805TIP3   OH229905   2.703   1.335   2.325 -0.0629 -0.0036  0.4518
 2805TIP3    H129906   2.639   1.315   2.393  0.6081  0.0400  1.0956
 2805TIP3    H229907   2.779   1.368   2.372  0.8882 -1.2089 -0.2322
 2806TIP3   OH229908   4.690   1.276  16.347  0.4325  0.0638  0.1169
 2806TIP3    H129909   4.710   1.207  16.411  0.2529 -0.2022 -0.1158
 2806TIP3    H229910   4.706   1.358  16.395  0.9113 -0.1381  0.3076
 2807TIP3   OH229911   3.182   4.361  12.090 -0.1127 -0.5354  0.6695
 2807TIP3    H129912   3.139   4.417  12.025 -1.4924  0.0545  2.0572
 2807TIP3    H229913   3.192   4.277  12.046 -2.0929 -0.4838  0.0599
 2808TIP3   OH229914   3.551   2.757   0.122 -0.1343 -0.1315 -0.3230
 2808TIP3    H129915   3.608   2.821   0.080 -0.0892  0.7362  1.0342
 2808TIP3    H229916   3.470   2.805   0.140 -0.3735 -0.6666  0.0442
 2809TIP3   OH229917   5.867   2.437  12.210 -0.2087  0.0438 -0.0455
 2809TIP3    H129918   5.954   2.447  12.172 -1.2240 -1.0868 -2.7716
 2809TIP3    H229919   5.878   2.368  12.277  1.1540  0.5530  0.2688
 2810TIP3   OH229920   2.686   1.099   2.689  0.1390 -0.1623  0.1846
 2810TIP3    H129921   2.647   1.103   2.776  0.7623 -1.5423  0.5476
 2810TIP3    H229922   2.655   1.016   2.653  2.1855 -0.9701  0.2199
 2811TIP3   OH229923   5.137   4.784   1.287  0.2775 -0.6567 -1.1299
 2811TIP3    H129924   5.163   4.752   1.201 -0.3459 -1.7587 -0.9179
 2811TIP3    H229925   5.074   4.720   1.319  0.5799 -0.3237  0.1945
 2812TIP3   OH229926   2.262   6.796  14.102 -0.7495  0.2379  0.0034
 2812TIP3    H129927   2.221   6.850  14.170 -2.4935  1.3134 -1.8362
 2812TIP3    H229928   2.339   6.847  14.074 -0.8449  0.4738  0.1722
 2813TIP3   OH229929   4.951   3.206  13.291  0.1915  0.1373 -0.6799
 2813TIP3    H129930   5.018   3.188  13.357 -0.9780 -0.6157  0.3275
 2813TIP3    H229931   4.868   3.196  13.338 -0.6421  0.4761 -2.0527
 2814TIP3   OH229932   1.923   5.924   4.758 -0.2423  0.2640  0.0020
 2814TIP3    H129933   1.906   6.008   4.716 -0.7600  0.3548  0.3759
 2814TIP3    H229934   1.840   5.903   4.802  0.4493  0.4571  1.4466
 2815TIP3   OH229935   4.996   3.253   0.313  0.1101 -0.5041  0.1014
 2815TIP3    H129936   4.929   3.229   0.250 -0.0005 -0.4149  0.1857
 2815TIP3    H229937   5.079   3.235   0.268  0.0285 -2.0000  0.5142
 2816TIP3   OH229938   0.270   1.391   2.432  0.0559 -0.5079 -0.7715
 2816TIP3    H129939   0.311   1.379   2.517 -0.3749 -1.2784 -0.6654
 2816TIP3    H229940   0.211   1.465   2.444  0.5425 -0.1430 -0.6069
 2817TIP3   OH229941   1.793   4.927  10.768  0.5027  0.3402  0.1246
 2817TIP3    H129942   1.745   4.945  10.688  0.5521  0.8660  0.2123
 2817TIP3    H229943   1.732   4.875  10.821 -0.4358  2.0244  0.7348
 2818TIP3   OH229944   4.924   6.567   2.709 -0.1513  0.2768  0.1334
 2818TIP3    H129945   4.879   6.517   2.777  1.2678 -0.3221  0.6502
 2818TIP3    H229946   4.985   6.504   2.670  0.3049  1.0950 -0.4890
 2819TIP3   OH229947   4.159   2.443   2.408 -0.1886  0.2648  0.0908
 2819TIP3    H129948   4.206   2.445   2.325 -0.1238 -1.4050  0.0696
 2819TIP3    H229949   4.181   2.526   2.451  1.6991  0.0907 -0.5061
 2820TIP3   OH229950   4.251   3.061   1.373 -0.4066  0.2544 -0.3204
 2820TIP3    H129951   4.293   2.976   1.380  0.4417  0.7389  0.7064
 2820TIP3    H229952   4.297   3.104   1.301 -0.6521 -0.0582 -0.6618
 2821TIP3   OH229953   3.177   0.879   5.258  0.2682  0.1192  0.2361
 2821TIP3    H129954   3.169   0.883   5.354  0.6923 -0.3854  0.3007
 2821TIP3    H229955   3.088   0.866   5.227  0.3243 -1.4680  0.6811
 2822TIP3   OH229956   3.299   2.828  13.550  0.4411 -0.9641 -0.2874
 2822TIP3    H129957   3.281   2.915  13.515 -0.3163 -0.8075  0.4550
 2822TIP3    H229958   3.215   2.800  13.588  1.0859 -1.3279  0.9094
 2823TIP3   OH229959   2.955   3.234  11.699 -0.1959  0.0813 -0.5966
 2823TIP3    H129960   2.871   3.268  11.731  0.1145  1.0532 -0.8230
 2823TIP3    H229961   3.004   3.311  11.671  0.7010 -0.5016 -0.6583
 2824TIP3   OH229962   6.692   5.642   0.956  0.5766  1.0298 -0.3305
 2824TIP3    H129963   6.771   5.671   1.002  1.2803 -2.9114  1.1639
 2824TIP3    H229964   6.620   5.688   1.000  1.7383  1.8073  0.7744
 2825TIP3   OH229965   4.718   0.607   3.967  0.0913  0.0795 -0.4872
 2825TIP3    H129966   4.670   0.541   3.917  1.4992 -0.3743 -1.2733
 2825TIP3    H229967   4.747   0.670   3.901  1.0552  0.0407 -0.1049
 2826TIP3   OH229968   3.014   1.194   4.048 -0.0935 -0.2911 -0.1043
 2826TIP3    H129969   3.024   1.118   4.106  0.5958  0.7725  1.2150
 2826TIP3    H229970   2.920   1.212   4.049  0.0613  0.5924  1.8919
 2827TIP3   OH229971   4.077   6.312  15.624 -0.5650  0.7343  0.6873
 2827TIP3    H129972   4.097   6.374  15.554 -0.6284  0.3297  0.3073
 2827TIP3    H229973   4.162   6.289  15.662 -0.4656  0.3741  0.2452
 2828TIP3   OH229974   3.527   0.351  13.090 -0.5096  0.7284  0.5430
 2828TIP3    H129975   3.612   0.342  13.046 -0.1141  0.5388  1.3411
 2828TIP3    H229976   3.499   0.261  13.107 -0.5835  0.8048  0.8288
 2829TIP3   OH229977   3.426   2.014   3.474  0.5575  0.8670  0.2337
 2829TIP3    H129978   3.464   1.937   3.516  1.2850  1.3812  0.5263
 2829TIP3    H229979   3.348   2.034   3.526 -0.2234 -0.2938 -0.4738
 2830TIP3   OH229980   2.801   5.579  16.747  0.1519 -0.1275 -0.2190
 2830TIP3    H129981   2.798   5.567  16.842  0.3331 -1.5001 -0.3846
 2830TIP3    H229982   2.710   5.581  16.720  0.1239 -1.7967 -0.2694
 2831TIP3   OH229983   1.690   5.256  14.173  0.1835  0.2764 -0.0976
 2831TIP3    H129984   1.712   5.278  14.264 -0.4451  2.0907 -0.3781
 2831TIP3    H229985   1.634   5.179  14.180 -2.1662  2.0369  1.2485
 2832TIP3   OH229986   5.529   3.878   6.148 -0.0569 -0.2273 -0.2349
 2832TIP3    H129987   5.522   3.797   6.097 -0.5934  0.3400 -1.0771
 2832TIP3    H229988   5.448   3.883   6.198 -0.4409  0.2585 -0.8957
 2833TIP3   OH229989   6.068   3.148   2.689  0.4201  0.4132  0.0703
 2833TIP3    H129990   6.157   3.113   2.689  0.3536  0.2426  0.2691
 2833TIP3    H229991   6.015   3.076   2.723  0.1296  0.3147 -0.5818
 2834TIP3   OH229992   4.386   2.839  15.653 -0.1040  0.6308  0.1581
 2834TIP3    H129993   4.309   2.896  15.649 -0.3007  0.5016  1.5822
 2834TIP3    H229994   4.440   2.865  15.579 -1.4132  0.8899 -0.7066
 2835TIP3   OH229995   6.493   2.506  16.818 -0.0660 -0.5470 -0.0581
 2835TIP3    H129996   6.499   2.472  16.908 -1.7950  0.9894  0.6746
 2835TIP3    H229997   6.415   2.464  16.782  0.9729 -1.6347 -1.0798
 2836TIP3   OH229998   0.231   3.024  13.924 -0.5075  0.0669 -0.0696
 2836TIP3    H129999   0.203   3.076  13.849 -0.9937  0.2411  0.2282
 2836TIP3    H230000   0.150   3.006  13.973 -0.1966 -0.0452  0.4121
 2837TIP3   OH230001   0.534   2.825   4.446 -0.7517 -0.0974  0.5435
 2837TIP3    H130002   0.594   2.750   4.448  0.2203  0.6649  0.3871
 2837TIP3    H230003   0.451   2.790   4.477 -0.3827 -1.3126  0.1910
 2838TIP3   OH230004   3.874   6.552  14.070  0.2930  0.1901  0.2999
 2838TIP3    H130005   3.833   6.635  14.095  0.3464  1.0942 -2.4320
 2838TIP3    H230006   3.819   6.518  13.999  0.8414 -1.6420  0.7123
 2839TIP3   OH230007   1.672   1.287  12.621  0.3646 -0.1247 -0.3206
 2839TIP3    H130008   1.744   1.266  12.680  0.8442 -0.2440 -0.9394
 2839TIP3    H230009   1.713   1.333  12.548 -0.3962  1.1541  0.0374
 2840TIP3   OH230010   0.467   2.749  11.743  0.1236 -0.1687 -0.0670
 2840TIP3    H130011   0.394   2.794  11.786  0.8960  0.9474  0.0921
 2840TIP3    H230012   0.436   2.660  11.730 -0.7473 -0.0688  1.2779
 2841TIP3   OH230013   6.319   2.473  17.145  0.0143 -0.1287  0.4529
 2841TIP3    H130014   6.294   2.413  17.216  1.0349 -1.5320 -0.3574
 2841TIP3    H230015   6.413   2.459  17.133 -0.2469 -0.3212 -1.5548
 2842TIP3   OH230016   5.268   3.950   1.454 -0.0093  0.1054  0.1060
 2842TIP3    H130017   5.174   3.968   1.461 -0.3960  1.2626 -5.4966
 2842TIP3    H230018   5.310   4.028   1.491 -1.2462  0.2970  1.1553
 2843TIP3   OH230019   1.853   2.450  15.349  0.1723 -0.3824 -0.0095
 2843TIP3    H130020   1.784   2.399  15.306 -0.5606  0.4496  0.1418
 2843TIP3    H230021   1.931   2.396  15.343 -0.9867 -2.3131  1.7602
 2844TIP3   OH230022   6.367   0.253  14.323  0.6732  0.0355 -0.0088
 2844TIP3    H130023   6.350   0.161  14.343  2.0475 -0.1063  0.5909
 2844TIP3    H230024   6.281   0.291  14.311  0.0637 -1.2172  0.2604
 2845TIP3   OH230025   5.961   3.199  16.803 -0.3241 -0.0508  0.6313
 2845TIP3    H130026   5.866   3.199  16.816 -0.4354 -0.1182 -0.1643
 2845TIP3    H230027   5.993   3.136  16.867 -1.0141 -1.5173 -0.4441
 2846TIP3   OH230028   3.591   4.837  15.528 -0.3496  0.0623 -0.1075
 2846TIP3    H130029   3.508   4.838  15.577  0.8536 -0.8678  2.0334
 2846TIP3    H230030   3.600   4.747  15.498 -0.4069  0.3147 -0.8992
 2847TIP3   OH230031   1.026   4.977  12.850 -0.4107  0.0216  0.5978
 2847TIP3    H130032   1.109   5.024  12.838 -2.2117  2.8934 -1.1556
 2847TIP3    H230033   0.986   5.017  12.927 -1.8116  1.1857 -0.7162
 2848TIP3   OH230034   5.207   4.771   4.177  0.2074 -0.0565 -0.1722
 2848TIP3    H130035   5.293   4.730   4.187  0.2163 -0.3083 -1.1738
 2848TIP3    H230036   5.187   4.760   4.084 -0.3540  1.1142 -0.1899
 2849TIP3   OH230037   1.067   5.274   3.975  0.3146 -0.0763 -0.0930
 2849TIP3    H130038   1.085   5.312   4.060 -1.0818 -1.7971  1.0171
 2849TIP3    H230039   1.152   5.266   3.932  0.9292  1.5201  0.8203
 2850TIP3   OH230040   4.043   0.021  11.774  0.2462 -0.3517  0.0035
 2850TIP3    H130041   4.074   0.086  11.711  2.4040 -0.0435  1.3517
 2850TIP3    H230042   3.982  -0.033  11.723  0.8647  0.7441 -1.9789
 2851TIP3   OH230043   1.971   1.304   4.200 -0.0990  0.4964 -0.0945
 2851TIP3    H130044   2.059   1.289   4.234  0.7821  0.6261 -2.2169
 2851TIP3    H230045   1.979   1.385   4.149 -1.7425  1.1702  0.6729
 2852TIP3   OH230046   1.134   3.382  14.794 -0.6746  0.4297 -0.1554
 2852TIP3    H130047   1.166   3.300  14.757 -1.7487 -0.0227 -0.1217
 2852TIP3    H230048   1.148   3.447  14.725 -2.4319 -0.3651 -1.3093
 2853TIP3   OH230049   2.860   1.029  11.428  0.2098  0.2125  0.2856
 2853TIP3    H130050   2.901   0.953  11.470  0.8176  0.5445  0.2958
 2853TIP3    H230051   2.777   0.995  11.393  0.8840 -0.6826 -0.4927
 2854TIP3   OH230052   1.597   6.470   1.112 -0.2459 -0.8926 -0.0960
 2854TIP3    H130053   1.645   6.426   1.182  0.8658 -0.0888 -0.3394
 2854TIP3    H230054   1.510   6.483   1.147  0.8478  1.2795  1.8955
 2855TIP3   OH230055   5.313   6.647  17.039 -0.4702  0.2141  0.3376
 2855TIP3    H130056   5.408   6.656  17.031 -0.4390 -0.1873  0.2731
 2855TIP3    H230057   5.278   6.688  16.960 -0.2469 -2.0300 -0.9658
 2856TIP3   OH230058   1.869   6.551  16.541 -0.0170  0.0958  0.8769
 2856TIP3    H130059   1.869   6.461  16.575  1.2343  0.2090  1.1845
 2856TIP3    H230060   1.847   6.542  16.449  1.7532 -0.6807  0.5119
 2857TIP3   OH230061   5.461   4.304  11.765  0.3688 -0.0918 -0.0096
 2857TIP3    H130062   5.502   4.381  11.724 -1.5008  0.6120 -0.6038
 2857TIP3    H230063   5.384   4.287  11.712 -1.1384 -0.2579  2.1492
 2858TIP3   OH230064   5.164   4.052   6.071  0.0735 -0.3024 -0.1190
 2858TIP3    H130065   5.101   3.995   6.026 -1.0419 -1.4206  2.6729
 2858TIP3    H230066   5.118   4.134   6.083  0.3088 -0.0618 -0.8488
 2859TIP3   OH230067   6.624   6.648  15.713  0.0706  0.0198  0.6010
 2859TIP3    H130068   6.617   6.613  15.801  2.2432  2.2325  1.7223
 2859TIP3    H230069   6.595   6.739  15.721  2.1719  0.8286 -0.5112
 2860TIP3   OH230070   5.657   1.330   0.882 -0.5522 -0.5738 -0.2323
 2860TIP3    H130071   5.684   1.413   0.842 -0.5335 -0.4037  0.1337
 2860TIP3    H230072   5.714   1.320   0.958 -1.4692 -0.2454  0.5114
 2861TIP3   OH230073   0.131   2.348  16.074 -0.4566 -0.7444 -0.2481
 2861TIP3    H130074   0.143   2.346  15.979 -2.0369 -0.4932 -0.4655
 2861TIP3    H230075   0.055   2.405  16.087  1.0046  0.8939  1.2963
 2862TIP3   OH230076   1.183   1.754   4.928 -0.0693 -0.2804 -0.1877
 2862TIP3    H130077   1.163   1.767   5.021 -0.6840  0.4053 -0.4135
 2862TIP3    H230078   1.121   1.687   4.899 -0.1999 -0.1494 -0.2146
 2863TIP3   OH230079   5.445   2.523  15.811  0.1880  0.1410  0.7912
 2863TIP3    H130080   5.487   2.527  15.897  1.8488 -1.4938  0.0756
 2863TIP3    H230081   5.433   2.430  15.794  0.1945  0.4333 -0.9012
 2864TIP3   OH230082   5.752   5.676  16.927  0.2489 -0.4683 -0.1077
 2864TIP3    H130083   5.706   5.702  17.006  2.3372 -1.1133  1.3590
 2864TIP3    H230084   5.809   5.750  16.907  0.0438 -0.4865 -0.7809
 2865TIP3   OH230085   3.413   3.538  15.311 -0.4181  0.1417 -0.0560
 2865TIP3    H130086   3.501   3.503  15.327 -0.9669 -0.3734  1.9336
 2865TIP3    H230087   3.366   3.466  15.269 -0.5427 -0.3427  0.9113
 2866TIP3   OH230088   5.537   3.908  12.192  0.4880  0.1565 -0.2469
 2866TIP3    H130089   5.570   3.904  12.103 -1.0583  0.2736 -0.8429
 2866TIP3    H230090   5.513   3.818  12.214 -0.6926  0.3976 -0.5545
 2867TIP3   OH230091   2.991   0.079  14.824  0.2889  0.1178 -0.3727
 2867TIP3    H130092   2.927   0.028  14.774  1.0427  0.1113 -1.3404
 2867TIP3    H230093   2.958   0.076  14.914 -1.4771  0.7501 -0.9732
 2868TIP3   OH230094   3.884   4.954   0.383  0.3190 -0.1909  0.3117
 2868TIP3    H130095   3.801   4.928   0.342  0.0673  1.2879 -0.1554
 2868TIP3    H230096   3.941   4.879   0.370 -0.7365 -0.9583  0.0086
 2869TIP3   OH230097   0.713   5.353  14.222 -0.1536 -0.2097 -0.3441
 2869TIP3    H130098   0.785   5.295  14.197 -0.6803 -0.5805 -1.0213
 2869TIP3    H230099   0.755   5.423  14.272  0.6549 -0.5177 -0.5791
 2870TIP3   OH230100   6.539   4.013   3.046 -0.0759  0.5146  0.3737
 2870TIP3    H130101   6.498   3.974   2.969  0.5634  3.0579 -1.3463
 2870TIP3    H230102   6.631   3.988   3.040 -0.1662  0.0939  0.7285
 2871TIP3   OH230103   5.175   2.522  11.166 -0.3011  0.1888 -0.2370
 2871TIP3    H130104   5.129   2.475  11.235 -1.3508  0.1527 -0.9504
 2871TIP3    H230105   5.153   2.476  11.086  0.5329  0.5123 -0.6628
 2872TIP3   OH230106   1.774   4.824   1.554 -0.0960  0.5556  0.0623
 2872TIP3    H130107   1.752   4.908   1.594  0.3772  0.9797 -0.5559
 2872TIP3    H230108   1.806   4.770   1.626 -2.2252  0.2532  0.8078
 2873TIP3   OH230109   0.303   1.731   1.741  0.3570 -0.1906  0.1174
 2873TIP3    H130110   0.217   1.740   1.782  1.0441  0.4269  1.4559
 2873TIP3    H230111   0.320   1.636   1.742 -0.4051 -0.3389 -0.3826
 2874TIP3   OH230112   3.541   2.367   5.440 -0.2715  0.0471  0.4334
 2874TIP3    H130113   3.505   2.289   5.483  0.4488 -0.8434 -0.5443
 2874TIP3    H230114   3.497   2.370   5.355  0.1230  0.3917  0.2390
 2875TIP3   OH230115   0.331   2.012   5.837 -0.0321  0.2861  0.3657
 2875TIP3    H130116   0.403   2.071   5.814  0.5756 -0.7963 -0.5715
 2875TIP3    H230117   0.364   1.960   5.910 -0.4614  0.9035  1.0017
 2876TIP3   OH230118   2.771   2.423   0.514 -0.1924 -0.8771 -0.2253
 2876TIP3    H130119   2.687   2.458   0.541 -0.1998 -1.6843  0.8368
 2876TIP3    H230120   2.754   2.385   0.427 -0.3159  1.1644 -1.1131
 2877TIP3   OH230121   3.575   1.534   0.403  0.3438  0.2899  0.6065
 2877TIP3    H130122   3.558   1.534   0.309 -0.0153  0.1703  0.6718
 2877TIP3    H230123   3.489   1.540   0.443  0.5737  1.8853  0.9061
 2878TIP3   OH230124   0.628   6.519  11.477  0.0685  0.0593 -0.1231
 2878TIP3    H130125   0.705   6.566  11.445 -1.2145  0.9349 -1.9856
 2878TIP3    H230126   0.616   6.447  11.415 -1.1612  0.4956 -0.4142
 2879TIP3   OH230127   3.568   4.252  11.500 -0.7805 -0.0548 -0.0923
 2879TIP3    H130128   3.657   4.223  11.483 -1.1579 -0.4379 -1.5098
 2879TIP3    H230129   3.566   4.343  11.469 -0.6571  0.2290  0.7227
 2880TIP3   OH230130   4.342   1.679  12.780 -0.6744  0.1859 -1.0279
 2880TIP3    H130131   4.345   1.770  12.810 -0.1880 -0.0956 -0.2138
 2880TIP3    H230132   4.256   1.671  12.738 -0.2986  1.3014 -2.0393
 2881TIP3   OH230133   1.570   4.066  11.339 -0.3208  0.2800  0.3353
 2881TIP3    H130134   1.532   4.123  11.406 -3.3858 -1.7007  0.3631
 2881TIP3    H230135   1.570   4.120  11.260  1.6058  1.9972  1.4393
 2882TIP3   OH230136   1.300   5.000  14.617  0.5861  0.6263 -0.0395
 2882TIP3    H130137   1.273   5.063  14.550 -0.1090  0.4888  0.1080
 2882TIP3    H230138   1.251   5.026  14.695 -0.3669 -0.6003 -0.1972
 2883TIP3   OH230139   5.130   5.624   3.594  0.2663 -0.4203  0.3094
 2883TIP3    H130140   5.138   5.556   3.527 -0.6985 -0.4884  0.2663
 2883TIP3    H230141   5.075   5.691   3.553  2.9282  1.3906 -0.4667
 2884TIP3   OH230142   3.258   4.194   5.336  0.3784  0.7218 -0.1422
 2884TIP3    H130143   3.241   4.283   5.304 -1.2670  1.3624  2.4058
 2884TIP3    H230144   3.172   4.162   5.363  0.9891 -1.6089 -0.8763
 2885TIP3   OH230145   0.698   4.247   5.429  0.0954  0.0243  0.2135
 2885TIP3    H130146   0.707   4.197   5.510 -0.5672  1.4391  1.1843
 2885TIP3    H230147   0.754   4.201   5.366  1.3635 -0.5551  1.7262
 2886TIP3   OH230148   0.519   0.690  13.255  0.3851 -0.3139  0.2569
 2886TIP3    H130149   0.439   0.692  13.202 -0.3590  0.9338  1.3838
 2886TIP3    H230150   0.506   0.759  13.320  2.5624  0.1736  0.2131
 2887TIP3   OH230151   4.793   0.622  12.508 -0.3639  0.0730 -0.3134
 2887TIP3    H130152   4.805   0.685  12.578  2.9132 -1.3803  0.4965
 2887TIP3    H230153   4.786   0.675  12.429  1.2266  1.4980  0.4900
 2888TIP3   OH230154   3.953   0.612   3.778 -0.0388  0.2193 -0.3688
 2888TIP3    H130155   3.927   0.578   3.692 -0.6067 -0.3682  0.0318
 2888TIP3    H230156   3.897   0.688   3.792 -0.2765  0.0305 -0.3036
 2889TIP3   OH230157   5.330   5.932   2.839 -0.0668 -0.1383  0.0003
 2889TIP3    H130158   5.319   5.840   2.866  1.8035  0.2079  2.0458
 2889TIP3    H230159   5.387   5.970   2.905 -1.0434  2.6138 -0.6823
 2890TIP3   OH230160   6.766   6.229  14.468  0.4435  0.5236  0.2258
 2890TIP3    H130161   6.753   6.251  14.561  0.3310 -0.7051  0.5163
 2890TIP3    H230162   6.861   6.226  14.457  0.5298  3.9580 -0.5293
 2891TIP3   OH230163   5.282   3.103   3.189  0.2291 -0.3421 -0.1387
 2891TIP3    H130164   5.350   3.037   3.178 -0.4706 -1.2335  0.7672
 2891TIP3    H230165   5.203   3.052   3.209 -0.7195  0.6661 -1.2440
 2892TIP3   OH230166   5.072   6.616  14.296  0.5536 -0.0511 -0.8040
 2892TIP3    H130167   5.044   6.602  14.206  1.6680 -0.3726 -1.1134
 2892TIP3    H230168   5.128   6.541  14.317 -2.2386 -1.6309  1.2585
 2893TIP3   OH230169   0.071   5.014   1.190 -0.1744  0.0703  0.3275
 2893TIP3    H130170   0.117   4.937   1.157 -0.4626 -0.3561  0.9131
 2893TIP3    H230171   0.084   5.011   1.285 -0.0452  0.8357  0.3455
 2894TIP3   OH230172   2.547   5.051   0.292  0.3839 -0.2718 -0.1029
 2894TIP3    H130173   2.545   4.957   0.305  1.3299 -0.2768  0.0093
 2894TIP3    H230174   2.541   5.088   0.380  1.6751 -0.2481 -0.0214
 2895TIP3   OH230175   5.857   6.506  11.305  0.3368  0.1276  0.3096
 2895TIP3    H130176   5.850   6.424  11.255  0.9896 -0.2609  0.8515
 2895TIP3    H230177   5.799   6.567  11.259  0.1566 -0.5217 -0.3329
 2896TIP3   OH230178   3.520   3.664  16.791 -0.7220  0.1779 -0.0846
 2896TIP3    H130179   3.501   3.609  16.715 -1.1267  0.3638 -0.1207
 2896TIP3    H230180   3.546   3.748  16.754 -1.7425  0.5350 -0.0102
 2897TIP3   OH230181   3.937   2.512   4.590  0.6249 -0.3688  0.3608
 2897TIP3    H130182   3.938   2.475   4.679  0.2808 -1.8276 -0.2343
 2897TIP3    H230183   3.973   2.443   4.535  0.6836  0.4749 -0.6721
 2898TIP3   OH230184   1.272   3.981   1.770  0.1332  0.0128  0.1177
 2898TIP3    H130185   1.303   4.071   1.757 -0.8292  0.3526  0.1143
 2898TIP3    H230186   1.221   3.962   1.691  0.3914 -0.5631  0.0885
 2899TIP3   OH230187   2.716   1.389   5.049 -0.2461  0.2034 -0.3098
 2899TIP3    H130188   2.713   1.378   5.144 -0.3150 -1.2615 -0.4722
 2899TIP3    H230189   2.773   1.318   5.018 -0.9508  0.1068 -1.4383
 2900TIP3   OH230190   6.083   6.166  14.353 -0.1394  0.0523  0.4945
 2900TIP3    H130191   6.175   6.153  14.328 -1.0433 -3.0899 -1.6238
 2900TIP3    H230192   6.047   6.222  14.284 -0.1894 -0.1014  0.3948
 2901TIP3   OH230193   6.789   0.702   3.248 -0.0005 -0.2460 -0.1082
 2901TIP3    H130194   6.723   0.740   3.190  1.9855  0.3748 -2.0565
 2901TIP3    H230195   6.832   0.778   3.288 -0.5797 -0.6470  1.3150
 2902TIP3   OH230196   3.070   1.265   5.872 -0.0045  0.1099 -0.1560
 2902TIP3    H130197   3.156   1.293   5.843 -0.1200  0.4315 -0.1879
 2902TIP3    H230198   3.077   1.170   5.882  1.0412  0.3935  2.0902
 2903TIP3   OH230199   5.890   3.164  15.144 -0.0742  0.2108 -0.2959
 2903TIP3    H130200   5.810   3.158  15.093 -0.6150  1.5628  0.3615
 2903TIP3    H230201   5.862   3.199  15.229  1.1926  0.5970 -0.0216
 2904TIP3   OH230202   0.425   4.376   0.292 -0.0193  0.6767 -0.1124
 2904TIP3    H130203   0.359   4.340   0.233 -1.8063 -0.4255  2.4847
 2904TIP3    H230204   0.493   4.308   0.296 -0.5408  0.1763  0.1784
 2905TIP3   OH230205   2.749   0.365  12.146 -0.3435  0.0135 -0.1428
 2905TIP3    H130206   2.670   0.387  12.098  0.3803  0.0504 -1.3455
 2905TIP3    H230207   2.718   0.325  12.228 -1.5944  0.7964 -0.2308
 2906TIP3   OH230208   1.782   2.061   4.337  0.1799  0.1673  0.0969
 2906TIP3    H130209   1.811   2.027   4.252  1.2357 -0.8992  0.8576
 2906TIP3    H230210   1.688   2.075   4.327 -0.0613 -1.8003 -0.6496
 2907TIP3   OH230211   5.785   2.223   4.998 -0.2561  0.4620  0.4210
 2907TIP3    H130212   5.690   2.234   4.999 -0.3367 -0.2934  1.3161
 2907TIP3    H230213   5.799   2.129   5.008  0.5688  0.4426 -0.7254
 2908TIP3   OH230214   2.317   6.202   3.504  0.5362 -0.1522  0.2219
 2908TIP3    H130215   2.224   6.180   3.511  0.3772  0.0889 -1.1197
 2908TIP3    H230216   2.339   6.237   3.590 -0.4159 -0.9603  0.8084
 2909TIP3   OH230217   0.708   0.378   0.768  0.3895  0.4679  0.0301
 2909TIP3    H130218   0.613   0.392   0.764  0.4315  0.5466 -0.7328
 2909TIP3    H230219   0.731   0.349   0.680  0.6407 -2.3313  0.9921
 2910TIP3   OH230220   2.074   6.609  11.100 -0.3199 -0.9554  0.3207
 2910TIP3    H130221   2.105   6.649  11.181  1.3576 -1.7507  0.1034
 2910TIP3    H230222   2.088   6.676  11.033  0.0961 -0.9763  0.3837
 2911TIP3   OH230223   1.517   1.230  13.349 -0.4248  0.1813 -0.5293
 2911TIP3    H130224   1.546   1.182  13.271 -0.2489  0.2289 -0.4953
 2911TIP3    H230225   1.484   1.162  13.408  2.0386 -0.1862  0.5020
 2912TIP3   OH230226   1.660   5.304  13.898 -0.3343  0.0650  0.3655
 2912TIP3    H130227   1.571   5.339  13.902 -0.3876  0.0406 -0.5708
 2912TIP3    H230228   1.689   5.303  13.989 -1.1207  0.5149  0.6272
 2913TIP3   OH230229   5.260   3.256  12.109  0.2276 -0.1786 -0.1941
 2913TIP3    H130230   5.183   3.209  12.142 -0.6290  0.4780 -1.2305
 2913TIP3    H230231   5.284   3.315  12.181 -0.9595  0.4489 -0.2835
 2914TIP3   OH230232   2.546   4.512   5.225 -0.1041  0.3148  0.0423
 2914TIP3    H130233   2.598   4.443   5.185  1.0959  1.6967 -0.8730
 2914TIP3    H230234   2.484   4.538   5.156  1.6444  2.3716 -0.7997
 2915TIP3   OH230235   3.931   6.465  12.084  0.1874 -0.6853  0.0890
 2915TIP3    H130236   3.894   6.457  12.172  0.6013 -0.9227  0.2430
 2915TIP3    H230237   4.025   6.479  12.099  0.4793 -2.0781 -0.3401
 2916TIP3   OH230238   0.560   4.877   2.493 -0.4187 -0.1454  0.4457
 2916TIP3    H130239   0.515   4.899   2.575  0.0135 -1.6184  1.0944
 2916TIP3    H230240   0.645   4.921   2.501 -0.5960  0.1816  0.5404
 2917TIP3   OH230241   0.791   3.225   3.547 -0.1134  0.0517  0.6185
 2917TIP3    H130242   0.825   3.310   3.574  3.0709 -1.0186  0.2452
 2917TIP3    H230243   0.745   3.192   3.625  0.6520  1.1000  1.5357
 2918TIP3   OH230244   2.795   2.907   5.793  0.2145  0.0863 -0.2048
 2918TIP3    H130245   2.768   2.910   5.885  0.8479  0.8866 -0.0420
 2918TIP3    H230246   2.750   2.831   5.757 -2.6954  1.6804 -0.0872
 2919TIP3   OH230247   1.569   2.423   1.958 -0.6398 -0.2410 -0.0251
 2919TIP3    H130248   1.579   2.376   2.041  1.4392  0.4042  0.1190
 2919TIP3    H230249   1.495   2.380   1.915  0.5033 -2.9342  0.5862
 2920TIP3   OH230250   3.874   3.630  12.315 -0.0222 -0.3657  0.2519
 2920TIP3    H130251   3.811   3.562  12.289  0.6666 -0.2203 -1.9275
 2920TIP3    H230252   3.820   3.701  12.349 -0.9513 -0.8164 -0.2533
 2921TIP3   OH230253   5.377   4.866   0.291 -0.6223  0.0971  1.3787
 2921TIP3    H130254   5.456   4.909   0.322 -1.1683  0.5427  2.1845
 2921TIP3    H230255   5.323   4.937   0.256 -0.7509 -0.1778  1.0114
 2922TIP3   OH230256   2.436   5.953   0.554  0.2712  0.0621 -0.0199
 2922TIP3    H130257   2.526   5.945   0.588  0.7998  0.1153 -1.3621
 2922TIP3    H230258   2.435   6.036   0.507  0.0164 -0.6998 -1.4109
 2923TIP3   OH230259   4.008   2.167  14.360 -0.5516  0.1809 -0.0182
 2923TIP3    H130260   4.015   2.208  14.274 -1.3945  1.2141  0.3897
 2923TIP3    H230261   4.079   2.206  14.411 -2.0195  2.0195  0.6975
 2924TIP3   OH230262   5.564   1.575  13.901  0.5405  0.2000 -0.5338
 2924TIP3    H130263   5.538   1.591  13.810 -1.1921 -0.3182 -0.1357
 2924TIP3    H230264   5.511   1.635  13.953  1.0853  0.0643  0.1967
 2925TIP3   OH230265   4.050   0.615  15.464 -0.3338  0.2737 -0.6560
 2925TIP3    H130266   4.093   0.635  15.547  0.5477 -0.2332 -0.9804
 2925TIP3    H230267   4.121   0.618  15.399 -0.6645 -1.2471 -1.1058
 2926TIP3   OH230268   0.916   1.808   5.758 -0.2661 -0.4718 -0.0778
 2926TIP3    H130269   0.973   1.885   5.764 -0.4169 -0.3892  0.2860
 2926TIP3    H230270   0.973   1.734   5.782  0.1614 -0.6062 -1.4538
 2927TIP3   OH230271   3.441   4.742  11.877 -0.1462  0.0771  0.8046
 2927TIP3    H130272   3.430   4.790  11.959  1.5096 -0.3744  1.3210
 2927TIP3    H230273   3.527   4.770  11.845 -0.8272  0.3402 -0.8439
 2928TIP3   OH230274   0.546   6.289  11.886  0.0404  0.0284 -0.0748
 2928TIP3    H130275   0.457   6.257  11.904  0.5852 -0.8129  1.1681
 2928TIP3    H230276   0.590   6.215  11.844  1.1940 -0.7733  2.4763
 2929TIP3   OH230277   6.007   4.474  14.187 -0.4103 -0.1525  0.5248
 2929TIP3    H130278   6.051   4.559  14.180  0.0273 -0.3274  1.1023
 2929TIP3    H230279   6.049   4.420  14.120 -0.6661  0.0807  0.1799
 2930TIP3   OH230280   6.395   1.653  11.965 -0.3328  0.7687  0.0023
 2930TIP3    H130281   6.451   1.707  12.021  0.1750  2.0754 -1.7280
 2930TIP3    H230282   6.453   1.621  11.896 -1.1526 -0.0362 -0.3334
 2931TIP3   OH230283   3.036   2.754  13.618 -0.1910  0.8988  0.1950
 2931TIP3    H130284   2.990   2.671  13.607 -0.5914  1.0394  0.7617
 2931TIP3    H230285   3.030   2.772  13.712 -0.9956  2.0787 -0.0730
 2932TIP3   OH230286   1.679   3.944   0.382 -0.2883 -0.4140 -0.3835
 2932TIP3    H130287   1.599   3.983   0.418 -0.6008  0.1674 -1.6685
 2932TIP3    H230288   1.736   4.018   0.364  1.1245 -0.9341  1.8684
 2933TIP3   OH230289   2.785   2.418  14.177  0.0766  0.0721  0.3826
 2933TIP3    H130290   2.776   2.459  14.263  0.0142 -1.0528  0.9275
 2933TIP3    H230291   2.717   2.351  14.175  1.0147 -0.8944  0.0401
 2934TIP3   OH230292   0.601   0.602   5.198 -0.0267 -0.0468 -0.1386
 2934TIP3    H130293   0.574   0.595   5.107 -1.6839 -0.0838  0.3298
 2934TIP3    H230294   0.526   0.641   5.242  2.3315  4.0210  0.4854
 2935TIP3   OH230295   5.633   3.927   2.340  0.5885  0.1524  0.0892
 2935TIP3    H130296   5.600   4.016   2.352 -0.8805 -0.2041 -1.2972
 2935TIP3    H230297   5.709   3.937   2.283  1.1093  0.6317  0.8529
 2936TIP3   OH230298   1.383   5.469   0.648  0.0944  0.1475  0.0281
 2936TIP3    H130299   1.472   5.437   0.628  0.2212 -0.0192  0.8514
 2936TIP3    H230300   1.391   5.564   0.647  0.1834  0.1353 -0.3601
 2937TIP3   OH230301   0.471   2.050   3.368  0.5168  0.4246 -0.5056
 2937TIP3    H130302   0.395   2.084   3.415  0.7898 -2.2496  2.0671
 2937TIP3    H230303   0.434   1.987   3.306  0.5279  0.0434 -0.1285
 2938TIP3   OH230304   3.573   6.495  16.105  0.2676  0.1711  0.2501
 2938TIP3    H130305   3.591   6.556  16.177 -2.1461  0.1261  0.9055
 2938TIP3    H230306   3.480   6.476  16.112 -0.0012  0.1731 -2.9191
 2939TIP3   OH230307   6.805   4.417   4.611 -0.3372  0.2880  0.6836
 2939TIP3    H130308   6.820   4.341   4.667 -0.0644 -0.1572  0.0166
 2939TIP3    H230309   6.710   4.422   4.601 -0.2459 -1.9386 -1.9178
 2940TIP3   OH230310   0.035   6.467   3.140 -0.2253 -0.2063 -0.0401
 2940TIP3    H130311  -0.018   6.495   3.215 -0.6497 -1.8128  0.2771
 2940TIP3    H230312  -0.003   6.383   3.114  1.2010 -0.6388 -0.7809
 2941TIP3   OH230313   1.685   5.465   5.102  0.6966 -0.2062  0.0729
 2941TIP3    H130314   1.674   5.444   5.009  1.5154  1.6756 -0.4620
 2941TIP3    H230315   1.691   5.560   5.105  2.6135 -0.3423  1.8457
 2942TIP3   OH230316   2.888   2.105  11.026  0.3079  0.6120  0.1609
 2942TIP3    H130317   2.927   2.096  11.113 -1.6375 -1.1592  0.8913
 2942TIP3    H230318   2.959   2.082  10.966  1.6489  1.7727  1.2462
 2943TIP3   OH230319   1.519   0.279   5.360 -0.1043 -0.2039  0.1051
 2943TIP3    H130320   1.481   0.324   5.436  0.6005 -0.4621  0.6142
 2943TIP3    H230321   1.445   0.267   5.300 -0.3124  1.6479 -0.0612
 2944TIP3   OH230322   4.543   0.528  13.491  0.1050  0.2695 -0.2744
 2944TIP3    H130323   4.528   0.498  13.581  1.4734  1.0095  0.2022
 2944TIP3    H230324   4.508   0.617  13.489 -1.6761 -0.4181 -1.0174
 2945TIP3   OH230325   3.083   0.961   5.958  0.7605 -0.6046  0.5584
 2945TIP3    H130326   3.072   0.982   6.051 -0.8745 -0.1635  0.2665
 2945TIP3    H230327   3.002   0.918   5.933  0.5310  0.7495 -1.0812
 2946TIP3   OH230328   1.154   4.480  13.488 -0.1933 -0.1577 -0.1266
 2946TIP3    H130329   1.241   4.445  13.507  0.1960 -0.1469 -1.8394
 2946TIP3    H230330   1.094   4.421  13.533  0.7330  0.4374  1.9412
 2947TIP3   OH230331   5.737   2.710   2.926 -0.7516 -0.3124  0.4210
 2947TIP3    H130332   5.727   2.615   2.921 -1.7505 -0.1513 -1.0622
 2947TIP3    H230333   5.697   2.734   3.010 -2.0055 -1.0373  0.0568
 2948TIP3   OH230334   5.238   4.309   4.388  0.0314  0.7375 -0.2184
 2948TIP3    H130335   5.319   4.331   4.341 -0.6027  0.2312 -1.5692
 2948TIP3    H230336   5.214   4.222   4.354  0.4739 -0.4089  2.2883
 2949TIP3   OH230337   0.521   1.845   5.254 -0.1371  0.0791 -0.1637
 2949TIP3    H130338   0.442   1.893   5.226 -0.4248 -0.5003 -0.3476
 2949TIP3    H230339   0.520   1.852   5.349  0.7831  1.9575 -0.2703
 2950TIP3   OH230340   6.752   0.797  14.440  0.4823 -0.1801 -0.2383
 2950TIP3    H130341   6.824   0.858  14.451 -0.3780  0.7346  0.4220
 2950TIP3    H230342   6.793   0.716  14.409  2.0536 -0.3403  2.1001
 2951TIP3   OH230343   6.340   0.417  13.220 -0.8292 -0.9394 -0.0743
 2951TIP3    H130344   6.286   0.404  13.142 -0.4042 -1.0350 -0.3579
 2951TIP3    H230345   6.401   0.343  13.219  2.0934  1.3381 -2.0947
 2952TIP3   OH230346   3.534   6.118   4.420 -0.3289  0.0950  0.8423
 2952TIP3    H130347   3.594   6.047   4.440  1.6585  1.6932  0.7352
 2952TIP3    H230348   3.492   6.139   4.503  0.6882  0.2333  1.3237
 2953TIP3   OH230349   1.212   4.556   1.763  0.3114 -0.0323  0.1629
 2953TIP3    H130350   1.216   4.644   1.800  0.4154 -0.3778  0.9864
 2953TIP3    H230351   1.179   4.502   1.835 -0.3719 -0.5570 -0.5353
 2954TIP3   OH230352   5.584   4.174   2.574  0.0323  0.2906 -0.4166
 2954TIP3    H130353   5.643   4.121   2.627 -1.5679 -0.6084  0.5215
 2954TIP3    H230354   5.545   4.236   2.636 -0.1408  0.7604 -0.9885
 2955TIP3   OH230355   4.669   0.705  16.196 -0.1532  0.2569 -0.0150
 2955TIP3    H130356   4.752   0.666  16.224  0.1680 -1.1257 -2.7244
 2955TIP3    H230357   4.675   0.796  16.225  2.3171  0.1879 -0.1760
 2956TIP3   OH230358   4.402   0.464  14.215  0.1625  0.1968 -0.2659
 2956TIP3    H130359   4.315   0.447  14.252  0.7999 -0.6536  0.9090
 2956TIP3    H230360   4.452   0.500  14.288  1.7185 -2.3792  0.0236
 2957TIP3   OH230361   4.300   5.771   2.595 -0.2754 -0.0345 -0.1041
 2957TIP3    H130362   4.214   5.811   2.607  0.0347  1.1236 -1.6325
 2957TIP3    H230363   4.293   5.687   2.640 -0.8890  1.7550  3.3249
 2958TIP3   OH230364   1.108   5.045  15.283 -0.2698  0.7377 -0.6280
 2958TIP3    H130365   1.034   4.986  15.301  0.9698 -0.5673  0.3088
 2958TIP3    H230366   1.140   5.018  15.197 -1.3220  1.7830 -1.3544
 2959TIP3   OH230367   0.483   0.714   4.310  0.6489 -0.6567 -0.5906
 2959TIP3    H130368   0.521   0.801   4.299 -2.6218  1.0553  0.8944
 2959TIP3    H230369   0.535   0.674   4.380  0.6240  1.0976  0.4684
 2960TIP3   OH230370   0.846   5.552   1.678 -0.1434  0.7932  0.1874
 2960TIP3    H130371   0.858   5.562   1.584  0.2306 -0.8589  0.0531
 2960TIP3    H230372   0.761   5.508   1.687 -0.0523  0.6958  0.6071
 2961TIP3   OH230373   1.616   5.764   3.952 -0.1259 -0.1433  0.1323
 2961TIP3    H130374   1.635   5.695   4.015  0.7872 -0.0122  0.0134
 2961TIP3    H230375   1.600   5.842   4.005 -0.2178 -0.2320  0.2347
 2962TIP3   OH230376   3.065   3.135  14.681 -0.4891  0.5707  0.2943
 2962TIP3    H130377   3.040   3.210  14.626  0.5675  0.2132 -0.7066
 2962TIP3    H230378   3.143   3.164  14.728  0.1472 -0.0084 -0.3795
 2963TIP3   OH230379   4.347   5.040   1.581 -0.2607  0.1316  0.2526
 2963TIP3    H130380   4.401   5.093   1.641  1.0844  0.1369 -0.9443
 2963TIP3    H230381   4.410   4.983   1.537 -1.1510  0.6929 -1.7552
 2964TIP3   OH230382   6.158   1.543   3.987 -0.1050 -0.2167  0.2064
 2964TIP3    H130383   6.202   1.554   4.071 -0.7944  0.1505  0.5225
 2964TIP3    H230384   6.065   1.560   4.006 -0.2666 -0.1594 -0.6222
 2965TIP3   OH230385   2.626   2.603  16.050 -0.5950 -0.2915 -0.1796
 2965TIP3    H130386   2.671   2.526  16.085  0.1423 -0.6823 -1.9320
 2965TIP3    H230387   2.697   2.663  16.027 -1.1806  1.1768  1.6882
 2966TIP3   OH230388   5.073   0.383   3.231 -0.2207  0.0430 -0.1390
 2966TIP3    H130389   5.113   0.462   3.195  0.7423 -1.1322 -1.6725
 2966TIP3    H230390   5.141   0.344   3.285 -0.1539 -0.6168 -0.7018
 2967TIP3   OH230391   0.964   0.767   4.908  0.4242  0.0661 -0.2389
 2967TIP3    H130392   0.912   0.726   4.839 -0.2868  1.0298 -0.2864
 2967TIP3    H230393   0.976   0.857   4.879  0.6481  0.3076  0.5954
 2968TIP3   OH230394   2.868   4.440   1.911 -0.2264  0.5686  0.1350
 2968TIP3    H130395   2.819   4.514   1.876 -1.3521 -1.1112 -1.9335
 2968TIP3    H230396   2.942   4.430   1.852  0.4530  0.6526  0.9745
 2969TIP3   OH230397   1.017   3.134  14.463 -0.1667  0.0791  0.0017
 2969TIP3    H130398   1.056   3.099  14.384  0.4230 -0.2594  0.4360
 2969TIP3    H230399   1.042   3.227  14.462  1.2429 -0.2699  0.6083
 2970TIP3   OH230400   4.891   2.991   0.872  0.0252 -0.0193 -0.8097
 2970TIP3    H130401   4.977   2.949   0.880  0.7187  1.5792  0.3515
 2970TIP3    H230402   4.859   2.999   0.962 -1.3433 -0.5511 -1.2257
 2971TIP3   OH230403   4.083   5.653  12.989 -0.3202  0.4019  0.0683
 2971TIP3    H130404   4.074   5.565  13.024 -0.2309  1.0604  1.7937
 2971TIP3    H230405   4.027   5.707  13.045  1.0873  1.7470  0.2168
 2972TIP3   OH230406   5.290   3.261  15.008 -0.1896  0.3665 -0.6079
 2972TIP3    H130407   5.204   3.301  15.020  0.8389  2.3281  0.4511
 2972TIP3    H230408   5.290   3.186  15.068 -0.9580  0.6528 -0.2413
 2973TIP3   OH230409   1.871   3.136   3.640 -0.4988 -0.1904 -0.1814
 2973TIP3    H130410   1.919   3.176   3.567  0.8535  1.4499  1.5838
 2973TIP3    H230411   1.801   3.198   3.659 -1.9338 -1.4551 -1.1883
 2974TIP3   OH230412   4.377   3.552   2.623  0.1051 -0.3094 -1.0007
 2974TIP3    H130413   4.408   3.547   2.713 -0.6298  0.2243 -0.7163
 2974TIP3    H230414   4.451   3.588   2.574 -0.2385  1.4667 -0.2324
 2975TIP3   OH230415   4.411   3.102  12.381 -0.5463 -0.4946  0.0824
 2975TIP3    H130416   4.501   3.135  12.380 -0.3712 -0.9661 -0.1801
 2975TIP3    H230417   4.368   3.150  12.310 -0.3630 -0.6312 -0.1247
 2976TIP3   OH230418   4.753   4.651  12.076 -0.6770  0.2693 -0.0603
 2976TIP3    H130419   4.775   4.651  11.983 -0.1184  1.1548  0.0601
 2976TIP3    H230420   4.782   4.737  12.107  0.6090 -0.6348  1.2803
 2977TIP3   OH230421   6.751   2.532  16.769  0.7470 -0.1041 -0.0460
 2977TIP3    H130422   6.657   2.519  16.776  0.5969  1.4261  0.9183
 2977TIP3    H230423   6.761   2.616  16.724  1.6256  0.6099  1.4443
 2978TIP3   OH230424   2.741   0.999  13.238  0.2623  0.2737 -0.7091
 2978TIP3    H130425   2.703   0.954  13.313 -0.2697  1.0530 -0.5006
 2978TIP3    H230426   2.779   0.930  13.185 -2.0759 -0.6184 -1.2859
 2979TIP3   OH230427   2.936   4.498  11.058  0.2483 -0.1625  0.3740
 2979TIP3    H130428   2.989   4.560  11.008  0.6795 -0.1397  0.8593
 2979TIP3    H230429   2.847   4.511  11.025  0.4635  0.1399 -0.0997
 2980TIP3   OH230430   5.692   2.078   4.428  0.5353 -0.0399 -0.1612
 2980TIP3    H130431   5.746   2.000   4.436  0.8582  0.3842  2.1328
 2980TIP3    H230432   5.606   2.052   4.462  0.1458  0.1332 -0.9890
 2981TIP3   OH230433   4.133   1.928   4.457 -0.4433 -0.0390 -0.3013
 2981TIP3    H130434   4.152   2.019   4.434 -1.0721  0.3846  0.8260
 2981TIP3    H230435   4.051   1.909   4.411 -1.0762  0.4321  0.6157
 2982TIP3   OH230436   5.216   2.905   4.358  0.6741 -0.5128 -0.1223
 2982TIP3    H130437   5.128   2.912   4.395  0.7544 -0.0362 -0.0135
 2982TIP3    H230438   5.248   2.820   4.386  1.7422  0.8797  3.0916
 2983TIP3   OH230439   5.538   4.849  16.602  0.0047 -0.5798 -0.1299
 2983TIP3    H130440   5.489   4.858  16.520 -1.5895 -1.6885  0.6486
 2983TIP3    H230441   5.511   4.924  16.654  0.7198 -0.0821 -0.4811
 2984TIP3   OH230442   0.639   5.762   0.474 -0.0549 -0.7222  0.2012
 2984TIP3    H130443   0.563   5.788   0.525 -0.1863  0.5237 -0.6246
 2984TIP3    H230444   0.637   5.817   0.396  1.0552 -1.4689 -0.3841
 2985TIP3   OH230445   3.871   4.352   5.505  0.6285  0.0004 -0.5979
 2985TIP3    H130446   3.908   4.272   5.542 -0.7522 -1.0325 -1.3806
 2985TIP3    H230447   3.833   4.324   5.422  1.7293  1.8479 -1.7533
 2986TIP3   OH230448   0.478   6.100   2.217  0.0563 -0.6792 -0.2108
 2986TIP3    H130449   0.566   6.133   2.232  0.0720 -0.7705 -0.1033
 2986TIP3    H230450   0.421   6.158   2.267  0.0469 -0.5656 -0.3529
 2987TIP3   OH230451   5.307   6.105   5.465 -0.0030 -0.4049  0.4633
 2987TIP3    H130452   5.352   6.129   5.546  0.5134 -1.0649  0.3747
 2987TIP3    H230453   5.373   6.117   5.397 -0.2442 -0.4698  0.2204
 2988TIP3   OH230454   1.076   0.060   5.895  0.1334 -0.4170 -0.0493
 2988TIP3    H130455   0.993   0.098   5.925 -0.3170  0.2753 -2.1163
 2988TIP3    H230456   1.120   0.132   5.850  1.4396 -1.0452  0.2178
 2989TIP3   OH230457   2.057   3.362   4.348 -0.1467 -0.3975 -0.5369
 2989TIP3    H130458   1.975   3.345   4.303 -0.7919  0.1595  0.3887
 2989TIP3    H230459   2.045   3.324   4.435  0.6561 -0.5022 -0.4657
 2990TIP3   OH230460   3.573   0.287  13.600 -0.7161 -0.0329 -0.4309
 2990TIP3    H130461   3.647   0.226  13.593 -0.5681 -0.2525  2.6158
 2990TIP3    H230462   3.602   0.354  13.661 -2.4241  0.8075 -0.5117
 2991TIP3   OH230463   6.157   0.341  14.041  0.3362  0.6314  0.0342
 2991TIP3    H130464   6.133   0.361  14.131  0.4593 -0.8106  0.3995
 2991TIP3    H230465   6.128   0.417  13.991 -1.4294  0.6361  1.0137
 2992TIP3   OH230466   4.372   0.596   0.727 -0.0015  0.3459  0.3325
 2992TIP3    H130467   4.467   0.601   0.712 -0.2013  2.0640 -0.4566
 2992TIP3    H230468   4.334   0.628   0.645 -1.3001 -1.5672  0.1503
 2993TIP3   OH230469   1.158   1.507  12.257  0.1175  0.6670 -0.3336
 2993TIP3    H130470   1.106   1.486  12.335  2.1054 -1.8612  0.3842
 2993TIP3    H230471   1.144   1.600  12.244 -1.2872  0.8975  2.2944
 2994TIP3   OH230472   6.271   5.613  12.923  0.1193 -0.5025  0.0117
 2994TIP3    H130473   6.320   5.626  13.003  0.9952 -0.8605 -0.4653
 2994TIP3    H230474   6.296   5.687  12.867  1.2845 -1.4888 -0.8016
 2995TIP3   OH230475   4.688   1.630   4.852  0.4827 -0.2413  0.5384
 2995TIP3    H130476   4.721   1.560   4.906 -0.5148 -0.8068  0.4298
 2995TIP3    H230477   4.675   1.590   4.766 -0.2648  0.0247  0.5248
 2996TIP3   OH230478   6.059   1.624   0.958 -0.2161 -0.3952  0.2797
 2996TIP3    H130479   6.128   1.599   1.021 -0.3152  0.3632  0.6948
 2996TIP3    H230480   6.089   1.587   0.875  1.3439  1.0225  0.1818
 2997TIP3   OH230481   3.793   0.909   4.343 -0.2502  0.4615 -0.1784
 2997TIP3    H130482   3.824   0.897   4.433 -1.6620  2.1753  0.5580
 2997TIP3    H230483   3.870   0.938   4.295  0.0378  1.6465  0.9644
 2998TIP3   OH230484   1.798   5.078   1.687 -0.1327 -0.2093  0.2239
 2998TIP3    H130485   1.879   5.127   1.705 -0.9101  0.7389  1.2519
 2998TIP3    H230486   1.763   5.057   1.774 -1.0752 -0.4633 -0.2091
 2999TIP3   OH230487   6.351   6.215   2.196 -0.2920  0.3635 -0.4141
 2999TIP3    H130488   6.293   6.291   2.198  1.1624  1.4757  0.6550
 2999TIP3    H230489   6.435   6.249   2.226  0.5565 -1.5240 -0.6188
 3000TIP3   OH230490   5.718   3.230  15.908  0.4042 -0.3588  0.5287
 3000TIP3    H130491   5.737   3.159  15.846  0.6887  0.6702 -0.5704
 3000TIP3    H230492   5.624   3.247  15.897  0.0529 -1.4200  1.7178
 3001TIP3   OH230493   2.816   4.202  13.925  0.7074 -0.3404 -0.0252
 3001TIP3    H130494   2.833   4.290  13.959  0.6631  0.1056 -1.1331
 3001TIP3    H230495   2.902   4.170  13.899  0.7592 -0.7280  0.6334
 3002TIP3   OH230496   1.574   2.115  14.086 -0.4484 -0.7977  0.0145
 3002TIP3    H130497   1.511   2.043  14.093 -2.3305  0.7901 -0.0198
 3002TIP3    H230498   1.525   2.192  14.115  0.7041  0.9093 -2.4270
 3003TIP3   OH230499   0.121   1.505   3.500 -0.2529 -0.5518  0.5747
 3003TIP3    H130500   0.191   1.442   3.481  0.2564 -0.2183  1.3065
 3003TIP3    H230501   0.114   1.557   3.421  1.5539  0.5503  1.1030
 3004TIP3   OH230502   1.283   3.220   2.962  0.0256 -0.2021  0.7630
 3004TIP3    H130503   1.371   3.259   2.965 -0.4198  0.9175  0.0481
 3004TIP3    H230504   1.260   3.206   3.053  0.8285 -0.2299  0.9714
 3005TIP3   OH230505   3.731   2.943  15.258  0.5247  0.0610  0.0062
 3005TIP3    H130506   3.759   3.034  15.273  2.2733 -0.4262 -0.1316
 3005TIP3    H230507   3.707   2.910  15.345  2.0392 -0.0159  0.4142
 3006TIP3   OH230508   4.462   0.027  11.765  0.3200 -0.3538  0.3062
 3006TIP3    H130509   4.424   0.113  11.784 -0.6469 -0.5499 -0.6876
 3006TIP3    H230510   4.478   0.028  11.671 -1.5254 -1.9578 -0.0657
 3007TIP3   OH230511   2.451   5.633  11.956 -0.7480  0.4311  0.3525
 3007TIP3    H130512   2.454   5.706  12.018  0.2240  2.7019 -2.2510
 3007TIP3    H230513   2.358   5.611  11.950 -0.8833  0.3713  2.3618
 3008TIP3   OH230514   6.665   5.408   4.783 -0.0640 -0.2657  0.1488
 3008TIP3    H130515   6.697   5.437   4.868  0.8207  0.1038 -0.3055
 3008TIP3    H230516   6.654   5.489   4.732 -0.4690 -0.4937 -0.1295
 3009TIP3   OH230517   4.183   4.229  14.010 -0.7041 -0.5415 -0.1438
 3009TIP3    H130518   4.106   4.251  13.958 -0.2190  0.5268 -0.4156
 3009TIP3    H230519   4.206   4.140  13.981 -0.5957 -0.0603 -1.5805
 3010TIP3   OH230520   1.005   5.988   5.663 -0.0981  0.0866  0.2905
 3010TIP3    H130521   0.984   6.040   5.741 -2.4535 -0.1123 -0.1732
 3010TIP3    H230522   0.995   5.897   5.691  2.6924 -0.1191  0.7333
 3011TIP3   OH230523   0.906   6.418   2.756  0.0161 -0.1213 -0.0840
 3011TIP3    H130524   0.978   6.362   2.786  0.1337  0.0452 -0.0506
 3011TIP3    H230525   0.909   6.412   2.661  1.5882  1.7397 -0.1884
 3012TIP3   OH230526   6.741   3.047   3.537  0.2687 -0.0381  0.6667
 3012TIP3    H130527   6.746   3.040   3.632  0.0328 -2.5838  0.5053
 3012TIP3    H230528   6.648   3.031   3.516  0.3933  0.1092 -0.0254
 3013TIP3   OH230529   5.551   5.484  13.367 -0.4572 -0.4794  0.0504
 3013TIP3    H130530   5.475   5.432  13.391 -0.9836  1.3588  2.5711
 3013TIP3    H230531   5.516   5.556  13.315 -0.5878  0.8054  1.8753
 3014TIP3   OH230532   3.486   6.796  13.813  0.6732 -0.3263 -0.2128
 3014TIP3    H130533   3.479   6.710  13.770  2.0739  0.0513 -1.2439
 3014TIP3    H230534   3.568   6.833  13.779 -0.2403  1.6950 -0.2750
 3015TIP3   OH230535   6.131   0.733  16.767  0.1744  0.3925  0.5243
 3015TIP3    H130536   6.104   0.807  16.712  0.6187 -0.0680 -0.3434
 3015TIP3    H230537   6.097   0.656  16.721 -2.2919  0.1829  2.6500
 3016TIP3   OH230538   5.967   6.738   4.841  0.6143  0.4310 -0.5899
 3016TIP3    H130539   6.013   6.657   4.818  0.7964  0.4690 -0.3477
 3016TIP3    H230540   5.958   6.734   4.936  1.4500  1.1477 -0.4778
 3017TIP3   OH230541   1.535   5.190   3.703 -0.0731 -0.2229  0.7491
 3017TIP3    H130542   1.552   5.096   3.697  0.5522 -0.0716  0.0779
 3017TIP3    H230543   1.562   5.213   3.792 -0.3576 -0.7003  0.9624
 3018TIP3   OH230544   1.005   2.123  11.319  0.1170 -0.2452  0.0294
 3018TIP3    H130545   1.022   2.031  11.297 -3.2335 -0.4670 -2.0916
 3018TIP3    H230546   1.091   2.164  11.319  1.3415 -2.5890 -3.0919
 3019TIP3   OH230547   5.365   6.027  16.332 -0.7096  0.3995 -0.5344
 3019TIP3    H130548   5.442   6.076  16.361  0.0920 -0.9380 -0.3901
 3019TIP3    H230549   5.340   6.070  16.250  1.6344 -0.6479 -1.8311
 3020TIP3   OH230550   2.875   0.188   2.389  0.2765  0.6189  0.3329
 3020TIP3    H130551   2.917   0.137   2.458  1.3031  0.2511 -0.5501
 3020TIP3    H230552   2.937   0.185   2.315 -0.2605  1.9914 -0.2009
 3021TIP3   OH230553   5.671   1.619  15.876 -0.8203  0.0640  0.2333
 3021TIP3    H130554   5.739   1.614  15.809  0.1191  0.2830  1.1623
 3021TIP3    H230555   5.611   1.687  15.844  0.3060  1.0652  0.2217
 3022TIP3   OH230556   3.973   4.056   0.697 -0.7848 -0.0236  0.2288
 3022TIP3    H130557   3.954   4.095   0.612 -1.2713  1.7935  1.1371
 3022TIP3    H230558   3.889   4.020   0.726 -0.6402 -0.5570 -0.0010
 3023TIP3   OH230559   0.143   5.027  14.330 -0.0907 -0.6792 -0.3236
 3023TIP3    H130560   0.097   4.949  14.298 -0.2800 -0.6363 -0.1544
 3023TIP3    H230561   0.085   5.064  14.396  0.6876 -1.2698  0.7184
 3024TIP3   OH230562   4.389   5.893   3.017 -1.0113 -0.1229 -0.1189
 3024TIP3    H130563   4.316   5.929   3.066 -2.1681 -1.2781 -0.9555
 3024TIP3    H230564   4.372   5.799   3.014  0.0102 -0.2920 -1.1313
 3025TIP3   OH230565   6.342   5.240  13.656 -0.2821 -0.2923  0.3732
 3025TIP3    H130566   6.422   5.230  13.707 -0.6526  2.4609  1.6132
 3025TIP3    H230567   6.369   5.284  13.576 -0.6432  1.4770  1.1957
 3026TIP3   OH230568   0.401   3.715  15.380 -0.5841  0.3970 -0.4525
 3026TIP3    H130569   0.469   3.711  15.313 -0.4815  1.1383 -0.3978
 3026TIP3    H230570   0.330   3.661  15.345 -0.4147  0.5366 -1.0227
 3027TIP3   OH230571   0.417   3.894  16.220 -0.3200  0.1257  0.1767
 3027TIP3    H130572   0.466   3.973  16.241 -0.0643 -0.0034  0.0720
 3027TIP3    H230573   0.332   3.906  16.262  0.3139 -0.2997  1.6293
 3028TIP3   OH230574   4.322   0.164   4.155 -0.0381  0.0891 -0.1958
 3028TIP3    H130575   4.329   0.075   4.120 -1.9585  0.1319 -0.7315
 3028TIP3    H230576   4.283   0.215   4.084  0.8001  1.3143  0.1986
 3029TIP3   OH230577   3.616   5.062   5.759  0.0154  0.1540  0.1615
 3029TIP3    H130578   3.600   5.137   5.703  0.2348 -0.1435 -0.3093
 3029TIP3    H230579   3.554   5.071   5.830  0.8343  1.4103  0.7362
 3030TIP3   OH230580   6.740   1.726   4.303  0.2376 -0.0109 -0.1060
 3030TIP3    H130581   6.688   1.733   4.383 -1.1194 -3.1884 -0.6186
 3030TIP3    H230582   6.679   1.749   4.233 -0.2195 -2.6189 -0.6203
 3031TIP3   OH230583   4.168   2.768   5.116  0.0347  0.2666  0.9474
 3031TIP3    H130584   4.168   2.853   5.072 -0.4057  0.1913  0.7933
 3031TIP3    H230585   4.118   2.784   5.197 -0.4362  0.0456  0.6998
 3032TIP3   OH230586   1.599   2.246  12.413 -0.1593  0.3481  0.2571
 3032TIP3    H130587   1.526   2.212  12.464 -0.1448  0.1921  0.1755
 3032TIP3    H230588   1.591   2.341  12.419 -0.5224  0.3336  0.0279
 3033TIP3   OH230589   6.734   2.139   1.981 -0.1029  0.4444  0.1772
 3033TIP3    H130590   6.780   2.136   2.064  0.3666 -0.7615 -0.1119
 3033TIP3    H230591   6.688   2.055   1.976 -0.0789  0.4849 -0.7979
 3034TIP3   OH230592   3.927   4.040   4.145  0.5619  0.4644 -0.3520
 3034TIP3    H130593   3.904   3.965   4.199 -0.9286 -0.3473 -2.0511
 3034TIP3    H230594   4.001   4.081   4.190 -0.3681 -0.4027  2.0415
 3035TIP3   OH230595   2.669   3.384  10.514  0.6471 -0.1481  0.8091
 3035TIP3    H130596   2.669   3.347  10.425  1.6197  0.2567  0.6315
 3035TIP3    H230597   2.669   3.479  10.500 -0.7066 -0.0736  1.2590
 3036TIP3   OH230598   2.564   4.451   1.685 -0.2864 -0.1968 -0.2685
 3036TIP3    H130599   2.618   4.527   1.709 -0.6139  0.7568 -2.4050
 3036TIP3    H230600   2.594   4.427   1.598 -1.0627 -1.7542 -0.1239
 3037TIP3   OH230601   1.628   2.129   1.474 -0.3810 -0.9586 -0.8135
 3037TIP3    H130602   1.631   2.164   1.563  0.7264 -2.1683 -0.3533
 3037TIP3    H230603   1.567   2.186   1.428 -0.9580 -0.3064  0.7159
 3038TIP3   OH230604   0.175   4.450  16.093  0.2500  0.5017 -0.0730
 3038TIP3    H130605   0.087   4.475  16.120  0.6408  1.8101  0.0432
 3038TIP3    H230606   0.221   4.534  16.082  1.1857 -0.1325 -1.1011
 3039TIP3   OH230607   3.587   4.899   3.764 -1.1677  0.3667  0.5003
 3039TIP3    H130608   3.566   4.850   3.843  0.9075 -1.7697 -0.2364
 3039TIP3    H230609   3.630   4.979   3.796  0.6948 -1.0153  1.5237
 3040TIP3   OH230610   2.466   3.990   5.895 -0.1888  0.3718 -0.2383
 3040TIP3    H130611   2.418   4.059   5.941 -1.0464 -0.5616  0.2780
 3040TIP3    H230612   2.521   3.950   5.963 -0.7707 -0.4035 -0.2252
 3041TIP3   OH230613   4.703   4.769   0.749 -0.1958 -0.1873  0.0797
 3041TIP3    H130614   4.779   4.781   0.692  0.6134 -0.5487  1.0634
 3041TIP3    H230615   4.674   4.858   0.769  0.4692 -0.0293  0.3623
 3042TIP3   OH230616   5.556   2.759   6.358  0.0005 -0.0048  0.2743
 3042TIP3    H130617   5.542   2.851   6.336  1.5177  0.5892  1.6210
 3042TIP3    H230618   5.566   2.759   6.453 -0.5302 -1.6386  0.3323
 3043TIP3   OH230619   5.208   5.192   4.582 -0.4335  0.2109  0.1793
 3043TIP3    H130620   5.174   5.105   4.559  2.7165 -0.8736 -0.7710
 3043TIP3    H230621   5.284   5.173   4.637  0.0347  2.3780  0.2923
 3044TIP3   OH230622   6.259   1.127  12.061  0.2819 -0.0581  0.2000
 3044TIP3    H130623   6.203   1.091  12.130  0.0212 -0.4894 -0.2268
 3044TIP3    H230624   6.309   1.052  12.030  1.3969  0.4073  0.8528
 3045TIP3   OH230625   2.222   0.876  14.883 -0.5446  0.1265 -0.3164
 3045TIP3    H130626   2.173   0.795  14.869  0.8907 -0.7209 -0.5935
 3045TIP3    H230627   2.197   0.904  14.972 -3.7039  1.2998 -1.4983
 3046TIP3   OH230628   4.857   4.094   0.594  0.4728  0.3366  0.4262
 3046TIP3    H130629   4.871   4.045   0.513  0.9521  1.0237  0.0923
 3046TIP3    H230630   4.777   4.056   0.631 -0.4404  0.8612 -0.9988
 3047TIP3   OH230631   4.415   6.367  12.353 -0.1164 -0.5131  0.1084
 3047TIP3    H130632   4.328   6.352  12.317 -0.6362 -0.3436  1.2743
 3047TIP3    H230633   4.437   6.456  12.326 -0.2895 -0.5619 -0.2013
 3048TIP3   OH230634   2.542   4.632  11.440 -0.3362 -0.6678 -0.2407
 3048TIP3    H130635   2.568   4.567  11.375 -0.6987  1.1869 -2.3046
 3048TIP3    H230636   2.603   4.704  11.427 -1.8086  0.6456 -0.0462
 3049TIP3   OH230637   2.676   6.692  17.013  0.2131  0.1248  0.4879
 3049TIP3    H130638   2.639   6.622  17.066  0.8849  0.5260  1.5141
 3049TIP3    H230639   2.611   6.709  16.945 -0.1014 -1.2462  0.4468
 3050TIP3   OH230640   2.892   2.272  12.647 -0.4595  0.2382 -0.2271
 3050TIP3    H130641   2.925   2.361  12.652  0.0207  0.0646 -0.2877
 3050TIP3    H230642   2.797   2.281  12.652 -0.3751  0.6801  0.7611
 3051TIP3   OH230643   3.246   3.981  16.372  0.8168  0.1995  0.1578
 3051TIP3    H130644   3.296   4.043  16.424  1.7495  1.4993 -2.2265
 3051TIP3    H230645   3.296   3.970  16.292 -2.2699  0.9134 -1.9579
 3052TIP3   OH230646   2.036   4.403  12.891  0.7594 -0.2134 -0.1759
 3052TIP3    H130647   2.074   4.332  12.840  1.5454  0.5028 -0.5964
 3052TIP3    H230648   2.108   4.465  12.903 -0.7120  2.0770 -2.5786
 3053TIP3   OH230649   6.700   1.819   0.043  0.3594 -0.1035 -0.0368
 3053TIP3    H130650   6.608   1.833   0.022  0.3453  0.1820  0.2166
 3053TIP3    H230651   6.700   1.796   0.136  0.5724  0.1948  0.0378
 3054TIP3   OH230652   0.940   1.827   0.446  0.2210 -0.1246 -0.1184
 3054TIP3    H130653   1.034   1.809   0.436 -0.0150 -0.6737 -1.3945
 3054TIP3    H230654   0.929   1.842   0.540  1.4923 -0.5936  0.1188
 3055TIP3   OH230655   4.035   5.802   3.764  0.1751  0.3182  0.2571
 3055TIP3    H130656   4.068   5.719   3.798  2.0895 -0.9868 -4.3861
 3055TIP3    H230657   4.110   5.861   3.768 -0.0357  0.6180 -0.1810
 3056TIP3   OH230658   0.864   4.842  13.097 -0.2759 -0.1319 -0.2974
 3056TIP3    H130659   0.864   4.923  13.148 -0.3468 -0.1802 -0.2201
 3056TIP3    H230660   0.772   4.814  13.096 -0.2547 -0.2001 -0.3405
 3057TIP3   OH230661   3.174   4.186  15.884  0.0874  0.1832  0.5925
 3057TIP3    H130662   3.232   4.261  15.898 -0.0213  0.1622  1.1874
 3057TIP3    H230663   3.173   4.141  15.969 -0.0970 -0.3108  0.3272
 3058TIP3   OH230664   5.166   2.365   4.372 -0.1157  0.0927  0.1164
 3058TIP3    H130665   5.256   2.337   4.392 -0.4096 -1.8129 -1.1340
 3058TIP3    H230666   5.175   2.421   4.295  0.2476  1.9350  1.4540
 3059TIP3   OH230667   6.176   6.144  11.688 -0.1323  0.2001 -0.7111
 3059TIP3    H130668   6.181   6.050  11.700 -0.2580  0.2995  0.1090
 3059TIP3    H230669   6.089   6.168  11.720  0.4425  0.7914  0.4247
 3060TIP3   OH230670   0.969   3.093  14.103 -0.5513  0.0116  0.5626
 3060TIP3    H130671   0.915   3.029  14.150 -1.2076  0.4011  0.3562
 3060TIP3    H230672   1.050   3.047  14.082 -1.4768 -1.1259 -0.6119
 3061TIP3   OH230673   3.922   3.719  12.828 -0.6326 -0.2832  0.1447
 3061TIP3    H130674   4.007   3.714  12.873 -0.0911  1.1260 -0.6913
 3061TIP3    H230675   3.916   3.810  12.798 -1.9826 -0.6387 -0.6973
 3062TIP3   OH230676   0.042   1.094  11.098  0.4802  0.3871 -0.5222
 3062TIP3    H130677   0.128   1.105  11.057 -0.5923  1.0476 -2.6619
 3062TIP3    H230678   0.018   1.003  11.079  0.0752  0.6304 -1.1749
 3063TIP3   OH230679   6.529   0.626   2.054  0.7176  0.7419  0.3706
 3063TIP3    H130680   6.455   0.687   2.055 -0.2095 -0.3632  0.4741
 3063TIP3    H230681   6.591   0.662   2.118 -0.9877  0.1570  2.4017
 3064TIP3   OH230682   4.415   2.254   5.327 -0.1850  0.3796 -0.5300
 3064TIP3    H130683   4.339   2.299   5.290 -0.6689 -1.6977 -2.1524
 3064TIP3    H230684   4.380   2.201   5.398 -0.3109 -0.7613 -1.4306
 3065TIP3   OH230685   5.069   6.040   2.730 -0.0011 -0.1488 -0.1751
 3065TIP3    H130686   5.020   6.033   2.812 -0.9804 -1.0790 -0.8252
 3065TIP3    H230687   5.159   6.018   2.754 -0.3048 -0.5343  0.6309
 3066TIP3   OH230688   4.301   0.975  13.181 -0.2148  0.1593 -0.3332
 3066TIP3    H130689   4.377   0.994  13.126  0.0680  0.1407  0.0513
 3066TIP3    H230690   4.234   1.036  13.150  0.9789  2.5486  1.5428
 3067TIP3   OH230691   2.104   5.571   3.090 -0.1398  0.7783  0.1184
 3067TIP3    H130692   2.154   5.639   3.044 -0.4763 -0.1572 -1.6265
 3067TIP3    H230693   2.094   5.501   3.027  0.5501 -1.1107  2.0294
 3068TIP3   OH230694   6.574   5.962  11.895 -0.4964  0.4342 -0.0463
 3068TIP3    H130695   6.560   5.901  11.823  0.4090 -0.0729  0.2075
 3068TIP3    H230696   6.550   6.048  11.859 -0.8021  0.0738 -0.7044
 3069TIP3   OH230697   3.566   5.336  15.293  0.0846  0.1556  0.2764
 3069TIP3    H130698   3.526   5.254  15.321 -0.7446  0.4800  0.0635
 3069TIP3    H230699   3.604   5.317  15.208 -1.2389  0.3353 -0.3565
 3070TIP3   OH230700   3.918   5.757   1.505  0.9715 -0.0950  0.6163
 3070TIP3    H130701   3.855   5.790   1.440  1.3287 -1.4996 -0.4711
 3070TIP3    H230702   3.935   5.667   1.478  3.0607  0.0956  1.1848
 3071TIP3   OH230703   6.228   1.173   0.194  0.4139 -0.5367 -0.5327
 3071TIP3    H130704   6.140   1.181   0.231  1.0042  1.7611  0.4735
 3071TIP3    H230705   6.286   1.167   0.271  1.3712  1.0610 -1.0921
 3072TIP3   OH230706   1.585   0.659   6.083 -0.5278  0.0135  0.0798
 3072TIP3    H130707   1.665   0.631   6.127 -0.6179  1.4940  1.2384
 3072TIP3    H230708   1.591   0.620   5.996  1.3254 -0.1400  0.2448
 3073TIP3   OH230709   2.900   4.981  12.863 -0.1225  0.3233 -0.2148
 3073TIP3    H130710   2.887   5.048  12.930 -0.9172  1.4222 -1.4451
 3073TIP3    H230711   2.937   5.029  12.788  1.4005 -1.0043 -0.3461
 3074TIP3   OH230712   0.660   0.820   2.281  0.4146  1.0027  0.0965
 3074TIP3    H130713   0.638   0.905   2.243  1.4943  0.9818 -0.6003
 3074TIP3    H230714   0.619   0.757   2.222 -0.8595  1.0338  0.9208
 3075TIP3   OH230715   3.630   3.698   3.621  0.0540  0.8316  1.0571
 3075TIP3    H130716   3.584   3.673   3.541  0.4344  3.1240  0.0792
 3075TIP3    H230717   3.695   3.629   3.635 -0.6179 -0.0462 -0.0922
 3076TIP3   OH230718   4.150   0.953  13.677  0.3096 -0.1283 -0.3054
 3076TIP3    H130719   4.071   0.902  13.661  0.4860 -0.7470  0.7485
 3076TIP3    H230720   4.171   0.993  13.593 -1.1588  0.0916 -0.5804
 3077TIP3   OH230721   0.309   4.732   2.408  1.1059 -1.3365 -0.1292
 3077TIP3    H130722   0.393   4.753   2.448  1.1844 -0.9957 -0.4629
 3077TIP3    H230723   0.265   4.674   2.471  0.9455 -0.2728  0.7489
 3078TIP3   OH230724   5.961   5.368   0.040 -0.3671  0.9330  0.8081
 3078TIP3    H130725   5.984   5.436  -0.023 -0.9346 -1.6543 -2.2494
 3078TIP3    H230726   5.867   5.354   0.028 -0.1805 -0.6926  1.0813
 3079TIP3   OH230727   4.885   2.369  14.564 -0.1341 -0.6284 -0.3924
 3079TIP3    H130728   4.939   2.445  14.586 -1.7470  0.5298 -0.3807
 3079TIP3    H230729   4.806   2.380  14.617 -1.4507 -0.9859 -2.2404
 3080TIP3   OH230730   4.824   3.533   1.226 -0.4338  0.2124  0.3684
 3080TIP3    H130731   4.874   3.460   1.260 -0.7661 -0.1196  0.1491
 3080TIP3    H230732   4.750   3.542   1.286 -2.5798 -2.1847 -1.8217
 3081TIP3   OH230733   2.561   5.693   4.222 -0.1364 -0.2321 -0.4891
 3081TIP3    H130734   2.479   5.663   4.183 -0.6817  2.2185 -1.2820
 3081TIP3    H230735   2.559   5.660   4.312 -2.1873  0.1646 -0.3822
 3082TIP3   OH230736   2.270   0.523   1.469 -0.1944 -0.2530 -0.2266
 3082TIP3    H130737   2.302   0.452   1.523  0.7315  1.1129  1.0622
 3082TIP3    H230738   2.196   0.559   1.518 -0.6156 -0.2755 -0.8366
 3083TIP3   OH230739   1.322   3.143   0.768 -0.1342  0.0826 -0.1035
 3083TIP3    H130740   1.389   3.209   0.750 -0.7934  0.8475  0.2087
 3083TIP3    H230741   1.360   3.061   0.737  0.3725  0.7347 -1.2473
 3084TIP3   OH230742   4.029   2.179  15.469 -0.2886  0.2916 -0.0847
 3084TIP3    H130743   3.963   2.144  15.528 -0.3720 -2.6508 -1.8327
 3084TIP3    H230744   4.111   2.139  15.498 -0.2563 -0.7984 -1.6446
 3085TIP3   OH230745   2.192   3.939  12.576 -0.4316 -0.3498  0.0305
 3085TIP3    H130746   2.173   4.032  12.581  0.7640 -0.0421 -0.8923
 3085TIP3    H230747   2.281   3.931  12.611  0.1366 -0.8867 -1.4763
 3086TIP3   OH230748   3.143   1.740   0.844 -0.3083  0.2408  0.0332
 3086TIP3    H130749   3.127   1.749   0.938  1.3659 -0.7472  0.4340
 3086TIP3    H230750   3.100   1.658   0.820  1.4486 -0.8250  0.4755
 3087TIP3   OH230751   5.751   0.940   1.565 -0.6422 -0.0785 -0.3385
 3087TIP3    H130752   5.751   0.845   1.550 -1.4331 -0.2538  0.7040
 3087TIP3    H230753   5.840   0.959   1.597 -0.1750 -0.3071 -1.4789
 3088TIP3   OH230754   0.178   2.178  13.239 -0.1475  0.7111 -0.2698
 3088TIP3    H130755   0.270   2.162  13.217 -0.4160  0.0326 -0.9149
 3088TIP3    H230756   0.134   2.187  13.155 -1.1083 -1.4972 -0.0392
 3089TIP3   OH230757   1.879   5.986   3.163 -0.0687 -0.0134 -1.0497
 3089TIP3    H130758   1.815   5.924   3.129 -1.3060  1.5497 -1.6471
 3089TIP3    H230759   1.960   5.935   3.173 -0.6825 -1.3732 -2.8167
 3090TIP3   OH230760   2.954   0.738  16.026  0.3930  0.2921 -0.0781
 3090TIP3    H130761   3.015   0.766  16.095  1.3298  0.8709 -1.1316
 3090TIP3    H230762   3.006   0.684  15.968 -0.2783  0.2130 -0.6091
 3091TIP3   OH230763   4.874   5.665  16.323 -0.1068  0.5349  0.3113
 3091TIP3    H130764   4.849   5.731  16.259  0.3765  0.6386  0.2295
 3091TIP3    H230765   4.885   5.713  16.405  0.1422  0.5409  0.2756
 3092TIP3   OH230766   3.077   3.247   5.132 -0.2009 -0.1683 -0.0253
 3092TIP3    H130767   3.107   3.328   5.173  2.1829 -0.4388 -1.1120
 3092TIP3    H230768   3.111   3.177   5.188 -1.5644 -0.4421  0.4734
 3093TIP3   OH230769   0.825   1.085  13.783  0.2211 -0.5047  0.3709
 3093TIP3    H130770   0.740   1.115  13.753 -0.8318 -1.5510  2.1941
 3093TIP3    H230771   0.830   1.113  13.874  0.9810 -2.1284  0.8542
 3094TIP3   OH230772   5.524   3.007  10.910  0.3786 -0.9073 -0.0145
 3094TIP3    H130773   5.516   3.013  10.815  1.2438 -0.5290 -0.0662
 3094TIP3    H230774   5.456   3.066  10.943  0.3264 -0.7478 -0.4027
 3095TIP3   OH230775   0.831   3.711  10.974 -0.3431  1.2016 -0.2523
 3095TIP3    H130776   0.737   3.694  10.965 -0.5524  1.3369  1.5311
 3095TIP3    H230777   0.871   3.624  10.968 -0.6898  1.0059  0.1721
 3096TIP3   OH230778   0.418   4.395  16.462 -0.2990  0.6674  0.1478
 3096TIP3    H130779   0.408   4.488  16.485 -1.5695  0.1681  1.6214
 3096TIP3    H230780   0.479   4.361  16.527 -0.2000  0.3441 -0.1156
 3097TIP3   OH230781   0.112   2.135  11.321 -0.1158 -0.3478  0.4063
 3097TIP3    H130782   0.186   2.172  11.274 -1.2930  3.4650  1.3356
 3097TIP3    H230783   0.144   2.122  11.410  0.6218 -2.7468 -0.1752
 3098TIP3   OH230784   2.723   2.090  16.186 -0.1535  0.4437  0.0253
 3098TIP3    H130785   2.674   2.069  16.106  0.0499  0.3154 -0.0666
 3098TIP3    H230786   2.807   2.046  16.174  0.4384  1.6577 -0.3570
 3099TIP3   OH230787   6.246   4.002   4.082  0.1406 -0.7059  0.4896
 3099TIP3    H130788   6.324   4.035   4.128  0.2942 -1.7008  0.9506
 3099TIP3    H230789   6.221   3.924   4.131  0.0688 -1.5649 -0.8974
 3100TIP3   OH230790   6.176   4.670   4.308  0.3859 -0.1363 -0.1663
 3100TIP3    H130791   6.173   4.735   4.238 -0.7718  0.6558  0.5888
 3100TIP3    H230792   6.207   4.718   4.385  0.4390 -0.6939  0.1700
 3101TIP3   OH230793   5.346   2.045   5.503  0.2834 -1.0026 -0.5524
 3101TIP3    H130794   5.414   2.111   5.486 -1.7654  1.0332 -1.0958
 3101TIP3    H230795   5.327   2.055   5.596 -0.4724 -0.3542 -0.7683
 3102TIP3   OH230796   0.892   3.210   1.945 -0.0337 -0.4836 -0.4182
 3102TIP3    H130797   0.937   3.248   1.869 -0.0554  0.7771  0.1866
 3102TIP3    H230798   0.901   3.116   1.933  0.2058 -0.2958 -1.8498
 3103TIP3   OH230799   5.661   6.719   1.308 -0.6563 -1.1059  0.0298
 3103TIP3    H130800   5.575   6.687   1.282 -0.8780 -0.4214 -0.0710
 3103TIP3    H230801   5.657   6.726   1.403  0.0698 -3.3599  0.2609
 3104TIP3   OH230802   4.298   6.554   1.713  0.3106 -0.8286  0.3975
 3104TIP3    H130803   4.202   6.556   1.715  0.3762  2.2163  4.2413
 3104TIP3    H230804   4.319   6.552   1.619 -3.4608  0.4642 -0.5662
 3105TIP3   OH230805   6.033   6.447  13.973 -0.4498  0.7266  0.2572
 3105TIP3    H130806   5.953   6.491  14.000 -2.3473 -1.4408 -1.5951
 3105TIP3    H230807   6.034   6.456  13.877 -1.0393 -3.3482 -0.2146
 3106TIP3   OH230808   3.546   0.306  14.933  0.5347  0.2455  0.2151
 3106TIP3    H130809   3.465   0.261  14.910 -0.0783  2.0260 -1.2475
 3106TIP3    H230810   3.587   0.249  14.998 -1.3484 -1.2229  0.1773
 3107TIP3   OH230811   0.548   4.191   3.910  0.0267  0.0318  0.7175
 3107TIP3    H130812   0.496   4.116   3.882  0.9292 -0.0977 -0.6444
 3107TIP3    H230813   0.487   4.264   3.913 -0.1834 -0.0479 -1.1772
 3108TIP3   OH230814   1.472   2.586  15.603 -0.3583 -0.5178  0.4213
 3108TIP3    H130815   1.460   2.611  15.695  1.0135  0.8110  0.2667
 3108TIP3    H230816   1.441   2.662  15.554  0.6914 -0.4611 -0.1623
 3109TIP3   OH230817   3.215   1.106   5.071 -0.1945 -0.2675  0.5265
 3109TIP3    H130818   3.224   1.044   5.144  3.1381  0.4461  0.7564
 3109TIP3    H230819   3.285   1.169   5.083  0.2400  0.0698 -3.1506
 3110TIP3   OH230820   6.383   3.876   2.829  0.2237  0.5188  0.3531
 3110TIP3    H130821   6.358   3.829   2.750 -1.0818  1.8915 -0.0799
 3110TIP3    H230822   6.359   3.967   2.811  1.7747  1.1890  1.5461
 3111TIP3   OH230823   6.179   4.592  15.845 -0.3307 -0.1698  0.1155
 3111TIP3    H130824   6.260   4.546  15.868 -1.1736 -1.8008 -0.1217
 3111TIP3    H230825   6.142   4.618  15.929 -0.2780 -0.6983  0.3063
 3112TIP3   OH230826   5.817   0.382  16.235 -0.2781  0.4125  0.3785
 3112TIP3    H130827   5.835   0.442  16.163 -0.6350 -0.6744 -0.6408
 3112TIP3    H230828   5.812   0.438  16.312 -0.1729  1.6330 -0.4833
 3113TIP3   OH230829   5.770   4.805   1.977 -0.5897 -0.4875 -0.2161
 3113TIP3    H130830   5.693   4.830   2.027 -0.3227 -0.2558  0.0814
 3113TIP3    H230831   5.841   4.802   2.041  0.0570  1.2039 -0.7911
 3114TIP3   OH230832   0.023   2.694   4.539 -0.1615  0.8548  0.4208
 3114TIP3    H130833  -0.028   2.720   4.615 -1.0610  0.6088 -0.0958
 3114TIP3    H230834  -0.008   2.606   4.518  0.6917  0.5819  0.2879
 3115TIP3   OH230835   4.633   5.870   2.337  0.0271 -0.1072  0.6221
 3115TIP3    H130836   4.633   5.902   2.247  0.3106  1.5272  1.1799
 3115TIP3    H230837   4.544   5.837   2.351  0.2096 -1.1081 -0.4890
 3116TIP3   OH230838   0.743   6.445  15.916 -0.1264 -0.4781 -0.1945
 3116TIP3    H130839   0.688   6.522  15.914 -1.0008 -1.0755  0.5742
 3116TIP3    H230840   0.799   6.457  15.992  0.8128  0.1217 -0.9658
 3117TIP3   OH230841   2.868   3.596  11.389  0.0049  0.7144 -0.3823
 3117TIP3    H130842   2.951   3.554  11.413 -0.0926  0.5794 -0.2776
 3117TIP3    H230843   2.880   3.623  11.298  0.3858  1.2409 -0.1808
 3118TIP3   OH230844   2.229   3.004   4.800 -0.0473  0.3238 -0.2411
 3118TIP3    H130845   2.272   2.955   4.730  0.7842  1.2380 -0.3749
 3118TIP3    H230846   2.287   2.996   4.875 -0.0747  0.8222 -0.1656
 3119TIP3   OH230847   3.166   4.711   3.143 -0.1596 -0.4614 -0.1613
 3119TIP3    H130848   3.186   4.654   3.217  0.6645 -0.9588 -0.7555
 3119TIP3    H230849   3.180   4.656   3.066 -0.7138  0.1371 -0.6989
 3120TIP3   OH230850   6.764   4.744   1.500 -0.6514  0.0742  0.1025
 3120TIP3    H130851   6.687   4.770   1.449  0.7440  1.7953 -1.1846
 3120TIP3    H230852   6.816   4.691   1.440  0.7905  1.7540 -0.1608
 3121TIP3   OH230853   4.478   0.524   5.595  0.0278  0.3094 -0.0111
 3121TIP3    H130854   4.390   0.515   5.633 -0.1786  1.3152 -0.2286
 3121TIP3    H230855   4.508   0.434   5.583 -1.9179 -0.0997 -2.1508
 3122TIP3   OH230856   0.805   1.286  14.483 -0.5965 -0.3488 -0.3316
 3122TIP3    H130857   0.844   1.291  14.570 -1.5910  0.2029  0.0904
 3122TIP3    H230858   0.871   1.323  14.425 -0.7681  1.2632  0.4712
 3123TIP3   OH230859   1.014   4.921  14.735 -0.2999  0.5181  0.6435
 3123TIP3    H130860   0.973   5.008  14.737  1.4518  1.4451 -1.2314
 3123TIP3    H230861   1.049   4.910  14.823 -0.5243  1.7335  0.9074
 3124TIP3   OH230862   3.780   0.001  11.589  0.4408 -0.1321 -0.2421
 3124TIP3    H130863   3.770  -0.093  11.578  1.1281 -0.0054 -2.2018
 3124TIP3    H230864   3.695   0.031  11.620 -0.2912 -1.1799 -1.2018
 3125TIP3   OH230865   2.478   6.642   5.206 -0.0241 -0.6024 -0.2647
 3125TIP3    H130866   2.399   6.645   5.261  0.9517 -0.5279  1.1498
 3125TIP3    H230867   2.543   6.597   5.260  1.8874  2.1776 -0.1196
 3126TIP3   OH230868   4.812   1.610   4.308  0.3865  0.2680  0.5187
 3126TIP3    H130869   4.840   1.553   4.379 -0.3981 -0.9728 -0.1413
 3126TIP3    H230870   4.878   1.596   4.239 -0.9368 -1.4751 -0.4432
 3127TIP3   OH230871   4.573   4.115  14.646  0.1087 -0.4099 -0.5189
 3127TIP3    H130872   4.559   4.192  14.700 -0.7815  0.0337 -1.3674
 3127TIP3    H230873   4.617   4.052  14.703  0.4734  0.5813  0.2870
 3128TIP3   OH230874   4.591   4.158  13.463  0.1539  0.0513 -0.1849
 3128TIP3    H130875   4.595   4.135  13.556 -1.3683  0.1815 -0.0772
 3128TIP3    H230876   4.497   4.166  13.444  0.4838  0.9064 -1.5144
 3129TIP3   OH230877   5.025   1.499   6.437 -0.3401 -0.2223  0.0362
 3129TIP3    H130878   5.038   1.594   6.439  0.5017 -0.1982 -3.4675
 3129TIP3    H230879   5.094   1.464   6.494 -0.4159  1.2225  1.0337
 3130TIP3   OH230880   3.765   2.361   3.314 -0.4867  0.4971 -0.1233
 3130TIP3    H130881   3.807   2.385   3.396  0.3036 -3.1655  0.6648
 3130TIP3    H230882   3.678   2.329   3.340 -0.0895 -1.0418 -0.6459
 3131TIP3   OH230883   5.672   4.705   3.551  0.1446  0.6564 -0.1012
 3131TIP3    H130884   5.752   4.745   3.517  0.1251  1.0103  0.2577
 3131TIP3    H230885   5.602   4.765   3.524 -0.1559 -0.3152 -1.5350
 3132TIP3   OH230886   3.804   6.252  14.042 -0.4124  0.2599  0.2209
 3132TIP3    H130887   3.777   6.202  14.119 -0.1435  0.6325  0.5673
 3132TIP3    H230888   3.788   6.344  14.067  1.2518  0.4931  0.4753
 3133TIP3   OH230889   6.260   2.107   1.971 -0.2514 -0.2410  0.5155
 3133TIP3    H130890   6.183   2.132   1.920 -0.6436  0.9534  1.6486
 3133TIP3    H230891   6.233   2.118   2.062  0.8148 -1.1778  0.9548
 3134TIP3   OH230892   0.020   0.010  12.897 -0.2470 -0.0985 -0.4525
 3134TIP3    H130893  -0.023  -0.024  12.975  0.9483  0.4639  0.4732
 3134TIP3    H230894   0.061  -0.067  12.857  0.1834 -0.1897  0.1572
 3135TIP3   OH230895   0.620   5.473  13.700  0.1690 -0.3379 -0.0276
 3135TIP3    H130896   0.614   5.427  13.784 -0.2124  0.2166  0.2551
 3135TIP3    H230897   0.551   5.538  13.704  1.2882  0.8718 -0.0414
 3136TIP3   OH230898   5.883   3.861   6.570  0.4789 -0.1949 -0.5019
 3136TIP3    H130899   5.874   3.900   6.657 -0.9922 -1.1021 -0.2399
 3136TIP3    H230900   5.876   3.934   6.509 -1.1108  0.1191  0.0414
 3137TIP3   OH230901   0.051   4.576   0.406  0.0780  0.3712 -0.3135
 3137TIP3    H130902   0.020   4.494   0.370 -0.9629  0.8865 -0.6125
 3137TIP3    H230903   0.050   4.637   0.332  0.6759  0.7038 -0.0581
 3138TIP3   OH230904   2.515   5.829   5.048 -0.6402 -0.0469  0.0922
 3138TIP3    H130905   2.541   5.898   4.987 -0.4270  0.4296  0.7181
 3138TIP3    H230906   2.447   5.781   5.002 -1.1949  0.9354 -0.1253
 3139TIP3   OH230907   2.654   5.526   1.029 -0.7911  0.4174 -0.0443
 3139TIP3    H130908   2.616   5.581   0.960  0.4282  1.6385  0.2413
 3139TIP3    H230909   2.714   5.584   1.076  1.2175 -1.3861 -0.2968
 3140TIP3   OH230910   4.153   4.534  13.348  0.6933 -0.5021  0.2189
 3140TIP3    H130911   4.171   4.459  13.292 -0.4430  0.1018 -0.9783
 3140TIP3    H230912   4.109   4.498  13.425  2.0421 -1.3027  0.6412
 3141TIP3   OH230913   6.641   1.897   3.300  0.1775  0.4248 -0.3684
 3141TIP3    H130914   6.619   1.950   3.224  1.5712 -1.1843 -1.9266
 3141TIP3    H230915   6.638   1.807   3.268  0.1461 -0.3234  1.6569
 3142TIP3   OH230916   1.557   5.754  14.101 -0.1533  0.7444 -0.1333
 3142TIP3    H130917   1.493   5.708  14.156 -0.6386  0.9684 -0.5044
 3142TIP3    H230918   1.638   5.706  14.113 -0.9338 -0.9579 -1.4711
 3143TIP3   OH230919   3.244   3.975  10.108 -0.1800  0.0978  0.3401
 3143TIP3    H130920   3.221   3.916  10.180 -0.7980 -1.3215 -0.9760
 3143TIP3    H230921   3.164   3.981  10.056  0.3420  0.8736 -0.3779
 3144TIP3   OH230922   3.508   2.336  11.803 -0.3149  0.3419 -0.0933
 3144TIP3    H130923   3.590   2.363  11.843 -0.5089 -0.7754  1.1119
 3144TIP3    H230924   3.491   2.250  11.840 -1.0570 -0.2667 -1.8036
 3145TIP3   OH230925   1.371   3.675  14.309  0.1053 -0.5782 -0.1395
 3145TIP3    H130926   1.422   3.752  14.333  2.5625 -2.0216 -0.5082
 3145TIP3    H230927   1.402   3.606  14.369 -1.8133 -1.3701 -0.0175
 3146TIP3   OH230928   5.422   3.213   5.903 -0.4114 -0.0466 -0.1805
 3146TIP3    H130929   5.396   3.301   5.876  0.6168  0.5407  0.7416
 3146TIP3    H230930   5.445   3.221   5.995  0.7446 -1.0543 -0.3704
 3147TIP3   OH230931   3.572   5.450   4.315  0.7703  0.5898 -0.1573
 3147TIP3    H130932   3.646   5.442   4.375 -0.0683  1.7487  1.0644
 3147TIP3    H230933   3.575   5.542   4.286 -1.4448  1.2433  1.5872
 3148TIP3   OH230934   2.667   0.657   4.107  0.7746 -0.1274 -0.7962
 3148TIP3    H130935   2.631   0.715   4.174 -1.0227  0.0228 -1.8541
 3148TIP3    H230936   2.761   0.672   4.110  0.4212  2.2147 -0.4655
 3149TIP3   OH230937   1.182   2.537  14.327  0.1343 -0.6028  0.1153
 3149TIP3    H130938   1.143   2.590  14.397  1.3201 -0.0487  0.3593
 3149TIP3    H230939   1.245   2.595  14.284  0.5275 -1.4151 -0.4241
 3150TIP3   OH230940   2.297   0.243   4.518  0.3176 -0.5876 -0.1508
 3150TIP3    H130941   2.299   0.247   4.613 -2.0586 -2.4252  0.0546
 3150TIP3    H230942   2.214   0.284   4.494  0.8174 -0.2844 -1.4103
 3151TIP3   OH230943   5.997   1.146   5.099  0.2111  0.0793 -0.5428
 3151TIP3    H130944   6.056   1.201   5.149  0.3231  0.3053 -0.9253
 3151TIP3    H230945   5.976   1.073   5.158  1.8961 -0.6972 -0.8556
 3152TIP3   OH230946   2.766   3.789   0.776 -0.2370 -1.0009 -0.4792
 3152TIP3    H130947   2.806   3.758   0.857 -0.2526 -1.7082 -0.7350
 3152TIP3    H230948   2.679   3.819   0.802  0.1114 -0.3360 -0.0776
 3153TIP3   OH230949   5.988   1.903  16.452  0.4543 -0.7075 -0.0423
 3153TIP3    H130950   6.015   1.833  16.512  1.0393  0.3731  0.9641
 3153TIP3    H230951   5.908   1.939  16.491  1.0399  0.2401  0.2837
 3154TIP3   OH230952   6.587   4.550   1.995 -0.7223  0.5819 -0.0257
 3154TIP3    H130953   6.572   4.556   1.900 -1.4077  2.5212  0.1940
 3154TIP3    H230954   6.628   4.464   2.007 -2.1325 -0.3844 -1.8792
 3155TIP3   OH230955   4.174   5.373   6.719  0.2481  0.4312 -0.3182
 3155TIP3    H130956   4.178   5.400   6.627 -0.3956  0.5376 -0.3178
 3155TIP3    H230957   4.114   5.435   6.760  1.2242  0.9209  0.3713
 3156TIP3   OH230958   0.676   6.073   2.774 -0.0829 -0.7811  0.6955
 3156TIP3    H130959   0.643   6.010   2.710  1.1804 -1.4494  0.7046
 3156TIP3    H230960   0.769   6.083   2.753 -0.3067  1.2674  0.5254
 3157TIP3   OH230961   5.717   0.022   2.612 -0.8403  0.3304 -0.3822
 3157TIP3    H130962   5.710  -0.058   2.664  1.3689 -0.0352 -0.5968
 3157TIP3    H230963   5.647   0.014   2.547 -0.1783 -1.8197 -0.8771
 3158TIP3   OH230964   4.974   2.250   0.485  0.3672 -0.4444  0.1306
 3158TIP3    H130965   4.983   2.163   0.522 -0.0700 -0.4623  0.1936
 3158TIP3    H230966   5.009   2.309   0.552  0.1372 -0.5251  0.3216
 3159TIP3   OH230967   2.615   3.509  15.663  0.3608  0.6012 -0.6991
 3159TIP3    H130968   2.568   3.478  15.741  1.0102 -0.2298 -0.6263
 3159TIP3    H230969   2.616   3.433  15.604 -0.1837  1.2446 -1.5452
 3160TIP3   OH230970   4.308   3.371  16.499 -0.2660  0.2954  0.1529
 3160TIP3    H130971   4.350   3.414  16.574  0.6395 -0.5548  0.1473
 3160TIP3    H230972   4.373   3.376  16.429 -0.1345 -1.0521  0.1525
 3161TIP3   OH230973   1.169   0.178   2.971 -0.5278 -0.3574 -0.3885
 3161TIP3    H130974   1.199   0.092   2.941 -0.2577 -0.3376 -0.1765
 3161TIP3    H230975   1.078   0.184   2.941  0.6270  0.9019 -3.9550
 3162TIP3   OH230976   1.486   2.182  15.351  0.6473  0.2363 -0.2882
 3162TIP3    H130977   1.453   2.123  15.284 -0.1480  0.7442 -0.3494
 3162TIP3    H230978   1.581   2.169  15.350  0.3893 -1.8093  0.4478
 3163TIP3   OH230979   3.750   2.560  11.698  0.0267  0.1781  0.0148
 3163TIP3    H130980   3.732   2.492  11.633  0.3799  0.1556 -0.0641
 3163TIP3    H230981   3.835   2.597  11.671  0.0986  0.2788  0.3694
 3164TIP3   OH230982   2.833   1.764  12.164  0.4936  0.2446 -0.5602
 3164TIP3    H130983   2.828   1.819  12.085  0.1556  0.5887 -0.3039
 3164TIP3    H230984   2.898   1.697  12.143 -0.1257 -0.0988 -1.3979
 3165TIP3   OH230985   4.556   5.134  12.268 -0.0525 -0.1106  0.1300
 3165TIP3    H130986   4.465   5.142  12.297  0.4783 -1.7398  2.3377
 3165TIP3    H230987   4.581   5.223  12.242 -2.2736  0.3444 -0.5243
 3166TIP3   OH230988   1.612   6.321   5.241  0.4321  0.2140  0.2664
 3166TIP3    H130989   1.584   6.237   5.278  5.6675 -1.4506  0.8065
 3166TIP3    H230990   1.558   6.386   5.285 -2.4669 -2.6997  1.1898
 3167TIP3   OH230991   3.850   1.806  12.927 -0.2402  0.4819 -0.7239
 3167TIP3    H130992   3.857   1.869  12.855  0.3993  1.0051 -0.2175
 3167TIP3    H230993   3.939   1.800  12.962 -0.0504 -1.6017 -1.5040
 3168TIP3   OH230994   6.091   3.499   4.888  0.2734 -0.3577  0.2449
 3168TIP3    H130995   6.107   3.440   4.815 -0.1627  1.8084 -1.6430
 3168TIP3    H230996   6.008   3.542   4.866  1.4405  2.2059  0.7242
 3169TIP3   OH230997   2.248   6.418  17.184  0.3439 -0.2206 -0.1118
 3169TIP3    H130998   2.321   6.413  17.246  0.4183  1.6011 -0.0248
 3169TIP3    H230999   2.241   6.511  17.162 -1.7685 -0.4012 -0.3442
 3170TIP3   OH231000   1.815   4.445   4.623  0.2661 -0.1880  0.5519
 3170TIP3    H131001   1.881   4.442   4.693  2.1570  0.5495 -1.1735
 3170TIP3    H231002   1.741   4.491   4.662  1.3821  0.4138  1.9981
 3171TIP3   OH231003   5.507   5.467   2.486 -0.2012 -0.4536 -0.2044
 3171TIP3    H131004   5.566   5.456   2.561 -1.0057 -1.0846  0.3425
 3171TIP3    H231005   5.421   5.443   2.520 -0.3635 -2.0849 -1.6977
 3172TIP3   OH231006   4.335   3.479  12.211  0.0899  0.1722  0.6925
 3172TIP3    H131007   4.427   3.503  12.213  0.6728 -1.8230 -0.9318
 3172TIP3    H231008   4.302   3.518  12.130 -0.3799  0.4510  1.0125
 3173TIP3   OH231009   6.666   3.405  11.613 -0.6758  0.1807 -0.5662
 3173TIP3    H131010   6.728   3.441  11.549  1.2585  2.6481  2.5107
 3173TIP3    H231011   6.597   3.471  11.617 -1.4068 -0.5646 -1.0020
 3174TIP3   OH231012   1.560   2.773  14.022  0.1212  0.5129 -0.0039
 3174TIP3    H131013   1.656   2.774  14.021  0.1311 -0.4268 -0.2706
 3174TIP3    H231014   1.536   2.764  13.930 -0.2422  1.9043 -0.0486
 3175TIP3   OH231015   3.390   4.873   2.358 -0.0756 -0.4536  0.0350
 3175TIP3    H131016   3.380   4.915   2.273  0.2338  1.0703  0.7356
 3175TIP3    H231017   3.311   4.897   2.407  0.2301 -0.4340  0.5324
 3176TIP3   OH231018   6.455   0.477  14.206 -0.7337 -0.1217  0.0314
 3176TIP3    H131019   6.433   0.396  14.251 -1.1792 -0.0233 -0.0083
 3176TIP3    H231020   6.506   0.448  14.130  1.5456 -0.1703  1.5176
 3177TIP3   OH231021   2.438   0.848  17.140 -0.2094  0.3493 -0.1488
 3177TIP3    H131022   2.373   0.862  17.209 -0.0422 -0.2751  0.1407
 3177TIP3    H231023   2.522   0.855  17.186 -0.0954  0.0540 -0.3178
 3178TIP3   OH231024   5.948   3.797  13.916  0.2118  0.1773  0.1815
 3178TIP3    H131025   5.893   3.722  13.895 -1.6903  0.0895  4.9803
 3178TIP3    H231026   6.030   3.758  13.948 -0.0105  0.1665  0.7430
 3179TIP3   OH231027   5.992   2.039   3.773  0.0327 -0.5060 -0.2469
 3179TIP3    H131028   6.053   2.113   3.769 -0.1638 -0.3366 -0.1350
 3179TIP3    H231029   5.960   2.030   3.683 -1.3359  0.7250  0.0995
 3180TIP3   OH231030   3.696   1.683   2.129  0.1877 -0.3502  0.1588
 3180TIP3    H131031   3.621   1.743   2.130  0.4642  0.0090 -0.4139
 3180TIP3    H231032   3.738   1.699   2.045  0.6753 -0.8419  0.3103
 3181TIP3   OH231033   4.347   3.985  14.084  0.3176  0.3825 -0.5992
 3181TIP3    H131034   4.438   4.012  14.081  0.4872 -0.2252 -1.0045
 3181TIP3    H231035   4.349   3.891  14.065 -0.1988 -0.0713  1.4498
 3182TIP3   OH231036   3.913   0.169  12.711  0.0701  0.2388 -0.1400
 3182TIP3    H131037   3.964   0.232  12.761 -1.7032  2.0202 -0.5030
 3182TIP3    H231038   3.931   0.085  12.752  0.7806  1.2959  1.7530
 3183TIP3   OH231039   1.757   3.922  11.729 -0.5097 -0.5962 -0.0866
 3183TIP3    H131040   1.673   3.904  11.772 -0.4668  2.1996  1.2455
 3183TIP3    H231041   1.742   4.000  11.676  1.0862 -0.4373 -0.3359
 3184TIP3   OH231042   6.231   1.203   6.451 -0.0949 -0.2432  0.3479
 3184TIP3    H131043   6.179   1.260   6.508 -1.5994 -0.1815 -1.0652
 3184TIP3    H231044   6.321   1.218   6.479 -0.6139  1.5804  1.1234
 3185TIP3   OH231045   3.741   5.648   6.727 -0.0416  0.0194  0.2097
 3185TIP3    H131046   3.816   5.652   6.669 -0.0045  1.1571  0.3362
 3185TIP3    H231047   3.689   5.574   6.694  0.5752 -0.0809 -0.5371
 3186TIP3   OH231048   3.321   1.399  15.801 -0.3358 -0.1853  0.2498
 3186TIP3    H131049   3.318   1.395  15.896 -0.7752 -1.3155  0.2003
 3186TIP3    H231050   3.262   1.329  15.772 -1.3671  1.1177 -0.8513
 3187TIP3   OH231051   5.520   3.675   4.964  0.5244 -0.3488  0.9297
 3187TIP3    H131052   5.466   3.748   4.995  0.5511 -0.8294  2.0973
 3187TIP3    H231053   5.598   3.718   4.928  0.4224  0.2138  1.3684
 3188TIP3   OH231054   3.035   6.050  16.642  0.1810  0.0081 -0.2675
 3188TIP3    H131055   2.961   5.990  16.652  0.5823 -0.5100 -0.3826
 3188TIP3    H231056   2.995   6.136  16.636 -0.4210 -0.2797 -0.4412
 3189TIP3   OH231057   4.462   4.423  11.054  0.3589 -0.0407 -0.5000
 3189TIP3    H131058   4.435   4.402  11.143 -0.4480 -1.5815 -1.1012
 3189TIP3    H231059   4.400   4.490  11.025 -0.3080 -0.6208 -0.4241
 3190TIP3   OH231060   5.150   0.977   5.525  0.0255  0.6587 -0.5723
 3190TIP3    H131061   5.074   0.997   5.471  0.2657  1.1748 -0.7305
 3190TIP3    H231062   5.118   0.982   5.615 -0.6494 -1.3766 -0.6946
 3191TIP3   OH231063   6.669   0.194   2.641  0.1195 -0.2553 -0.3532
 3191TIP3    H131064   6.582   0.221   2.612 -0.0228  1.0672  1.2516
 3191TIP3    H231065   6.654   0.157   2.728  1.0285 -0.9318 -0.4845
 3192TIP3   OH231066   1.714   6.192   2.720 -0.0252 -0.5642  0.8287
 3192TIP3    H131067   1.633   6.199   2.669 -0.3310 -1.3145  1.2096
 3192TIP3    H231068   1.777   6.244   2.671 -0.9551  0.7447  0.9724
 3193TIP3   OH231069   5.760   0.464   2.011  0.4439  0.0510 -0.6698
 3193TIP3    H131070   5.711   0.502   1.938 -0.4213  1.6499  0.6791
 3193TIP3    H231071   5.694   0.451   2.079  1.8096  1.9363  1.0765
 3194TIP3   OH231072   4.285   4.969   5.728  0.1348 -0.5311 -0.1589
 3194TIP3    H131073   4.371   5.011   5.731 -0.2559  0.3699 -1.3371
 3194TIP3    H231074   4.303   4.879   5.700  0.5171  0.1951 -2.3046
 3195TIP3   OH231075   2.771   2.263  11.387  0.4090 -0.1524  0.0755
 3195TIP3    H131076   2.711   2.280  11.460  1.9165 -0.4737  1.4035
 3195TIP3    H231077   2.846   2.220  11.427  2.0199  1.2004 -1.4029
 3196TIP3   OH231078   3.457   6.151  17.185 -0.3209  0.1235  0.1818
 3196TIP3    H131079   3.399   6.089  17.140  1.7690  0.7097 -3.5110
 3196TIP3    H231080   3.536   6.100  17.204  0.0766  0.7551  0.2351
 3197TIP3   OH231081   6.127   1.158   2.585  0.2526  0.4478  0.2518
 3197TIP3    H131082   6.136   1.080   2.530  0.6744 -0.7540  1.9710
 3197TIP3    H231083   6.198   1.216   2.557  1.5240 -0.8792  0.6782
 3198TIP3   OH231084   0.681   1.212   4.241  0.5441 -0.8634 -0.2774
 3198TIP3    H131085   0.746   1.169   4.186  2.4839 -0.2517  1.4821
 3198TIP3    H231086   0.729   1.280   4.287 -0.8515 -1.8931  2.8083
 3199TIP3   OH231087   3.387   1.278  13.916 -0.4614  0.5590 -0.2656
 3199TIP3    H131088   3.424   1.366  13.916 -0.8320  0.7385  0.9622
 3199TIP3    H231089   3.360   1.262  13.826 -0.0040  1.5398 -0.5764
 3200TIP3   OH231090   3.297   5.098   3.682  0.0916  0.4331 -0.1175
 3200TIP3    H131091   3.220   5.130   3.634 -0.5334 -0.1116  0.4923
 3200TIP3    H231092   3.264   5.021   3.729  0.4515  1.4379  1.8359
 3201TIP3   OH231093   3.476   4.688  12.427  0.1152 -0.8297 -0.3741
 3201TIP3    H131094   3.554   4.633  12.431  1.6529  1.2572 -0.6019
 3201TIP3    H231095   3.480   4.741  12.506 -1.4570 -1.1723 -0.0459
 3202TIP3   OH231096   0.157   3.482   5.082  0.2489 -0.2355  0.5195
 3202TIP3    H131097   0.184   3.499   4.992 -0.6593  0.9435  0.4650
 3202TIP3    H231098   0.238   3.456   5.127  1.0610  1.0350 -0.1827
 3203TIP3   OH231099   5.042   3.635  13.553  0.0103  0.3260  0.5132
 3203TIP3    H131100   5.079   3.723  13.542 -2.2830  1.2053 -0.5967
 3203TIP3    H231101   5.057   3.592  13.469 -1.8813  0.8803 -0.1384
 3204TIP3   OH231102   3.953   5.273   1.189 -0.0251 -1.1929 -0.1739
 3204TIP3    H131103   3.979   5.272   1.281  0.3173 -1.1127 -0.2721
 3204TIP3    H231104   3.868   5.316   1.189  1.2020  1.3025 -0.2267
 3205TIP3   OH231105   3.963   0.282   3.518 -0.4793  0.2345 -0.0942
 3205TIP3    H131106   3.981   0.230   3.597 -3.0634  0.2836  0.5578
 3205TIP3    H231107   3.936   0.219   3.452 -0.1049  0.3912 -0.4023
 3206TIP3   OH231108   0.532   0.808  16.117  0.2878  0.4149 -0.0995
 3206TIP3    H131109   0.512   0.779  16.028 -2.7179  3.0336 -0.3512
 3206TIP3    H231110   0.585   0.887  16.105  0.7228  0.2116  0.4689
 3207TIP3   OH231111   0.177   0.530  11.212 -0.3372  0.3329 -0.0511
 3207TIP3    H131112   0.098   0.478  11.209  0.9381 -1.7537  1.4772
 3207TIP3    H231113   0.246   0.473  11.178  0.4662  2.2703 -1.8232
 3208TIP3   OH231114   6.284   3.394  16.643 -0.0712 -0.7731 -0.7901
 3208TIP3    H131115   6.371   3.378  16.606  0.0559 -0.7906 -0.4783
 3208TIP3    H231116   6.235   3.314  16.623  0.4682 -1.4233  0.4657
 3209TIP3   OH231117   5.670   6.200  14.254  0.7747 -0.3594 -0.4766
 3209TIP3    H131118   5.606   6.267  14.282 -0.0333 -0.7710 -1.3437
 3209TIP3    H231119   5.620   6.141  14.198  1.1560 -2.4798  1.3707
 3210TIP3   OH231120   1.336   3.434  11.778 -0.2986  0.4340 -1.1469
 3210TIP3    H131121   1.257   3.423  11.831 -0.3198 -3.1417 -1.7849
 3210TIP3    H231122   1.307   3.490  11.705 -1.8520  0.4115 -0.5808
 3211TIP3   OH231123   3.045   4.096  16.540 -0.1314 -0.3727 -0.7688
 3211TIP3    H131124   3.085   4.182  16.553 -0.2138 -0.6693  1.5175
 3211TIP3    H231125   3.112   4.045  16.495  0.1815  0.6520 -1.5014
 3212TIP3   OH231126   0.183   3.728   2.384  0.2780  0.5630  0.0474
 3212TIP3    H131127   0.095   3.766   2.379  0.3039  0.7081  0.6588
 3212TIP3    H231128   0.217   3.756   2.469 -0.4514 -2.3811  1.4045
 3213TIP3   OH231129   1.139   5.350   5.996  0.0336  0.1213  0.3497
 3213TIP3    H131130   1.204   5.388   5.936  0.7705 -1.4601  0.1137
 3213TIP3    H231131   1.191   5.317   6.069 -0.7203  0.6592  1.1444
 3214TIP3   OH231132   6.103   0.689  14.840 -0.1696 -0.0750  0.1611
 3214TIP3    H131133   6.051   0.659  14.766 -0.9127  3.1655 -0.7080
 3214TIP3    H231134   6.039   0.726  14.901  0.3976 -2.9825  2.6208
 3215TIP3   OH231135   4.728   2.651  12.219  0.7361  0.2017  0.3346
 3215TIP3    H131136   4.668   2.647  12.293 -0.3096 -1.1107 -0.5592
 3215TIP3    H231137   4.674   2.680  12.146  1.5285  0.4753 -0.1441
 3216TIP3   OH231138   1.102   0.690   0.624  0.1020  0.6151  0.6458
 3216TIP3    H131139   1.086   0.694   0.530  0.8286 -0.7639  0.4562
 3216TIP3    H231140   1.153   0.768   0.643  0.3754  0.6465 -0.1953
 3217TIP3   OH231141   2.629   3.292   1.117 -0.1664 -0.3526 -0.0455
 3217TIP3    H131142   2.706   3.347   1.129 -1.1123  1.2630 -1.2455
 3217TIP3    H231143   2.582   3.298   1.200 -0.1930  0.5537 -0.1203
 3218TIP3   OH231144   3.340   1.990  12.190 -0.4706 -0.0886 -0.0091
 3218TIP3    H131145   3.421   2.029  12.158 -0.3694  0.8837  1.4017
 3218TIP3    H231146   3.363   1.948  12.273 -1.5638  0.9385  0.8377
 3219TIP3   OH231147   6.010   6.133  15.238  0.1572  0.1555  0.5646
 3219TIP3    H131148   5.930   6.099  15.200  0.0051  0.5021  0.5668
 3219TIP3    H231149   6.015   6.095  15.326 -0.4242  0.7701  0.8667
 3220TIP3   OH231150   3.965   6.501   2.266  0.1002 -0.0964  0.4179
 3220TIP3    H131151   3.926   6.559   2.201  1.4250 -0.0182 -0.3246
 3220TIP3    H231152   3.898   6.492   2.334  0.3430  3.3633  1.1950
 3221TIP3   OH231153   0.393   1.099   5.312 -0.2084 -0.1482 -0.9697
 3221TIP3    H131154   0.303   1.129   5.324 -0.0945 -0.0528 -0.3492
 3221TIP3    H231155   0.394   1.063   5.223 -1.0743 -0.9089 -0.6831
 3222TIP3   OH231156   4.869   1.352  12.703  0.1841  0.3930 -0.6541
 3222TIP3    H131157   4.867   1.307  12.619  1.0587  0.4043 -0.6783
 3222TIP3    H231158   4.921   1.431  12.687 -0.0265  0.6247 -0.2162
 3223TIP3   OH231159   6.000   2.087  15.206 -0.1681 -0.6858  0.4758
 3223TIP3    H131160   6.044   2.038  15.136 -0.6999  1.0898 -1.1323
 3223TIP3    H231161   5.909   2.091  15.178 -0.0973  1.4079  0.4528
 3224TIP3   OH231162   6.366   0.700   4.169  0.5344  0.1281 -0.3637
 3224TIP3    H131163   6.343   0.682   4.078 -1.7570  1.7367 -0.1373
 3224TIP3    H231164   6.407   0.619   4.200  1.2232 -0.4801 -2.7652
 3225TIP3   OH231165   4.067   2.872  17.122 -0.1570  0.2009  0.9793
 3225TIP3    H131166   4.006   2.829  17.181  0.0559  0.8635  1.6873
 3225TIP3    H231167   4.028   2.863  17.035 -0.3011 -1.0762  1.1701
 3226TIP3   OH231168   4.765   0.125  17.236 -0.4060  0.4268 -0.1520
 3226TIP3    H131169   4.768   0.087  17.323 -1.8311  1.1909  0.2448
 3226TIP3    H231170   4.856   0.141  17.213 -0.0029 -0.1790  1.0106
 3227TIP3   OH231171   3.894   0.892   5.041  0.3680 -0.3287 -0.1891
 3227TIP3    H131172   3.827   0.869   5.105 -0.6435 -2.4382 -1.9281
 3227TIP3    H231173   3.960   0.824   5.051  1.5632  0.9175  0.5116
 3228TIP3   OH231174   1.789   4.591   0.436  0.3197 -0.2038  0.2473
 3228TIP3    H131175   1.868   4.640   0.460  0.5731 -0.6305  0.2991
 3228TIP3    H231176   1.757   4.554   0.518 -0.1342  0.2614  0.2774
 3229TIP3   OH231177   3.684   1.145   5.016 -0.0071  0.1934 -0.0083
 3229TIP3    H131178   3.600   1.100   5.022  0.6877 -1.2241 -0.5574
 3229TIP3    H231179   3.727   1.126   5.100  0.8459 -1.3558 -0.7707
 3230TIP3   OH231180   6.350   3.652  13.002 -0.0882 -0.3891  0.3046
 3230TIP3    H131181   6.353   3.597  12.924 -2.4436 -0.6837  0.3867
 3230TIP3    H231182   6.325   3.738  12.970 -0.4458 -0.3637  0.6362
 3231TIP3   OH231183   6.245   3.392   5.615 -0.0164 -0.4946  0.0844
 3231TIP3    H131184   6.243   3.300   5.589 -1.2629 -0.2827 -0.6114
 3231TIP3    H231185   6.214   3.439   5.538 -0.8146  0.3968  0.9392
 3232TIP3   OH231186   6.119   3.229   1.626  0.1707 -0.0792  0.0555
 3232TIP3    H131187   6.113   3.136   1.604  3.6261 -0.0474 -1.3875
 3232TIP3    H231188   6.097   3.275   1.545  2.0295  0.2528 -0.2904
 3233TIP3   OH231189   2.659   5.985   4.854 -0.1529  0.1927 -0.1825
 3233TIP3    H131190   2.677   5.972   4.761 -0.9111  0.2246 -0.3359
 3233TIP3    H231191   2.694   6.072   4.874  3.3420 -1.2380  0.4338
 3234TIP3   OH231192   2.040   5.437   2.863  0.2604 -0.3946 -0.8719
 3234TIP3    H131193   2.019   5.346   2.887  1.1554 -0.3956 -0.1019
 3234TIP3    H231194   2.117   5.430   2.808  1.9349  0.0945  1.3617
 3235TIP3   OH231195   0.954   6.473  13.185  0.8329 -0.4851 -0.9607
 3235TIP3    H131196   0.931   6.381  13.179  1.0916 -0.5745 -0.5735
 3235TIP3    H231197   0.872   6.519  13.168  0.6697 -0.7903 -0.9972
 3236TIP3   OH231198   1.452   2.635   4.495  0.0929 -0.3853 -0.4562
 3236TIP3    H131199   1.361   2.608   4.509  0.0420  0.6171  1.2928
 3236TIP3    H231200   1.447   2.730   4.483  0.7084 -0.5799 -2.3846
 3237TIP3   OH231201   0.863   2.290  13.241  0.0535  0.3351  0.3951
 3237TIP3    H131202   0.903   2.376  13.229  1.7175 -0.3383  0.9895
 3237TIP3    H231203   0.775   2.308  13.274  0.6579  1.7799  1.2302
 3238TIP3   OH231204   0.386   3.259   0.604  0.4102 -0.0350  0.1536
 3238TIP3    H131205   0.451   3.329   0.613  0.0538  0.5234 -1.4992
 3238TIP3    H231206   0.438   3.179   0.597  0.9053  0.3362 -0.4958
 3239TIP3   OH231207   3.818   1.344   1.710 -0.4412 -0.5694 -0.0169
 3239TIP3    H131208   3.807   1.251   1.728 -0.6272 -0.4817  0.3348
 3239TIP3    H231209   3.798   1.354   1.617  3.6828 -1.5652 -1.1211
 3240TIP3   OH231210   6.201   3.523   6.411  0.1806  0.4272 -0.4592
 3240TIP3    H131211   6.145   3.590   6.452 -0.5370 -0.1787 -0.4384
 3240TIP3    H231212   6.253   3.489   6.483 -1.1340 -0.6908 -0.0163
 3241TIP3   OH231213   4.984   3.204  11.375  0.1308  0.1696 -0.1905
 3241TIP3    H131214   4.898   3.195  11.333 -0.0283 -0.8409  0.3270
 3241TIP3    H231215   4.998   3.120  11.419  1.2103  0.4732  0.0657
 3242TIP3   OH231216   4.238   6.127   6.444 -0.4960  0.0134 -0.7094
 3242TIP3    H131217   4.235   6.149   6.537 -2.5180 -0.6894 -0.5782
 3242TIP3    H231218   4.298   6.191   6.405 -0.6016  1.0790  0.8612
 3243TIP3   OH231219   5.872   2.288  15.675  0.1451 -0.0760 -0.4479
 3243TIP3    H131220   5.810   2.265  15.606  1.4687 -0.0698 -1.6600
 3243TIP3    H231221   5.824   2.274  15.757 -1.3466 -0.3443 -1.3586
 3244TIP3   OH231222   0.703   2.339  13.819 -0.2570 -0.6986 -0.3269
 3244TIP3    H131223   0.698   2.418  13.765 -1.0463 -0.1292  0.5499
 3244TIP3    H231224   0.784   2.296  13.792  0.8152  1.0451  0.0515
 3245TIP3   OH231225   1.906   3.730   1.863 -0.5701 -0.0241  0.2938
 3245TIP3    H131226   1.981   3.730   1.924  1.3647 -1.9315 -1.9504
 3245TIP3    H231227   1.829   3.721   1.919  0.9634  0.8749  2.6077
 3246TIP3   OH231228   2.788   4.809  15.845 -0.1287  0.2626 -0.3974
 3246TIP3    H131229   2.702   4.771  15.829 -0.2868  0.5314 -0.1889
 3246TIP3    H231230   2.784   4.841  15.936  0.5486 -0.6926 -0.0270
 3247TIP3   OH231231   0.412   2.006  14.796 -0.1065 -0.1076 -0.6909
 3247TIP3    H131232   0.416   2.100  14.814  2.2037 -0.4696  1.0303
 3247TIP3    H231233   0.391   1.966  14.881  0.3271 -1.2039 -1.0872
 3248TIP3   OH231234   3.399   0.749  16.780  0.1679 -0.0523 -0.2454
 3248TIP3    H131235   3.304   0.738  16.773  0.0466  1.9603 -2.3943
 3248TIP3    H231236   3.410   0.837  16.816  1.2340 -0.7355  1.1480
 3249TIP3   OH231237   5.981   6.428   4.440  0.3090  0.2375  0.5460
 3249TIP3    H131238   6.013   6.518   4.426 -1.1196  0.9575  1.8496
 3249TIP3    H231239   5.914   6.436   4.507 -0.2822 -1.7399  0.2272
 3250TIP3   OH231240   3.594   0.559  12.704 -0.3112  0.2586  0.4702
 3250TIP3    H131241   3.663   0.507  12.663 -0.1837 -0.7902  1.9843
 3250TIP3    H231242   3.537   0.583  12.631  1.2645  0.5684 -0.7076
 3251TIP3   OH231243   1.985   0.905  12.082 -0.3031 -0.2608  0.2294
 3251TIP3    H131244   2.036   0.930  12.005  0.7391 -0.3010  0.8961
 3251TIP3    H231245   1.944   0.986  12.112 -0.7004 -0.2431 -0.3617
 3252TIP3   OH231246   1.974   4.792   3.389  0.2863 -0.0138  0.6468
 3252TIP3    H131247   2.002   4.821   3.302  0.6422  2.5734  1.5924
 3252TIP3    H231248   1.903   4.851   3.413 -0.5399 -1.3945  1.6870
 3253TIP3   OH231249   6.765   5.194  17.026 -0.1495  0.1943  0.0642
 3253TIP3    H131250   6.702   5.177  16.957  0.1347  0.8960 -0.3790
 3253TIP3    H231251   6.764   5.115  17.080 -0.2894 -0.4012 -0.8005
 3254TIP3   OH231252   0.834   6.101   5.170 -0.0849  0.5123 -0.2724
 3254TIP3    H131253   0.893   6.176   5.161  1.8598 -1.2354 -2.7559
 3254TIP3    H231254   0.881   6.039   5.225 -0.7692  0.2347  0.0053
 3255TIP3   OH231255   2.770   6.463   3.396 -0.3036  0.4096 -0.2709
 3255TIP3    H131256   2.713   6.394   3.429  1.1266 -1.1706 -1.0022
 3255TIP3    H231257   2.726   6.496   3.318 -0.0364 -1.0945 -1.0739
 3256TIP3   OH231258   3.457   5.542  15.424 -0.1733  0.4916  0.3036
 3256TIP3    H131259   3.398   5.469  15.403 -0.8268  1.7404 -2.3580
 3256TIP3    H231260   3.531   5.530  15.365  1.1257  0.3361  1.9226
 3257TIP3   OH231261   6.524   0.053   4.633  0.3183  0.3202  0.6916
 3257TIP3    H131262   6.458   0.081   4.569  0.9770 -2.3714 -1.2660
 3257TIP3    H231263   6.503   0.103   4.712 -0.9860  3.1969 -1.3624
 3258TIP3   OH231264   4.638   1.776   1.184  0.0674 -0.3144 -0.0952
 3258TIP3    H131265   4.733   1.759   1.185 -0.1724 -1.7282  0.2360
 3258TIP3    H231266   4.618   1.803   1.273  0.5710  2.5155 -0.8012
 3259TIP3   OH231267   6.442   0.599   0.835 -0.4339 -0.3178  0.7335
 3259TIP3    H131268   6.450   0.554   0.750 -1.1598  0.3646  0.2968
 3259TIP3    H231269   6.363   0.562   0.874 -0.2529 -0.4302  0.9941
 3260TIP3   OH231270   4.692   5.397   2.248  0.0383 -0.3267  0.4396
 3260TIP3    H131271   4.779   5.397   2.289 -0.9690  0.3597  2.6214
 3260TIP3    H231272   4.639   5.341   2.305 -0.7758 -1.4109 -1.3306
 3261TIP3   OH231273   1.970   3.225   5.046  0.1544 -0.6344 -0.1910
 3261TIP3    H131274   1.956   3.239   5.140 -0.6448  0.0676 -0.4075
 3261TIP3    H231275   1.891   3.260   5.005  1.3389  0.8496 -1.2574
 3262TIP3   OH231276   2.207   6.013   2.388  0.1706 -0.1909 -0.0158
 3262TIP3    H131277   2.234   6.079   2.452 -1.5087 -0.4449  0.9875
 3262TIP3    H231278   2.287   5.964   2.369  0.9066  0.5446  1.1196
 3263TIP3   OH231279   3.250   3.291  14.825 -0.0236 -0.3643  0.0261
 3263TIP3    H131280   3.202   3.374  14.824 -0.7605 -0.8067 -0.9895
 3263TIP3    H231281   3.293   3.290  14.911 -1.5537  0.1821  0.8079
 3264TIP3   OH231282   5.053   3.748  13.147  0.2097  0.1412 -0.2742
 3264TIP3    H131283   5.063   3.683  13.216 -0.9027 -0.1339 -0.3718
 3264TIP3    H231284   4.967   3.788  13.162  0.0066  0.1650 -1.4108
 3265TIP3   OH231285   4.171   0.188  13.924  0.0149  0.0706 -0.2799
 3265TIP3    H131286   4.247   0.140  13.958  2.0849  3.5585  0.3304
 3265TIP3    H231287   4.126   0.219  14.002 -1.2708 -0.7778 -0.6708
 3266TIP3   OH231288   5.531   6.659  13.490  0.3591  0.1762  0.4345
 3266TIP3    H131289   5.609   6.629  13.537  0.6609  1.1429  0.5556
 3266TIP3    H231290   5.469   6.587  13.497  1.1314 -0.4725  0.6079
 3267TIP3   OH231291   4.674   0.018   3.100 -0.6622  0.1897 -0.5317
 3267TIP3    H131292   4.663   0.030   3.195  0.1987  0.8319 -0.5037
 3267TIP3    H231293   4.768   0.030   3.085 -0.8456  0.4336 -1.5148
 3268TIP3   OH231294   0.897   5.465   3.908 -0.3669  0.1843 -0.1164
 3268TIP3    H131295   0.925   5.374   3.902 -0.1211  0.1597  1.3407
 3268TIP3    H231296   0.843   5.469   3.987 -1.4365  1.0286 -0.8824
 3269TIP3   OH231297   0.480   2.950  11.536  0.4075  0.0695 -0.4052
 3269TIP3    H131298   0.494   2.869  11.585 -2.9209 -0.7965 -0.7619
 3269TIP3    H231299   0.527   2.937  11.454  0.4728 -1.2142 -0.1784
 3270TIP3   OH231300   6.594   5.672  11.790 -0.6919  0.4195  0.0820
 3270TIP3    H131301   6.664   5.687  11.725 -0.8755  2.1814  0.2775
 3270TIP3    H231302   6.602   5.579  11.812  2.2150  0.8012  0.8089
 3271TIP3   OH231303   2.201   0.684   2.952  0.0140  0.2500  0.2222
 3271TIP3    H131304   2.125   0.641   2.991 -0.8162  0.9835 -0.5664
 3271TIP3    H231305   2.213   0.763   3.004 -0.2422  0.5277 -0.1395
 3272TIP3   OH231306   6.510   6.145  14.996 -0.4218 -0.1762 -0.1086
 3272TIP3    H131307   6.566   6.084  15.044  1.6172  0.9033 -1.0679
 3272TIP3    H231308   6.471   6.092  14.925 -0.7954 -0.9674  0.6762
 3273TIP3   OH231309   6.329   6.356   4.108  0.2626 -0.6176  0.2536
 3273TIP3    H131310   6.265   6.344   4.179 -0.8147  1.6663 -0.2875
 3273TIP3    H231311   6.413   6.364   4.154 -0.2815 -0.2154  1.2072
 3274TIP3   OH231312   4.296   2.390  11.518 -0.3401 -0.1900  0.6147
 3274TIP3    H131313   4.382   2.375  11.557 -2.1734 -2.1478  4.1097
 3274TIP3    H231314   4.266   2.471  11.559 -0.4577  0.1353 -0.1105
 3275TIP3   OH231315   1.224   4.794  11.206 -0.0173  0.3253 -0.4859
 3275TIP3    H131316   1.165   4.861  11.171  0.6832  0.1613 -2.0173
 3275TIP3    H231317   1.201   4.715  11.157 -0.7773 -0.5616  1.2416
 3276TIP3   OH231318   3.625   6.540  15.386 -0.3928 -0.1192  0.0465
 3276TIP3    H131319   3.639   6.597  15.311 -1.0762  1.1248  0.8616
 3276TIP3    H231320   3.706   6.489  15.393  0.3794  1.0494 -0.4130
 3277TIP3   OH231321   2.733   4.493  12.999  0.0497  0.0927 -0.2028
 3277TIP3    H131322   2.664   4.500  12.933  0.2050 -0.8210 -0.4615
 3277TIP3    H231323   2.741   4.582  13.035 -2.1764 -0.0667  0.7718
 3278TIP3   OH231324   2.109   3.332   2.517  0.1457  0.0283  0.6011
 3278TIP3    H131325   2.027   3.311   2.472 -0.3003  0.5994  1.1246
 3278TIP3    H231326   2.135   3.249   2.558  1.1640 -0.7806 -1.6198
 3279TIP3   OH231327   4.731   3.270  10.955 -0.5209 -0.4810  0.4740
 3279TIP3    H131328   4.697   3.308  10.874  0.3943 -1.0925 -0.2197
 3279TIP3    H231329   4.807   3.218  10.927 -0.8566 -1.6124  1.5767
 3280TIP3   OH231330   3.508   4.501   4.075  0.1198  0.1872  0.2822
 3280TIP3    H131331   3.601   4.519   4.088 -0.1925  2.3129 -0.1936
 3280TIP3    H231332   3.504   4.406   4.062  2.0040 -0.1611  1.9418
 3281TIP3   OH231333   0.699   0.328   2.591  0.2123 -0.0762 -0.7446
 3281TIP3    H131334   0.730   0.417   2.608 -0.6917  0.5419 -2.2138
 3281TIP3    H231335   0.700   0.320   2.496  0.5539 -1.7504 -0.6164
 3282TIP3   OH231336   3.194   6.077   0.814 -0.0766  0.5697 -0.3660
 3282TIP3    H131337   3.240   6.155   0.783 -1.6502  1.3458 -0.8243
 3282TIP3    H231338   3.117   6.071   0.757 -0.5641 -0.6648  0.4095
 3283TIP3   OH231339   0.387   2.544   1.641  0.0205 -0.4940 -0.2347
 3283TIP3    H131340   0.296   2.539   1.612 -0.3527 -3.2641  1.2171
 3283TIP3    H231341   0.384   2.602   1.717 -0.1095  1.3449 -1.6207
 3284TIP3   OH231342   2.635   4.128  12.936 -0.4089  0.4158 -0.1284
 3284TIP3    H131343   2.658   4.042  12.972  0.3965 -0.0034 -1.6174
 3284TIP3    H231344   2.719   4.167  12.912 -0.9413  0.5938 -1.7670
 3285TIP3   OH231345   5.203   2.214   5.257  0.1713  0.3093 -0.7475
 3285TIP3    H131346   5.244   2.138   5.299  0.3785  0.2956 -0.9745
 3285TIP3    H231347   5.109   2.197   5.264  0.2053  0.2822 -0.3318
 3286TIP3   OH231348   4.421   1.713   2.224 -0.3009  0.3331 -0.0312
 3286TIP3    H131349   4.350   1.741   2.166 -2.2547 -2.1284  1.0848
 3286TIP3    H231350   4.377   1.672   2.298  2.2582  0.4082  1.6104
 3287TIP3   OH231351   5.326   4.787   3.192 -0.0843  0.0277 -0.8036
 3287TIP3    H131352   5.233   4.810   3.192 -0.1311 -0.1682 -0.2940
 3287TIP3    H231353   5.359   4.817   3.277 -0.0163 -1.2568 -0.3677
 3288TIP3   OH231354   1.192   3.350   1.410 -0.0541  0.0567  0.1369
 3288TIP3    H131355   1.112   3.382   1.453  1.3207  1.0891  2.0188
 3288TIP3    H231356   1.222   3.278   1.465  0.4402 -0.1593 -0.4103
 3289TIP3   OH231357   1.984   1.744  13.010 -0.1777  0.4171 -0.1739
 3289TIP3    H131358   1.901   1.786  13.033  0.6252  1.7231  0.4075
 3289TIP3    H231359   2.034   1.813  12.965  0.0397 -0.7786 -1.8397
 3290TIP3   OH231360   2.196   4.034  17.086 -0.2180 -0.4589  0.2700
 3290TIP3    H131361   2.291   4.032  17.070  0.0208  2.0934  1.0391
 3290TIP3    H231362   2.186   4.004  17.176 -0.1724 -1.0842  0.0659
 3291TIP3   OH231363   0.977   0.350  15.885 -0.2324  0.2955 -0.8190
 3291TIP3    H131364   0.947   0.414  15.820 -1.0270 -1.4722 -2.2371
 3291TIP3    H231365   1.073   0.359  15.885 -0.2426  0.4991 -2.0716
 3292TIP3   OH231366   2.320   3.442  11.614 -0.1468  0.4408 -0.0606
 3292TIP3    H131367   2.401   3.412  11.655  0.6121  0.3828 -1.5524
 3292TIP3    H231368   2.253   3.381  11.645  0.7686 -0.7871 -0.4559
 3293TIP3   OH231369   2.591   2.417  14.633  0.3270  0.3956 -0.4304
 3293TIP3    H131370   2.585   2.465  14.716  1.4727 -0.0157 -0.0987
 3293TIP3    H231371   2.507   2.433  14.590  0.5924  2.5112 -0.2255
 3294TIP3   OH231372   4.235   6.036   1.754  0.0506  0.6732  0.0074
 3294TIP3    H131373   4.311   6.051   1.698  0.5480  0.7641  0.6898
 3294TIP3    H231374   4.255   5.955   1.801 -1.3297 -0.5950 -1.5244
 3295TIP3   OH231375   5.372   2.339  13.384  0.0186  0.3343  0.0750
 3295TIP3    H131376   5.463   2.331  13.411 -0.2330  0.0963  0.8683
 3295TIP3    H231377   5.325   2.273  13.437 -0.6168  0.5085 -0.2664
 3296TIP3   OH231378   6.115   5.552  15.949  0.4038  0.2985 -0.0335
 3296TIP3    H131379   6.026   5.538  15.918  0.5959 -0.7704 -0.1446
 3296TIP3    H231380   6.167   5.487  15.902  1.0690  0.2164  0.7918
 3297TIP3   OH231381   6.589   0.551   0.534  0.4192  0.1408  0.4307
 3297TIP3    H131382   6.585   0.635   0.581  1.2816  0.0921  0.5983
 3297TIP3    H231383   6.504   0.511   0.551  0.9859 -0.2053  2.5950
 3298TIP3   OH231384   4.129   5.989  14.551 -1.0471 -0.5198 -0.3139
 3298TIP3    H131385   4.221   6.015  14.565 -2.0146  2.6148  0.5643
 3298TIP3    H231386   4.096   6.053  14.488 -3.0723 -0.5957  0.6485
 3299TIP3   OH231387   2.874   6.819  15.509 -0.8445  0.2358  0.2062
 3299TIP3    H131388   2.789   6.778  15.526 -1.6403  1.4594 -0.7308
 3299TIP3    H231389   2.875   6.834  15.415  1.0349 -1.0780 -0.0191
 3300TIP3   OH231390   6.007   3.692   0.916  0.3249 -0.2018  0.2691
 3300TIP3    H131391   6.023   3.599   0.904 -1.7358 -0.4378 -0.8352
 3300TIP3    H231392   5.915   3.704   0.893  1.2490  2.5635 -2.3088
 3301TIP3   OH231393   3.068   5.939   4.395 -0.2295 -0.7770  0.6181
 3301TIP3    H131394   2.977   5.967   4.385  0.3817  1.2583  0.5381
 3301TIP3    H231395   3.093   5.971   4.482  1.1688  0.9569 -0.3920
 3302TIP3   OH231396   5.314   0.861   6.044  0.1670 -0.0462 -0.4712
 3302TIP3    H131397   5.277   0.876   6.131 -1.2362  1.7074 -1.3464
 3302TIP3    H231398   5.395   0.912   6.044  0.6249 -0.7640  0.1087
 3303TIP3   OH231399   2.184   4.632   0.283  0.4457  0.0683  0.4309
 3303TIP3    H131400   2.136   4.654   0.203 -0.5704  0.8517  1.2457
 3303TIP3    H231401   2.274   4.619   0.254  0.2770  1.3545 -0.6851
 3304TIP3   OH231402   3.461   3.009  16.450  0.0286  0.4745  0.3795
 3304TIP3    H131403   3.548   2.992  16.414 -1.1458 -2.1781 -1.3327
 3304TIP3    H231404   3.459   2.957  16.531  0.8444  2.4091  1.6750
 3305TIP3   OH231405   1.310   2.654   1.708  0.4608 -0.6336 -0.0385
 3305TIP3    H131406   1.301   2.628   1.800  1.9158 -0.4400  0.1670
 3305TIP3    H231407   1.349   2.741   1.711 -2.0088  0.5502 -0.7880
 3306TIP3   OH231408   5.613   2.820   1.234 -0.0639  0.0766 -0.6245
 3306TIP3    H131409   5.649   2.770   1.160  0.4097 -2.6408  1.3636
 3306TIP3    H231410   5.550   2.761   1.274 -0.7178  1.7346  0.8516
 3307TIP3   OH231411   5.884   4.484   1.723  0.1957  0.2925  0.0033
 3307TIP3    H131412   5.809   4.477   1.663  0.2551 -0.2648 -0.0054
 3307TIP3    H231413   5.945   4.418   1.692 -0.3516 -0.9541  1.5216
 3308TIP3   OH231414   1.837   5.512   4.848 -0.7639 -0.2561  0.3420
 3308TIP3    H131415   1.782   5.587   4.869  0.0119  0.7859 -1.3090
 3308TIP3    H231416   1.901   5.545   4.786  0.8559 -1.8072  1.1268
 3309TIP3   OH231417   3.944   3.920   5.943 -0.2567  0.1644  0.1284
 3309TIP3    H131418   3.957   3.957   6.030 -1.3131 -0.1895  0.4437
 3309TIP3    H231419   3.986   3.983   5.884  0.9409  0.1182  0.9316
 3310TIP3   OH231420   0.828   1.781   3.130  0.0571 -0.1217 -0.0942
 3310TIP3    H131421   0.791   1.853   3.181  0.8180  0.0926  0.1577
 3310TIP3    H231422   0.794   1.702   3.172  1.1874  0.0358  1.1388
 3311TIP3   OH231423   3.856   4.686  14.610 -0.2415  0.2988  0.9183
 3311TIP3    H131424   3.884   4.775  14.628  0.7919 -0.2891  2.3488
 3311TIP3    H231425   3.921   4.631  14.654 -1.1170 -1.1521  0.4466
 3312TIP3   OH231426   5.369   2.838  11.104 -0.3241  0.4264 -0.9706
 3312TIP3    H131427   5.413   2.902  11.048  1.3441 -0.1878 -0.3944
 3312TIP3    H231428   5.439   2.779  11.132 -1.4929 -0.4485  0.1533
 3313TIP3   OH231429   2.174   4.988  11.828  0.4728  0.3207  0.1912
 3313TIP3    H131430   2.137   5.062  11.779 -0.8902 -0.7750 -0.4788
 3313TIP3    H231431   2.098   4.951  11.874  1.0483 -1.0093  0.0691
 3314TIP3   OH231432   0.938   3.053   0.403 -0.5296  0.0884 -0.4804
 3314TIP3    H131433   0.925   2.981   0.464  0.0515 -0.3834 -0.9074
 3314TIP3    H231434   0.987   3.119   0.453 -2.0606  0.6906  0.2654
 3315TIP3   OH231435   2.499   4.145   0.300 -0.0401 -0.4730  0.4560
 3315TIP3    H131436   2.466   4.124   0.387 -0.1950 -1.1583  0.2303
 3315TIP3    H231437   2.592   4.163   0.314 -0.2425  0.2662  0.8935
 3316TIP3   OH231438   3.671   4.720  13.834 -0.2347  0.2718 -0.1011
 3316TIP3    H131439   3.741   4.756  13.779  0.8911 -1.8596 -0.1318
 3316TIP3    H231440   3.653   4.789  13.898  1.9067  0.8584 -0.0786
 3317TIP3   OH231441   3.249   0.217  12.805  0.1538  0.5738 -0.4678
 3317TIP3    H131442   3.280   0.303  12.779 -1.4193  1.4037  0.3220
 3317TIP3    H231443   3.169   0.203  12.754 -0.2443  0.0973  0.2679
 3318TIP3   OH231444   0.432   2.423  12.149  0.1072 -0.5417 -0.5716
 3318TIP3    H131445   0.416   2.361  12.078  1.3325  0.7263 -1.9862
 3318TIP3    H231446   0.528   2.430  12.154  0.0662 -1.0379  1.6064
 3319TIP3   OH231447   1.770   1.870   4.114  0.2417 -0.1752  0.4221
 3319TIP3    H131448   1.764   1.886   4.020  1.1161 -0.8151  0.2480
 3319TIP3    H231449   1.705   1.802   4.131 -2.4810  2.4743  0.9214
 3320TIP3   OH231450   0.700   1.646  16.303  0.4214  0.2930 -0.1705
 3320TIP3    H131451   0.775   1.587  16.313 -0.0531 -0.0030  1.8302
 3320TIP3    H231452   0.639   1.599  16.247  1.5749  0.3809 -1.5094
 3321TIP3   OH231453   4.826   3.979  11.563 -0.4165  0.4165  0.7689
 3321TIP3    H131454   4.772   3.941  11.632 -1.5877 -0.7738 -0.7545
 3321TIP3    H231455   4.793   4.068  11.553 -0.3937  0.5154  1.5977
 3322TIP3   OH231456   6.080   3.022  16.965  0.6586  0.0555 -0.3249
 3322TIP3    H131457   6.109   2.933  16.946  3.0491  0.7125  0.1256
 3322TIP3    H231458   6.100   3.034  17.058 -1.1084  0.5274  0.0064
 3323TIP3   OH231459   6.135   4.906  16.164  0.4177  1.1130 -0.0281
 3323TIP3    H131460   6.085   4.903  16.246  1.0531 -0.5205  0.3315
 3323TIP3    H231461   6.202   4.973  16.178  2.7125 -1.5169  2.1269
 3324TIP3   OH231462   0.736   4.318  12.974  0.2240 -0.0903 -0.2857
 3324TIP3    H131463   0.727   4.373  13.052  0.4493  1.5476 -1.3996
 3324TIP3    H231464   0.825   4.284  12.979  1.4598  2.7802 -1.5720
 3325TIP3   OH231465   4.629   3.196   3.551  0.1780  0.0398  0.4351
 3325TIP3    H131466   4.714   3.219   3.512 -1.5799 -0.6727 -4.1658
 3325TIP3    H231467   4.611   3.266   3.613  2.7336  1.8694 -0.7727
 3326TIP3   OH231468   3.938   3.878   1.346 -0.5185  0.2085  0.1288
 3326TIP3    H131469   3.931   3.870   1.441  0.5046 -0.6502  0.1448
 3326TIP3    H231470   3.992   3.803   1.320 -0.6359  0.5457 -1.1068
 3327TIP3   OH231471   3.560   1.552  17.123  1.1880  0.3477  0.1547
 3327TIP3    H131472   3.605   1.471  17.098  1.4940  0.5863 -0.0741
 3327TIP3    H231473   3.496   1.567  17.052  0.2494 -0.3751  0.8426
 3328TIP3   OH231474   2.949   2.905  14.430  0.0428 -0.1547 -0.4010
 3328TIP3    H131475   2.991   2.826  14.464  2.0308  0.1695 -1.9677
 3328TIP3    H231476   2.961   2.970  14.499  0.0955 -0.7110  0.1164
 3329TIP3   OH231477   4.369   3.113   2.887 -0.0601 -0.3304  0.4138
 3329TIP3    H131478   4.289   3.088   2.840 -0.2539 -0.3624  0.7586
 3329TIP3    H231479   4.350   3.092   2.978 -0.2628  1.1561  0.7330
 3330TIP3   OH231480   5.203   2.772   5.299 -0.1647 -0.2710  0.9630
 3330TIP3    H131481   5.176   2.683   5.322 -0.2077 -0.5584 -0.1508
 3330TIP3    H231482   5.155   2.828   5.360 -0.8927 -0.9581  1.0320
 3331TIP3   OH231483   6.537   0.078   1.803  0.0069 -0.4066 -0.3951
 3331TIP3    H131484   6.597   0.153   1.801 -0.4385 -0.0594 -0.6830
 3331TIP3    H231485   6.576   0.018   1.867 -0.3394  0.6492  0.8092
 3332TIP3   OH231486   0.320   1.267   1.957  0.1373 -0.0821 -0.4368
 3332TIP3    H131487   0.321   1.347   2.008  0.3890 -0.7632  0.6472
 3332TIP3    H231488   0.229   1.238   1.959  0.0827  0.0791 -0.6602
 3333TIP3   OH231489   0.945   3.771   2.349  0.7292  0.7512  0.2994
 3333TIP3    H131490   0.852   3.770   2.326  0.5779 -0.8254  0.9458
 3333TIP3    H231491   0.974   3.680   2.338  2.7087  1.5819 -1.9307
 3334TIP3   OH231492   5.539   5.357   4.783 -0.5047 -0.6919  0.8819
 3334TIP3    H131493   5.620   5.307   4.774 -0.2183 -0.2719  1.2004
 3334TIP3    H231494   5.477   5.294   4.820 -0.1370 -0.8065  1.3027
 3335TIP3   OH231495   0.867   6.813  16.301  0.0187 -0.2553  0.4006
 3335TIP3    H131496   0.871   6.894  16.249  0.2899  0.3854  1.3938
 3335TIP3    H231497   0.942   6.761  16.271  1.2667  0.9059  1.4149
 3336TIP3   OH231498   0.240   4.355   4.922  0.3460 -0.2828  0.5618
 3336TIP3    H131499   0.159   4.304   4.918 -0.2133  0.5231  1.4885
 3336TIP3    H231500   0.212   4.445   4.935  1.3773  0.0944  0.2668
 3337TIP3   OH231501   0.368   3.772   4.544 -0.1032 -0.3241  0.2784
 3337TIP3    H131502   0.401   3.841   4.600  1.1809  0.1860 -1.0691
 3337TIP3    H231503   0.273   3.789   4.538 -0.0001  0.5366  1.0136
 3338TIP3   OH231504   6.768   3.476   3.861 -0.2830  0.1802 -0.4606
 3338TIP3    H131505   6.758   3.561   3.904  1.8475  0.3565 -0.2680
 3338TIP3    H231506   6.707   3.419   3.908  0.2822  0.9372  1.2550
 3339TIP3   OH231507   2.250   4.868   5.310  0.4284  0.0282  0.0111
 3339TIP3    H131508   2.187   4.838   5.375  0.7376 -1.6994 -0.4666
 3339TIP3    H231509   2.308   4.793   5.296  0.9640  0.7125 -1.5292
 3340TIP3   OH231510   3.095   1.958   3.796 -0.3852  0.0325  0.0304
 3340TIP3    H131511   3.136   1.878   3.826 -0.0427  0.2379  0.1112
 3340TIP3    H231512   3.166   2.009   3.756 -0.0701  1.4069  2.2484
 3341TIP3   OH231513   4.063   6.813  12.211 -0.5721  0.2805  0.2541
 3341TIP3    H131514   4.114   6.873  12.156 -1.3093  1.3555  0.7143
 3341TIP3    H231515   4.128   6.775  12.271 -0.0305  0.2994 -0.3090
 3342TIP3   OH231516   3.527   2.049  14.520  0.2714 -0.4064 -0.4897
 3342TIP3    H131517   3.450   2.077  14.470 -0.0075  0.0462  0.1934
 3342TIP3    H231518   3.506   2.071  14.611  0.8014 -1.1816 -0.1776
 3343TIP3   OH231519   1.018   4.798   0.035 -0.5292  0.8911  0.0911
 3343TIP3    H131520   0.985   4.860   0.099 -0.9838  0.6522  0.0902
 3343TIP3    H231521   1.089   4.752   0.080 -0.9347  0.6327  0.4604
 3344TIP3   OH231522   4.184   4.568  16.276  0.0766  0.1677 -0.3823
 3344TIP3    H131523   4.253   4.528  16.330 -0.2507  0.0855 -0.0185
 3344TIP3    H231524   4.127   4.612  16.340 -0.7383 -0.5698 -0.5837
 3345TIP3   OH231525   2.550   2.603  15.104  0.0981  0.5253  0.4397
 3345TIP3    H131526   2.459   2.615  15.132 -0.4608 -0.7408 -0.7775
 3345TIP3    H231527   2.561   2.665  15.032 -0.6644 -1.1984 -1.2200
 3346TIP3   OH231528   2.730   0.009  17.266 -0.3561 -0.6794  0.4939
 3346TIP3    H131529   2.712   0.026  17.173 -0.4296  1.1575  0.8158
 3346TIP3    H231530   2.788  -0.066  17.266 -0.6789 -0.9487 -1.0262
 3347TIP3   OH231531   1.056   2.663  11.483 -1.1832  0.1104  0.7928
 3347TIP3    H131532   1.052   2.572  11.511  1.8060 -0.7461 -1.2244
 3347TIP3    H231533   0.979   2.675  11.427 -1.6885 -1.1377  1.2089
 3348TIP3   OH231534   3.989   2.583   5.567  0.1079 -0.1217  0.6367
 3348TIP3    H131535   3.961   2.656   5.622 -0.2882  0.3828 -0.2276
 3348TIP3    H231536   4.030   2.521   5.628  1.8393  1.5017  1.1672
 3349TIP3   OH231537   5.468   0.182  12.415  0.6494 -0.2059  0.0222
 3349TIP3    H131538   5.454   0.088  12.433  2.3777 -1.4135 -4.3470
 3349TIP3    H231539   5.390   0.224  12.451 -0.9025 -3.5077  0.7744
 3350TIP3   OH231540   3.410   4.880  10.713  0.0104  0.1967 -0.7635
 3350TIP3    H131541   3.397   4.953  10.652 -1.4511  1.3960  0.9304
 3350TIP3    H231542   3.505   4.868  10.716  0.1400  0.5651 -2.7337
 3351TIP3   OH231543   1.357   3.517  12.835  0.8711  0.5226 -0.1327
 3351TIP3    H131544   1.273   3.557  12.809  1.0337 -0.0087 -1.5456
 3351TIP3    H231545   1.333   3.449  12.898  0.0829 -0.5764 -1.5893
 3352TIP3   OH231546   4.876   1.389  14.222  0.2378 -0.0524  0.8759
 3352TIP3    H131547   4.963   1.353  14.203  1.0262  2.0805  0.2022
 3352TIP3    H231548   4.877   1.405  14.316 -0.2584 -2.1172  1.2367
 3353TIP3   OH231549   1.386   3.030  14.095 -0.6598 -0.0045  0.3999
 3353TIP3    H131550   1.413   2.949  14.052 -2.0665 -0.2391 -0.0910
 3353TIP3    H231551   1.304   3.007  14.140 -0.8853  1.0451  0.5488
 3354TIP3   OH231552   5.581   0.266   5.461  0.0955 -0.3206  0.4173
 3354TIP3    H131553   5.539   0.219   5.533 -1.2009  0.4392  0.1641
 3354TIP3    H231554   5.524   0.341   5.445  1.7315  0.9285  0.3037
 3355TIP3   OH231555   3.410   6.576   5.690 -0.3613  0.4155 -0.2168
 3355TIP3    H131556   3.393   6.648   5.628 -1.1682  0.7551  0.3835
 3355TIP3    H231557   3.341   6.585   5.756 -1.0770 -1.4987 -0.6578
 3356TIP3   OH231558   5.263   4.975   2.937  0.1636  0.1117  0.4375
 3356TIP3    H131559   5.171   4.965   2.959 -0.2587  0.0750 -1.2663
 3356TIP3    H231560   5.281   4.906   2.873  0.6070  1.8618 -1.3921
 3357TIP3   OH231561   0.366   2.310   4.208  0.0932  0.1334 -0.2979
 3357TIP3    H131562   0.312   2.345   4.137 -0.8961  0.7166  0.7299
 3357TIP3    H231563   0.373   2.382   4.270  1.0269 -0.3495  0.1625
 3358TIP3   OH231564   3.615   3.941  11.934 -0.1270  0.2776  0.1773
 3358TIP3    H131565   3.602   3.846  11.942 -0.2070  0.1915 -0.9969
 3358TIP3    H231566   3.559   3.967  11.861  0.9097  1.0287 -0.3473
 3359TIP3   OH231567   4.121   2.155   2.505  0.5834  0.2517  0.0080
 3359TIP3    H131568   4.217   2.154   2.508  0.5693 -1.5198  0.6547
 3359TIP3    H231569   4.100   2.179   2.415  1.6566 -0.5833 -0.4769
 3360TIP3   OH231570   4.375   5.000  14.294 -0.3949  0.8912 -0.4945
 3360TIP3    H131571   4.377   5.017  14.200  2.9167  1.8520 -0.3343
 3360TIP3    H231572   4.427   4.921  14.306 -0.0852  1.2322  0.5717
 3361TIP3   OH231573   2.884   6.206   4.946  0.4917 -0.2513  0.4197
 3361TIP3    H131574   2.929   6.274   4.995  0.8935 -0.7304  0.7156
 3361TIP3    H231575   2.915   6.218   4.856  0.8047 -0.2417  0.5270
 3362TIP3   OH231576   2.329   4.571   3.871 -0.2934 -0.2323  0.0813
 3362TIP3    H131577   2.405   4.517   3.892  1.0265  1.6253  0.2287
 3362TIP3    H231578   2.313   4.555   3.778  1.8698  1.2403 -0.5768
 3363TIP3   OH231579   1.350   4.581   4.211 -0.8974  0.1804  0.2216
 3363TIP3    H131580   1.366   4.623   4.296 -1.8914 -2.5351  1.8614
 3363TIP3    H231581   1.433   4.588   4.164 -0.4077  1.9642  1.3162
 3364TIP3   OH231582   3.973   1.946   0.918  0.7332 -0.3977 -0.3907
 3364TIP3    H131583   4.020   2.019   0.877  0.1007 -1.0856 -2.4076
 3364TIP3    H231584   3.923   1.906   0.846 -0.8348 -1.3212  1.1665
 3365TIP3   OH231585   5.889   4.543  15.564 -0.4378 -0.0086 -0.1915
 3365TIP3    H131586   5.863   4.540  15.472 -0.8035 -0.9918 -0.0589
 3365TIP3    H231587   5.964   4.484  15.569 -0.1788  0.3408  0.0715
 3366TIP3   OH231588   6.171   5.405  10.920 -0.4201 -0.5251  0.1431
 3366TIP3    H131589   6.237   5.362  10.866  0.2196 -1.2302  1.4449
 3366TIP3    H231590   6.092   5.353  10.907  0.5484 -2.6999  2.3460
 3367TIP3   OH231591   0.980   2.638  15.868 -0.2287  0.4163  0.3939
 3367TIP3    H131592   0.948   2.549  15.880 -0.3045  0.5142  0.9589
 3367TIP3    H231593   1.029   2.636  15.786  0.6393 -0.3889  0.9345
 3368TIP3   OH231594   4.024   6.414   3.253  0.3146  0.3368 -0.1775
 3368TIP3    H131595   3.999   6.491   3.304 -0.5632 -0.4387  0.5802
 3368TIP3    H231596   4.074   6.360   3.314  0.9859  0.3364 -0.7266
 3369TIP3   OH231597   3.840   1.450   0.433 -0.0580 -0.4657 -0.0106
 3369TIP3    H131598   3.756   1.496   0.441  0.4771  0.5687 -0.1466
 3369TIP3    H231599   3.905   1.516   0.459  0.6926 -1.3237  0.2863
 3370TIP3   OH231600   5.827   1.178  13.662 -0.4778  0.0900 -0.1479
 3370TIP3    H131601   5.758   1.124  13.700  0.6649  0.2663  2.2582
 3370TIP3    H231602   5.788   1.213  13.581 -2.8516 -0.5527  0.6787
 3371TIP3   OH231603   4.617   3.781   4.100  0.6183  0.0290  0.1695
 3371TIP3    H131604   4.620   3.701   4.153 -0.1353  0.6878  1.2257
 3371TIP3    H231605   4.548   3.764   4.035 -0.5112  0.3227  1.2591
 3372TIP3   OH231606   2.806   4.271  16.726  0.3021  0.4256  0.3877
 3372TIP3    H131607   2.838   4.344  16.672  0.3050  0.2749  0.1865
 3372TIP3    H231608   2.868   4.200  16.709 -0.5087 -0.0780 -0.4987
 3373TIP3   OH231609   1.313   5.129  17.133 -0.2263 -0.1707  0.1927
 3373TIP3    H131610   1.237   5.162  17.084 -0.6261  0.0277  0.9322
 3373TIP3    H231611   1.332   5.198  17.196  1.3032  0.2844 -0.7612
 3374TIP3   OH231612   4.422   6.150   4.517 -0.0977  0.3394 -0.4545
 3374TIP3    H131613   4.454   6.205   4.589 -0.3281  0.8587 -0.7450
 3374TIP3    H231614   4.340   6.114   4.551  0.2982 -0.2187 -0.0800
 3375TIP3   OH231615   2.446   6.321   3.300  0.5997  0.4281 -0.5056
 3375TIP3    H131616   2.484   6.409   3.299  0.1994  0.6100  0.0523
 3375TIP3    H231617   2.396   6.317   3.381  0.5006 -0.2702 -0.5945
 3376TIP3   OH231618   0.466   3.025   1.018 -0.5602 -0.0397  0.1965
 3376TIP3    H131619   0.487   3.080   1.094 -0.3523  0.7547 -0.4296
 3376TIP3    H231620   0.435   2.943   1.056 -0.0933  0.2143  1.1412
 3377TIP3   OH231621   5.796   1.786   6.252  0.2628 -0.4547 -0.0574
 3377TIP3    H131622   5.790   1.862   6.309 -1.0710  0.0195 -0.8027
 3377TIP3    H231623   5.796   1.822   6.163 -0.2516 -1.2966 -0.4084
 3378TIP3   OH231624   3.651   6.632   5.455 -0.3057  0.4213 -0.3310
 3378TIP3    H131625   3.618   6.706   5.404  1.5224  0.3843 -1.5940
 3378TIP3    H231626   3.655   6.665   5.545 -0.5686  1.4944 -0.6998
 3379TIP3   OH231627   5.872   3.544  14.592  0.3489 -0.1489 -0.2899
 3379TIP3    H131628   5.949   3.576  14.639  0.7888  0.0463 -1.1218
 3379TIP3    H231629   5.830   3.484  14.653  1.5661 -0.8135 -0.0766
 3380TIP3   OH231630   0.077   5.649   2.626  0.0993  0.0476  0.2766
 3380TIP3    H131631   0.032   5.616   2.549  0.0479 -0.0198  0.3363
 3380TIP3    H231632   0.032   5.731   2.648 -1.1933 -0.9653  1.4571
 3381TIP3   OH231633   0.401   6.390  15.767 -0.2220 -0.0881 -0.2227
 3381TIP3    H131634   0.474   6.380  15.705  0.3771  1.9707  0.1079
 3381TIP3    H231635   0.404   6.482  15.791 -2.6362 -0.1147  0.1992
 3382TIP3   OH231636   4.358   2.477   5.619  0.2777 -0.5114  0.0544
 3382TIP3    H131637   4.317   2.396   5.589 -0.3381 -0.1757 -0.0295
 3382TIP3    H231638   4.332   2.542   5.554  1.2091 -0.3576 -0.1732
 3383TIP3   OH231639   0.154   2.308  12.570 -0.5368  0.0810 -0.3537
 3383TIP3    H131640   0.227   2.253  12.599 -0.8434 -0.8636 -1.3382
 3383TIP3    H231641   0.179   2.397  12.597 -0.4360 -0.6406  2.0522
 3384TIP3   OH231642   2.916   3.347   0.264 -0.1725 -0.3051  0.2287
 3384TIP3    H131643   2.884   3.295   0.338 -1.0387 -0.5010 -0.2743
 3384TIP3    H231644   2.993   3.392   0.298 -0.3475 -0.6761  1.1421
 3385TIP3   OH231645   0.342   2.174  11.777  0.3408  0.5138  0.0925
 3385TIP3    H131646   0.292   2.168  11.858 -0.5721  0.4512 -0.4622
 3385TIP3    H231647   0.365   2.083  11.755  0.0471  0.4724 -0.0458
 3386TIP3   OH231648   3.252   5.955   2.519 -0.2237  0.4509  0.0016
 3386TIP3    H131649   3.259   6.046   2.490 -1.1628  1.1621  1.9187
 3386TIP3    H231650   3.292   5.954   2.606  1.6700 -1.4301 -0.8781
 3387TIP3   OH231651   0.739   1.033  16.756 -0.1664 -0.0533 -0.2128
 3387TIP3    H131652   0.822   1.057  16.797  0.2481 -3.3879  1.0596
 3387TIP3    H231653   0.764   0.976  16.683 -1.2868 -0.3186 -0.4007
 3388TIP3   OH231654   1.286   2.615   4.820 -0.1956 -0.7958 -0.5999
 3388TIP3    H131655   1.350   2.679   4.853 -0.8811 -0.8762  0.9725
 3388TIP3    H231656   1.284   2.629   4.726  1.8707 -0.5465 -0.6311
 3389TIP3   OH231657   5.904   3.762   2.265 -0.2475 -0.3253  0.1649
 3389TIP3    H131658   5.898   3.856   2.248  0.3582  0.1865  2.6014
 3389TIP3    H231659   5.825   3.725   2.225 -1.2180  1.4197  0.3998
 3390TIP3   OH231660   0.213   1.888  14.006 -0.4250  0.5877 -0.2387
 3390TIP3    H131661   0.133   1.839  14.024  0.6202 -1.1622 -0.3256
 3390TIP3    H231662   0.219   1.951  14.078 -1.3756  0.0799  0.2850
 3391TIP3   OH231663   3.548   2.299   3.633  0.8119 -0.3253 -0.5018
 3391TIP3    H131664   3.627   2.252   3.606  0.5371  1.4503 -4.7366
 3391TIP3    H231665   3.479   2.232   3.629  1.2049 -0.6601 -2.0133
 3392TIP3   OH231666   3.084   1.655  12.984 -0.0198  0.7610 -0.2178
 3392TIP3    H131667   3.026   1.637  13.057 -1.0001 -3.1122 -1.8479
 3392TIP3    H231668   3.038   1.722  12.932 -2.0577 -0.7169 -0.3634
 3393TIP3   OH231669   4.829   6.575   2.990  0.0355 -0.3920  0.1837
 3393TIP3    H131670   4.790   6.663   2.989  1.5706  0.2848 -0.3848
 3393TIP3    H231671   4.797   6.536   3.072 -2.1522 -0.0082 -0.4341
 3394TIP3   OH231672   5.135   6.770  11.854 -0.3029  0.0333 -0.5589
 3394TIP3    H131673   5.217   6.741  11.895  0.0867  0.8753 -0.7312
 3394TIP3    H231674   5.162   6.818  11.776 -0.9645  0.2274 -0.6757
 3395TIP3   OH231675   0.885   6.158   0.959  0.3513 -0.0022  0.1720
 3395TIP3    H131676   0.869   6.070   0.992  0.4150 -0.5353 -1.1910
 3395TIP3    H231677   0.962   6.188   1.006  1.6965 -1.5574 -0.9842
 3396TIP3   OH231678   2.586   6.022  11.526  0.1792  0.7060 -0.0836
 3396TIP3    H131679   2.620   5.943  11.482  2.3364  1.7426 -0.3311
 3396TIP3    H231680   2.491   6.013  11.520  0.4013 -1.3366 -1.1059
 3397TIP3   OH231681   6.334   0.449   4.575 -0.4115  0.2459  0.1429
 3397TIP3    H131682   6.385   0.520   4.615  1.7159 -0.5180 -1.0965
 3397TIP3    H231683   6.382   0.428   4.495 -0.8857 -2.7053  0.5779
 3398TIP3   OH231684   5.882   4.545   1.313  0.3452  0.3181  0.1764
 3398TIP3    H131685   5.792   4.569   1.292  0.2289  1.2180  1.6915
 3398TIP3    H231686   5.880   4.451   1.325 -0.1610  0.1789 -0.9373
 3399TIP3   OH231687   1.325   3.254  15.638 -0.0744  0.0732  0.5664
 3399TIP3    H131688   1.269   3.244  15.561  0.1229  1.9247  0.1401
 3399TIP3    H231689   1.407   3.212  15.614  0.2227  1.2415 -0.5203
 3400TIP3   OH231690   3.255   1.521  14.394  0.0335 -0.7536  0.6299
 3400TIP3    H131691   3.168   1.488  14.369 -0.8184  2.5383 -1.0101
 3400TIP3    H231692   3.257   1.515  14.489 -1.5452 -1.9248  0.6051
 3401TIP3   OH231693   2.758   2.033  10.632  0.5544 -0.4107  0.1342
 3401TIP3    H131694   2.828   2.090  10.663  1.0655  0.6316 -2.7495
 3401TIP3    H231695   2.698   2.092  10.586  0.8316 -2.0936 -2.4722
 3402TIP3   OH231696   4.041   3.162  14.393  0.0885  0.5233  0.1779
 3402TIP3    H131697   4.061   3.251  14.420  2.7033  0.2819 -0.7477
 3402TIP3    H231698   4.127   3.122  14.380 -1.0657 -1.3722 -1.8670
 3403TIP3   OH231699   2.234   4.753  10.618 -0.2198  0.1185 -0.0645
 3403TIP3    H131700   2.268   4.670  10.587 -0.8492 -0.3375  0.4366
 3403TIP3    H231701   2.285   4.819  10.572 -1.6806 -0.5078 -2.7106
 3404TIP3   OH231702   5.253   4.141  10.875 -0.2335  0.2964  0.4071
 3404TIP3    H131703   5.314   4.207  10.907  0.3589  0.0663 -0.2181
 3404TIP3    H231704   5.308   4.066  10.852 -0.8225 -0.1615  0.4639
 3405TIP3   OH231705   1.975   0.164  15.861 -0.0886  0.5802 -0.6334
 3405TIP3    H131706   2.054   0.137  15.909 -0.7413 -0.7647 -0.3092
 3405TIP3    H231707   2.009   0.207  15.782  0.9737  0.8950 -0.0142
 3406TIP3   OH231708   6.187   3.982  16.420  0.0709  0.1546 -0.2312
 3406TIP3    H131709   6.244   4.022  16.354 -0.6929 -0.8500 -1.5182
 3406TIP3    H231710   6.113   3.948  16.370 -1.7142  1.4898  1.4004
 3407TIP3   OH231711   3.474   3.807   1.907  0.1633  1.1901 -0.1975
 3407TIP3    H131712   3.462   3.783   1.815 -1.3760  0.0932  0.2610
 3407TIP3    H231713   3.389   3.845   1.932  0.5153  1.3228  0.8122
 3408TIP3   OH231714   5.844   2.578  16.573 -0.3590  0.2221  0.4659
 3408TIP3    H131715   5.859   2.490  16.539  0.3644 -1.0198  3.7952
 3408TIP3    H231716   5.865   2.636  16.500 -0.3520 -2.3359 -1.6371
 3409TIP3   OH231717   2.482   5.827  16.657  0.0233 -0.4172  0.4715
 3409TIP3    H131718   2.531   5.758  16.702  0.3363 -1.2421 -1.0992
 3409TIP3    H231719   2.536   5.849  16.581 -1.3821 -0.3613 -0.5207
 3410TIP3   OH231720   5.957   6.009  15.486 -0.9864  0.0577 -0.7667
 3410TIP3    H131721   5.988   5.920  15.504 -2.3284 -0.5637 -1.4300
 3410TIP3    H231722   5.889   6.024  15.551  0.3464  1.2357  0.3856
 3411TIP3   OH231723   3.795   5.440   3.195 -0.1709  0.1306 -0.2057
 3411TIP3    H131724   3.807   5.434   3.100  0.7382  0.2815 -0.1068
 3411TIP3    H231725   3.776   5.532   3.212  1.4361  0.4516 -0.0610
 3412TIP3   OH231726   4.261   2.764  12.963 -0.6960  0.2337 -0.4879
 3412TIP3    H131727   4.261   2.693  13.027  0.0572  0.1310 -0.5994
 3412TIP3    H231728   4.291   2.723  12.882 -1.1252  0.4842 -0.7742
 3413TIP3   OH231729   3.242   0.083   3.094  0.0278  0.6346 -0.2204
 3413TIP3    H131730   3.297   0.070   3.016  0.9570  0.7642  0.3975
 3413TIP3    H231731   3.182   0.009   3.093  2.2839 -1.2741  0.7913
 3414TIP3   OH231732   2.326   5.318   5.909  0.0689 -0.2144 -0.0060
 3414TIP3    H131733   2.288   5.297   5.994  0.1662 -3.3690 -0.6727
 3414TIP3    H231734   2.396   5.380   5.928  0.2211 -1.0595  2.2336
 3415TIP3   OH231735   0.938   5.083   3.043  0.2663  0.5284  0.2734
 3415TIP3    H131736   0.934   5.132   2.961 -0.3757  0.9113  0.5287
 3415TIP3    H231737   0.867   5.020   3.038 -1.7365  2.5751  1.7978
 3416TIP3   OH231738   1.374   5.800  15.787  0.0968  0.4433 -0.5888
 3416TIP3    H131739   1.434   5.851  15.732  0.4474 -0.0089 -0.6341
 3416TIP3    H231740   1.422   5.788  15.869 -0.5675  1.4208 -0.0451
 3417TIP3   OH231741   1.383   3.154   1.187 -0.3301  0.3883  0.3104
 3417TIP3    H131742   1.475   3.180   1.187  0.6960 -2.8112 -2.2465
 3417TIP3    H231743   1.379   3.080   1.248 -0.7174 -0.8130 -1.1293
 3418TIP3   OH231744   2.854   1.574  15.824 -0.5138  1.1161 -0.0041
 3418TIP3    H131745   2.889   1.655  15.787 -2.0541  1.8167  0.0023
 3418TIP3    H231746   2.785   1.548  15.763 -1.4667  0.9928  1.0995
 3419TIP3   OH231747   0.265   4.003   4.997  0.2282  0.1638  0.1277
 3419TIP3    H131748   0.255   4.084   5.048  1.2680  1.5502 -1.7930
 3419TIP3    H231749   0.360   3.995   4.985 -0.0214 -0.0329 -1.7313
 3420TIP3   OH231750   3.055   2.452   4.494  0.3361 -0.3298 -0.5479
 3420TIP3    H131751   2.998   2.392   4.542  2.4133 -2.2361 -0.4359
 3420TIP3    H231752   3.017   2.456   4.406 -1.0372 -0.0954  0.0341
 3421TIP3   OH231753   2.808   4.117  14.706  0.1757 -0.0326  0.3661
 3421TIP3    H131754   2.766   4.052  14.651  0.5847 -0.4780  0.5733
 3421TIP3    H231755   2.752   4.194  14.700  0.1404 -0.1290 -0.5452
 3422TIP3   OH231756   1.749   2.635   5.130  0.1144  0.1676  0.2651
 3422TIP3    H131757   1.778   2.544   5.131 -2.0313 -0.5460 -0.3996
 3422TIP3    H231758   1.788   2.673   5.208  0.2483 -1.5909  1.0783
 3423TIP3   OH231759   0.744   3.918  15.069 -0.2882  0.7152 -0.5459
 3423TIP3    H131760   0.807   3.954  15.007 -0.8184 -0.0351 -1.5307
 3423TIP3    H231761   0.688   3.992  15.092  0.3002  1.1427 -0.4583
 3424TIP3   OH231762   1.997   2.862  13.886 -0.0398 -0.1619 -0.4440
 3424TIP3    H131763   1.939   2.933  13.913  0.3243  0.0100 -0.1151
 3424TIP3    H231764   2.023   2.820  13.967 -0.3661 -0.7632 -0.6480
 3425TIP3   OH231765   2.431   4.055   4.002 -0.1411 -0.3970 -0.9179
 3425TIP3    H131766   2.429   3.992   3.930 -1.3333  1.4604 -2.5795
 3425TIP3    H231767   2.403   4.006   4.079  2.0100 -2.6486 -1.5161
 3426TIP3   OH231768   4.342   1.552   5.292  0.1507  0.2160 -0.1422
 3426TIP3    H131769   4.387   1.469   5.307 -0.9338 -1.0660 -3.5663
 3426TIP3    H231770   4.396   1.597   5.227 -0.3007  1.3137  0.2360
 3427TIP3   OH231771   1.685   2.252  14.786 -0.2391  0.2637  0.1772
 3427TIP3    H131772   1.644   2.338  14.794  1.3668  0.9518  1.2157
 3427TIP3    H231773   1.705   2.243  14.693 -0.5375  0.9510  0.0429
 3428TIP3   OH231774   2.048   0.245   1.664  0.5374 -0.4208  0.0107
 3428TIP3    H131775   2.030   0.324   1.615  0.1971 -0.7058 -0.3260
 3428TIP3    H231776   2.050   0.273   1.756  1.4637  0.1606 -0.1773
 3429TIP3   OH231777   1.447   0.863  14.388  0.1155 -0.1053 -0.2642
 3429TIP3    H131778   1.390   0.790  14.365  0.2285  0.0327 -0.9915
 3429TIP3    H231779   1.395   0.916  14.449  0.3256 -1.2104  0.9062
 3430TIP3   OH231780   6.430   6.484   0.849  0.2415 -0.0967 -0.0626
 3430TIP3    H131781   6.367   6.531   0.903  0.1274  0.7786 -0.9430
 3430TIP3    H231782   6.501   6.462   0.910 -1.8900 -3.1019  1.4650
 3431TIP3   OH231783   1.540   5.170  16.669 -0.2915  0.5357  0.1963
 3431TIP3    H131784   1.559   5.094  16.613 -0.3507 -0.0823  0.9914
 3431TIP3    H231785   1.522   5.131  16.755 -1.4052  1.3919  0.3522
 3432TIP3   OH231786   3.804   0.863   4.611 -0.2814  0.3348  0.4743
 3432TIP3    H131787   3.887   0.884   4.653 -0.8323  1.0335  1.2465
 3432TIP3    H231788   3.740   0.917   4.658 -1.1835 -0.2894 -0.0281
 3433TIP3   OH231789   6.793   1.800  14.070 -0.3079  0.1411  0.2771
 3433TIP3    H131790   6.783   1.709  14.043  1.8106  0.1602 -0.6830
 3433TIP3    H231791   6.758   1.803  14.159 -0.0925 -1.6694  0.4338
 3434TIP3   OH231792   3.356   4.292   5.927 -0.3712 -0.0198  0.2292
 3434TIP3    H131793   3.344   4.327   6.015 -1.1000 -1.2780  0.6384
 3434TIP3    H231794   3.307   4.209   5.926 -1.3263  0.5163 -1.6925
 3435TIP3   OH231795   6.029   5.481   1.722  0.1412  0.6700  0.3995
 3435TIP3    H131796   5.997   5.445   1.805  0.3540 -0.7577 -0.1115
 3435TIP3    H231797   6.069   5.564   1.745  0.0072  0.3783  1.7021
 3436TIP3   OH231798   0.633   0.412  13.521  0.5823  0.1409  0.0119
 3436TIP3    H131799   0.593   0.409  13.607  0.0253  0.7436 -0.2190
 3436TIP3    H231800   0.725   0.391  13.536 -0.1120 -2.8812  0.3346
 3437TIP3   OH231801   1.379   1.045  11.360  0.0620 -0.7381 -0.4912
 3437TIP3    H131802   1.313   1.046  11.429  0.9696  2.8055  0.4338
 3437TIP3    H231803   1.456   1.004  11.401 -0.2353 -1.0505 -0.2471
 3438TIP3   OH231804   4.612   5.296   5.302  0.1659 -0.0898 -0.0334
 3438TIP3    H131805   4.583   5.368   5.246 -1.1131 -0.0516  0.6686
 3438TIP3    H231806   4.685   5.257   5.255  0.5640  1.3675 -0.6496
 3439TIP3   OH231807   1.165   0.031   0.987  0.0099 -0.2865  0.4303
 3439TIP3    H131808   1.105  -0.008   1.049 -0.1129 -0.6107  0.1073
 3439TIP3    H231809   1.246  -0.020   0.996 -0.0137 -0.3458  0.3163
 3440TIP3   OH231810   6.235   3.087  14.556 -0.6604 -0.5307 -0.0635
 3440TIP3    H131811   6.304   3.035  14.514  0.7974 -1.6743  3.5685
 3440TIP3    H231812   6.273   3.174  14.565 -0.8776 -0.3513 -0.8817
 3441TIP3   OH231813   3.239   1.408  16.064 -0.2235 -0.0754 -0.1636
 3441TIP3    H131814   3.149   1.375  16.061 -0.2763  0.1020 -0.5996
 3441TIP3    H231815   3.285   1.347  16.122 -0.3590 -0.8173 -0.8333
 3442TIP3   OH231816   0.378   5.497   1.986 -0.3685  0.3552 -0.5388
 3442TIP3    H131817   0.353   5.413   2.025 -1.5772  1.1548  0.4371
 3442TIP3    H231818   0.295   5.538   1.962  0.1530  1.6849 -0.1139
 3443TIP3   OH231819   4.836   0.210   3.286 -0.2352  0.4245  0.0921
 3443TIP3    H131820   4.769   0.269   3.321  2.0047  2.4313  1.2279
 3443TIP3    H231821   4.911   0.268   3.267  0.8944 -1.6057 -1.9121
 3444TIP3   OH231822   2.566   3.867   5.292  0.6121 -0.5187 -0.1800
 3444TIP3    H131823   2.591   3.802   5.227 -1.2876 -1.3151 -0.1561
 3444TIP3    H231824   2.472   3.880   5.279  0.6107  0.9022  0.9929
 3445TIP3   OH231825   4.546   0.410  14.796 -0.1198  0.5343 -0.3298
 3445TIP3    H131826   4.593   0.329  14.778 -2.2100 -0.6510 -0.6053
 3445TIP3    H231827   4.603   0.458  14.857  2.0946 -0.1794 -1.7840
 3446TIP3   OH231828   4.520   2.602   6.783 -0.0033 -0.1648 -0.7353
 3446TIP3    H131829   4.440   2.548   6.784 -0.1996  0.1161 -0.9780
 3446TIP3    H231830   4.591   2.541   6.801 -0.3419 -0.3049  0.1163
 3447TIP3   OH231831   1.575   3.754   2.994  0.6557 -0.6401 -0.0379
 3447TIP3    H131832   1.609   3.778   2.908 -0.9885  0.2847 -0.4544
 3447TIP3    H231833   1.550   3.837   3.034  0.8298 -1.1193  1.0771
 3448TIP3   OH231834   4.238   5.518   5.896 -0.2335 -0.0599  0.4213
 3448TIP3    H131835   4.326   5.524   5.858 -0.2001  0.7955  0.6296
 3448TIP3    H231836   4.238   5.434   5.943  0.0775 -0.6238 -0.5528
 3449TIP3   OH231837   0.325   3.434  15.500  0.3496  0.1321 -0.0860
 3449TIP3    H131838   0.391   3.477  15.445  1.1468  0.9660  1.4985
 3449TIP3    H231839   0.351   3.454  15.589 -0.6037 -1.7078  0.6358
 3450TIP3   OH231840   0.153   4.564   5.751  0.4742 -0.1786  0.5127
 3450TIP3    H131841   0.103   4.536   5.828 -1.6734 -1.1685 -1.1832
 3450TIP3    H231842   0.157   4.486   5.695  1.1295  0.7884 -0.8223
 3451TIP3   OH231843   4.036   1.712   1.093  0.1570 -0.2547  0.6293
 3451TIP3    H131844   3.984   1.779   1.049  1.0072  0.1640  0.2557
 3451TIP3    H231845   4.126   1.740   1.082  0.4551 -0.8332  1.5148
 3452TIP3   OH231846   5.636   5.023  12.158 -0.0387 -0.2932  0.2749
 3452TIP3    H131847   5.624   5.099  12.215 -0.0118 -0.2786  0.2612
 3452TIP3    H231848   5.548   4.989  12.144 -0.0315 -0.3925  0.4582
 3453TIP3   OH231849   0.663   5.839  12.363  0.3461  0.3832  0.3805
 3453TIP3    H131850   0.736   5.894  12.391  0.4245  0.7887 -0.6050
 3453TIP3    H231851   0.654   5.857  12.270  0.4970 -1.4356  0.0152
 3454TIP3   OH231852   1.184   0.719   2.425  0.1002 -0.3716  0.2454
 3454TIP3    H131853   1.263   0.767   2.402 -1.2897  0.8256 -2.1788
 3454TIP3    H231854   1.175   0.652   2.357 -0.3448 -1.2989  1.1871
 3455TIP3   OH231855   4.570   1.273   0.831 -0.0639  0.5149  0.3581
 3455TIP3    H131856   4.629   1.210   0.871  1.5884  1.9512  0.2513
 3455TIP3    H231857   4.519   1.308   0.904 -0.5748 -0.4915  0.4931
 3456TIP3   OH231858   2.532   6.605   4.873  0.0349 -0.0224  0.2004
 3456TIP3    H131859   2.610   6.601   4.929 -0.2003 -0.4307  0.5021
 3456TIP3    H231860   2.562   6.578   4.787  0.1496 -0.5567  0.4040
 3457TIP3   OH231861   6.166   0.130  14.832 -0.2321 -0.6206 -0.4237
 3457TIP3    H131862   6.074   0.117  14.855 -0.1932  2.5172  1.7667
 3457TIP3    H231863   6.214   0.073  14.892 -0.6327 -0.0883  0.4122
 3458TIP3   OH231864   4.290   5.501  11.193  0.0976  0.1753 -0.2112
 3458TIP3    H131865   4.360   5.444  11.227 -0.0092  0.2962  0.2123
 3458TIP3    H231866   4.270   5.465  11.107  0.2839 -0.2091 -0.0967
 3459TIP3   OH231867   0.281   6.778   5.509  0.2204  0.5212  0.0172
 3459TIP3    H131868   0.341   6.852   5.506 -0.9462  1.4580 -0.7123
 3459TIP3    H231869   0.205   6.810   5.558 -1.2647  0.5856 -2.2135
 3460TIP3   OH231870   4.308   5.669  12.036  0.1316  0.6052 -0.7113
 3460TIP3    H131871   4.303   5.744  11.977  2.3662  0.7569 -0.7496
 3460TIP3    H231872   4.401   5.661  12.058 -0.4294 -0.4384  1.5069
 3461TIP3   OH231873   0.036   2.764  13.180  0.0027 -0.2492  0.2661
 3461TIP3    H131874   0.004   2.831  13.120  0.9834 -0.1045 -0.1142
 3461TIP3    H231875   0.043   2.685  13.125  1.7250  0.0968 -0.0410
 3462TIP3   OH231876   6.659   0.837  14.066 -0.0331  0.4740 -0.6571
 3462TIP3    H131877   6.677   0.931  14.076 -0.9553  0.6023 -0.1856
 3462TIP3    H231878   6.563   0.832  14.062  0.0634 -0.2994 -2.1434
 3463TIP3   OH231879   3.151   6.344   4.565  0.3937 -0.2735  0.5231
 3463TIP3    H131880   3.231   6.323   4.517  1.9178  0.8805  2.5009
 3463TIP3    H231881   3.120   6.426   4.527  1.8323  0.8623  1.7513
 3464TIP3   OH231882   3.194   4.768  16.792 -0.7175 -0.3259 -0.3385
 3464TIP3    H131883   3.174   4.706  16.722  2.6819 -1.1446 -0.6527
 3464TIP3    H231884   3.273   4.813  16.763 -0.7174  1.1420  1.8240
 3465TIP3   OH231885   1.279   2.641   1.212  0.4872  0.1907 -0.2808
 3465TIP3    H131886   1.329   2.583   1.269  0.0182 -1.0488 -1.1097
 3465TIP3    H231887   1.278   2.725   1.258 -1.6100 -1.2971  2.5682
 3466TIP3   OH231888   4.688   3.918  14.815  0.1013 -0.7949 -1.1986
 3466TIP3    H131889   4.644   3.965  14.886  1.2143  0.3549 -1.2577
 3466TIP3    H231890   4.776   3.901  14.849  0.8396  0.3286 -2.5589
 3467TIP3   OH231891   2.418   0.324   4.000 -0.4028 -0.0685 -0.3175
 3467TIP3    H131892   2.329   0.345   4.029 -0.2666 -0.0488  0.0795
 3467TIP3    H231893   2.405   0.272   3.920 -0.7381  1.2008 -1.1023
 3468TIP3   OH231894   4.169   6.294   1.786 -0.0635  0.1817  0.5160
 3468TIP3    H131895   4.202   6.204   1.789 -0.4059  0.0795  1.3938
 3468TIP3    H231896   4.109   6.300   1.860  0.2866  1.2732  0.7178
 3469TIP3   OH231897   4.401   0.386  11.598  0.4331  0.6349  0.1161
 3469TIP3    H131898   4.368   0.341  11.676  2.1739  0.6455  0.8879
 3469TIP3    H231899   4.333   0.449  11.575 -0.2133  0.4446  1.4878
 3470TIP3   OH231900   5.274   4.261  14.990  0.0922  0.4422 -0.0000
 3470TIP3    H131901   5.241   4.177  15.022 -0.2336  0.6842  0.3011
 3470TIP3    H231902   5.203   4.323  15.005  0.9407  1.1222  1.3081
 3471TIP3   OH231903   1.752   5.083   2.555  1.2039 -0.3294 -0.1637
 3471TIP3    H131904   1.779   5.161   2.603  1.2059  0.0768 -0.8055
 3471TIP3    H231905   1.780   5.100   2.465  1.8196 -1.3721 -0.1775
 3472TIP3   OH231906   4.246   4.024   0.131 -0.1982 -0.1381  0.5299
 3472TIP3    H131907   4.319   4.071   0.093  0.0700  0.0407  1.2658
 3472TIP3    H231908   4.173   4.039   0.071  0.5500 -0.9094 -0.5744
 3473TIP3   OH231909   3.013   6.390   1.390  0.0976  0.3624  0.6340
 3473TIP3    H131910   3.065   6.405   1.311  1.0650  0.9461  1.3736
 3473TIP3    H231911   2.930   6.435   1.373  0.0305 -0.0956 -0.3217
 3474TIP3   OH231912   2.511   4.293   3.707 -0.2718  0.2246  0.2025
 3474TIP3    H131913   2.519   4.316   3.614 -0.8118 -1.3223 -0.2312
 3474TIP3    H231914   2.565   4.215   3.718 -0.8432 -0.0726  1.0109
 3475TIP3   OH231915   6.325   2.911  11.858  0.7388 -0.0436 -0.4658
 3475TIP3    H131916   6.262   2.908  11.931  0.5856  1.3788 -0.5331
 3475TIP3    H231917   6.399   2.858  11.888  0.3267 -0.1453  0.3930
 3476TIP3   OH231918   4.328   2.348  17.108 -0.0037  0.4611 -0.1000
 3476TIP3    H131919   4.277   2.404  17.167  0.5427  0.8350  0.0189
 3476TIP3    H231920   4.399   2.404  17.078  0.1670  0.0287 -0.5024
 3477TIP3   OH231921   3.960   1.773   0.241  0.8105 -0.6875  0.0624
 3477TIP3    H131922   3.979   1.814   0.326  0.3581  0.1847 -0.2506
 3477TIP3    H231923   4.044   1.738   0.212  1.1763 -0.1124  0.4073
 3478TIP3   OH231924   3.209   0.780   1.537 -0.6055  0.1130 -0.1942
 3478TIP3    H131925   3.301   0.790   1.511 -0.4762 -2.1517 -0.7184
 3478TIP3    H231926   3.207   0.807   1.629  0.9135 -1.3984  0.2943
 3479TIP3   OH231927   4.145   6.501   2.582  0.4336 -0.0123  0.1996
 3479TIP3    H131928   4.134   6.551   2.502  1.0905 -1.0829 -0.5782
 3479TIP3    H231929   4.238   6.481   2.586 -0.1557 -3.3178 -0.8625
 3480TIP3   OH231930   4.323   3.627   0.534  0.0768 -0.1322 -1.1234
 3480TIP3    H131931   4.388   3.688   0.498  0.4160  0.8301  1.0208
 3480TIP3    H231932   4.342   3.544   0.490  1.7590  0.5113 -1.6753
 3481TIP3   OH231933   4.754   3.601   0.277 -0.1488 -0.0209  0.5321
 3481TIP3    H131934   4.709   3.557   0.349 -0.0638 -0.7555  0.1366
 3481TIP3    H231935   4.837   3.555   0.268 -0.8359 -0.9729 -1.0751
 3482TIP3   OH231936   6.013   5.720  16.142 -0.0243  0.4339  0.3906
 3482TIP3    H131937   6.042   5.714  16.233  0.4246  2.5036  0.4125
 3482TIP3    H231938   6.056   5.646  16.099  2.6680  1.5096  1.1257
 3483TIP3   OH231939   6.403   3.703   5.559  0.1681 -0.3368 -0.1058
 3483TIP3    H131940   6.410   3.722   5.653 -4.6151 -0.2770  0.3211
 3483TIP3    H231941   6.400   3.608   5.554  1.1152 -0.3670 -0.3181
 3484TIP3   OH231942   4.165   2.324  15.275 -0.1913 -0.1306 -0.5508
 3484TIP3    H131943   4.119   2.395  15.231  0.2052  1.1102  0.9784
 3484TIP3    H231944   4.100   2.285  15.333 -0.2077 -0.5280 -0.8357
 3485TIP3   OH231945   0.055   0.851  15.108  0.1512  0.2837  0.3770
 3485TIP3    H131946   0.006   0.781  15.150  1.4550 -0.3590  0.8450
 3485TIP3    H231947  -0.011   0.900  15.060 -0.5086 -2.5716 -1.7864
 3486TIP3   OH231948   3.546   6.593   2.157  0.2948 -0.1975 -0.2277
 3486TIP3    H131949   3.528   6.656   2.226  1.1251  0.1031 -0.2833
 3486TIP3    H231950   3.539   6.644   2.076 -0.2503 -0.4528 -0.3416
 3487TIP3   OH231951   2.235   5.200   2.448  0.1617  0.4402  0.0590
 3487TIP3    H131952   2.285   5.122   2.423  0.9544  0.2655  2.0761
 3487TIP3    H231953   2.157   5.166   2.491 -0.7330  0.7496 -1.2804
 3488TIP3   OH231954   0.665   0.543   3.845  0.0409 -0.2534 -0.1509
 3488TIP3    H131955   0.656   0.532   3.939  2.7259  1.7064  0.4224
 3488TIP3    H231956   0.700   0.632   3.835  0.9871 -0.8878 -2.9002
 3489TIP3   OH231957   4.106   6.388   0.239  0.2484 -0.0919 -0.7757
 3489TIP3    H131958   4.079   6.347   0.321  1.2264 -0.9572 -0.8760
 3489TIP3    H231959   4.039   6.362   0.176 -0.1406  0.0160 -0.4093
 3490TIP3   OH231960   4.469   5.386   5.730  0.0761 -0.5106 -0.1830
 3490TIP3    H131961   4.424   5.372   5.647 -1.8991 -0.3784  0.8480
 3490TIP3    H231962   4.541   5.323   5.728 -1.5828 -2.4649 -0.8284
 3491TIP3   OH231963   0.742   2.909   4.267  0.3920 -0.3087 -0.0018
 3491TIP3    H131964   0.658   2.952   4.285  0.7620  0.4623 -0.0848
 3491TIP3    H231965   0.796   2.978   4.229  1.2198 -0.6852  0.4903
 3492TIP3   OH231966   3.885   1.685   4.951 -0.1309 -0.2066 -0.0543
 3492TIP3    H131967   3.948   1.626   4.909  0.1185  0.5422 -0.7373
 3492TIP3    H231968   3.800   1.656   4.916 -0.1207 -0.8767  0.4652
 3493TIP3   OH231969   5.214   1.245  16.125  0.6282 -0.3585 -0.3306
 3493TIP3    H131970   5.301   1.206  16.132 -0.0860 -2.0255 -0.2814
 3493TIP3    H231971   5.223   1.315  16.061  2.1281 -0.1162  0.1231
 3494TIP3   OH231972   2.932   3.055   4.684  0.0545 -0.3649  0.1816
 3494TIP3    H131973   2.947   3.047   4.779  2.9550  4.6447  0.3202
 3494TIP3    H231974   2.869   3.126   4.675 -0.4066 -0.9786 -1.6692
 3495TIP3   OH231975   3.589   0.141  11.167 -0.1462  0.4203  0.2762
 3495TIP3    H131976   3.505   0.148  11.121  0.1607 -1.0919 -0.5770
 3495TIP3    H231977   3.566   0.143  11.259 -1.1640 -0.2342  0.0466
 3496TIP3   OH231978   2.377   2.373  12.291  0.5558 -0.3169 -0.4692
 3496TIP3    H131979   2.468   2.396  12.305  0.4759 -0.7040  0.6686
 3496TIP3    H231980   2.331   2.408  12.367  0.1663 -2.6100  0.3611
 3497TIP3   OH231981   2.184   4.625  14.951 -0.2983  0.1357 -0.2362
 3497TIP3    H131982   2.196   4.631  15.045 -0.6184 -3.2829  0.0852
 3497TIP3    H231983   2.274   4.622  14.916 -0.1670 -1.2339  0.1926
 3498TIP3   OH231984   1.253   2.073   5.146 -0.4182  0.2292 -0.5092
 3498TIP3    H131985   1.304   2.002   5.184 -1.2687  0.0356  0.2660
 3498TIP3    H231986   1.163   2.057   5.174 -1.0071  0.2743 -2.3097
 3499TIP3   OH231987   6.194   3.831  17.160 -0.3132 -0.2949  0.0706
 3499TIP3    H131988   6.166   3.767  17.096 -1.4243 -2.0230  2.2047
 3499TIP3    H231989   6.128   3.900  17.158  0.5048  0.4638 -1.7199
 3500TIP3   OH231990   2.152   4.130  15.824  0.3224  0.5024  0.4972
 3500TIP3    H131991   2.098   4.122  15.746 -1.4777  0.4009  1.7256
 3500TIP3    H231992   2.095   4.101  15.896  1.8641  0.7997  1.8714
 3501TIP3   OH231993   5.025   0.404  12.053  0.3395  0.0639  0.1829
 3501TIP3    H131994   5.029   0.359  11.969 -0.4153 -1.7303  1.0767
 3501TIP3    H231995   4.931   0.411  12.072  0.4897  0.7944  0.7129
 3502TIP3   OH231996   1.524   0.580   4.571  0.8648 -0.2988  0.2830
 3502TIP3    H131997   1.616   0.564   4.592  0.6350 -0.2609  1.3993
 3502TIP3    H231998   1.487   0.614   4.653 -0.1953 -0.5346 -0.0912
 3503TIP3   OH231999   1.149   4.132  11.561 -0.0889  0.3599  0.4071
 3503TIP3    H132000   1.093   4.116  11.485  1.4258 -2.6189 -0.1604
 3503TIP3    H232001   1.098   4.192  11.615 -2.0379  0.9986 -2.0321
 3504TIP3   OH232002   6.638   5.471  15.940 -0.0330 -0.0862  0.4616
 3504TIP3    H132003   6.670   5.502  16.025 -0.5843  0.0106  0.6324
 3504TIP3    H232004   6.604   5.549  15.897 -0.4537 -0.2691  0.4605
 3505TIP3   OH232005   3.124   2.909   3.447 -0.1554  0.0789 -0.2833
 3505TIP3    H132006   3.059   2.900   3.517  1.2041 -2.2191  0.7197
 3505TIP3    H232007   3.202   2.944   3.490 -0.1699  1.2353 -1.1707
 3506TIP3   OH232008   0.493   3.598   4.696  0.0160 -0.2461  0.8576
 3506TIP3    H132009   0.581   3.586   4.660 -0.6165 -2.1587 -0.0591
 3506TIP3    H232010   0.456   3.670   4.645  0.2743 -0.8373 -0.1678
 3507TIP3   OH232011   3.362   4.737   4.841 -0.1710 -0.4206 -0.4469
 3507TIP3    H132012   3.375   4.823   4.800 -0.6637  0.0665  0.3820
 3507TIP3    H232013   3.367   4.675   4.769  1.1116  0.2225 -0.9303
 3508TIP3   OH232014   1.534   0.937   5.663 -0.0036  0.2482 -0.0535
 3508TIP3    H132015   1.457   0.880   5.671 -0.6300  1.2192  0.9268
 3508TIP3    H232016   1.598   0.899   5.723 -0.5413  0.7768  0.8520
 3509TIP3   OH232017   4.806   1.776   6.268 -0.0210 -0.4767 -0.5647
 3509TIP3    H132018   4.827   1.782   6.361  1.0442 -0.6703 -0.7937
 3509TIP3    H232019   4.881   1.732   6.228 -0.8733 -1.2246 -1.3778
 3510TIP3   OH232020   0.262   6.099  16.197 -0.5420  0.2522  0.1160
 3510TIP3    H132021   0.305   6.031  16.145  2.3278  3.2697 -1.6706
 3510TIP3    H232022   0.198   6.139  16.138 -0.2613  0.9162  0.2521
 3511TIP3   OH232023   4.324   1.510  17.129 -0.2631  0.0492  0.3771
 3511TIP3    H132024   4.269   1.474  17.199 -0.9130 -1.1408 -0.7349
 3511TIP3    H232025   4.319   1.446  17.059  2.5169 -0.0182  0.2173
 3512TIP3   OH232026   1.434   5.072   2.544  0.0768  0.4699  0.0877
 3512TIP3    H132027   1.484   4.999   2.582 -1.0368  0.7405  2.1395
 3512TIP3    H232028   1.453   5.146   2.601  0.0284  1.4202 -1.1278
 3513TIP3   OH232029   5.318   4.157  13.326 -0.0544 -0.4984  0.9707
 3513TIP3    H132030   5.291   4.100  13.254  0.0482 -1.0346  1.3497
 3513TIP3    H232031   5.285   4.113  13.405  0.9729 -0.6034  1.3494
 3514TIP3   OH232032   0.901   0.416  14.332  0.3145 -0.1245 -0.4666
 3514TIP3    H132033   0.817   0.379  14.305  0.4890 -0.4399 -0.5820
 3514TIP3    H232034   0.939   0.450  14.251  0.3569 -0.0984 -0.4356
 3515TIP3   OH232035   4.476   5.673  13.970 -0.2507 -0.0058 -0.2515
 3515TIP3    H132036   4.422   5.685  13.892  0.6341  0.1747 -0.8405
 3515TIP3    H232037   4.551   5.622  13.940 -0.5275 -1.0481  0.7570
 3516TIP3   OH232038   3.663   0.566  15.417 -0.0427  0.1353 -0.0806
 3516TIP3    H132039   3.622   0.534  15.497 -0.0129  0.7428  0.1834
 3516TIP3    H232040   3.598   0.626  15.380  0.2648  0.4527 -0.1062
 3517TIP3   OH232041   4.650   2.672  10.855  0.0770  0.5139  0.0516
 3517TIP3    H132042   4.676   2.591  10.810  4.4831  2.0645 -0.3896
 3517TIP3    H232043   4.634   2.734  10.784  0.1809  1.0553  0.5083
 3518TIP3   OH232044   3.082   2.463   4.160 -0.0514 -0.2703  0.0529
 3518TIP3    H132045   3.052   2.481   4.070 -0.4033 -1.5379 -0.1083
 3518TIP3    H232046   3.145   2.392   4.149  0.8979  0.4761  0.6854
 3519TIP3   OH232047   0.400   1.963  13.773 -0.7445 -0.2239  0.1849
 3519TIP3    H132048   0.483   1.944  13.818 -0.0543 -1.1210 -1.4415
 3519TIP3    H232049   0.333   1.947  13.839  0.4253  1.9983  2.0105
 3520TIP3   OH232050   6.217   4.425   0.680 -0.3485 -0.0100 -0.0417
 3520TIP3    H132051   6.226   4.338   0.640 -0.5277  0.6906 -1.6403
 3520TIP3    H232052   6.257   4.485   0.618 -1.3792  1.2079  0.4406
 3521TIP3   OH232053   2.800   2.495  12.787 -0.8514  0.6852  0.0643
 3521TIP3    H132054   2.838   2.580  12.811 -1.3988  0.5872  1.3118
 3521TIP3    H232055   2.831   2.435  12.854 -0.6464 -0.0535 -0.6950
 3522TIP3   OH232056   3.763   4.605  13.516 -0.1369  0.5751  0.2845
 3522TIP3    H132057   3.810   4.642  13.591 -2.3299  2.4909  0.7427
 3522TIP3    H232058   3.713   4.532  13.554 -0.3457  0.8095  0.4589
 3523TIP3   OH232059   2.920   3.222   1.367 -0.1082 -0.2586  0.3544
 3523TIP3    H132060   2.982   3.149   1.370 -0.6693 -0.6898  2.3253
 3523TIP3    H232061   2.913   3.251   1.458 -2.8888 -0.2984  0.1752
 3524TIP3   OH232062   4.050   2.193   0.798 -0.1901 -0.6533  0.3273
 3524TIP3    H132063   4.010   2.275   0.827 -0.5971 -0.3564 -1.0365
 3524TIP3    H232064   3.999   2.168   0.721  0.6663 -1.5880  0.0582
 3525TIP3   OH232065   2.247   1.413   4.757  0.1590  0.4726 -0.6886
 3525TIP3    H132066   2.340   1.408   4.781 -0.2658 -2.5697  0.5764
 3525TIP3    H232067   2.238   1.498   4.714  3.8624  0.1278 -2.3508
 3526TIP3   OH232068   2.313   4.388   5.809  0.4525  0.2202 -0.2606
 3526TIP3    H132069   2.379   4.392   5.740 -0.6663  0.8397 -1.3274
 3526TIP3    H232070   2.258   4.465   5.794  0.5349  0.7029  1.7012
 3527TIP3   OH232071   4.252   5.061   1.314  0.2403 -0.3954  0.1912
 3527TIP3    H132072   4.270   5.047   1.407  0.0670  0.0598  0.2905
 3527TIP3    H232073   4.339   5.056   1.272  0.2138 -1.6109  0.2415
 3528TIP3   OH232074   0.947   5.847  13.652  0.3315 -0.2626 -0.1362
 3528TIP3    H132075   0.968   5.827  13.743 -0.0799  0.7876  0.2021
 3528TIP3    H232076   0.922   5.763  13.613  0.8253 -0.7697  0.6262
 3529TIP3   OH232077   1.489   0.257  16.805 -0.2417  0.1593 -0.1894
 3529TIP3    H132078   1.476   0.298  16.890  3.0113  2.6109 -0.7893
 3529TIP3    H232079   1.432   0.305  16.745 -1.5870 -0.7491  0.3436
 3530TIP3   OH232080   4.824   3.733   4.477 -0.5170  0.4767  0.3855
 3530TIP3    H132081   4.919   3.718   4.469 -0.2589  2.3304 -0.5623
 3530TIP3    H232082   4.814   3.771   4.565 -0.6857 -1.7100  1.3314
 3531TIP3   OH232083   6.279   4.982  16.409  0.6115  0.4454  0.5621
 3531TIP3    H132084   6.263   4.889  16.427  0.7061  0.1977 -0.5893
 3531TIP3    H232085   6.367   4.999  16.442  0.7821  0.0032  0.3336
 3532TIP3   OH232086   1.411   3.423  12.446  0.2242  0.3210 -0.2379
 3532TIP3    H132087   1.401   3.373  12.365  1.9815 -1.3674  0.5509
 3532TIP3    H232088   1.322   3.430  12.481 -0.6358  1.4630 -2.4976
 3533TIP3   OH232089   4.526   1.421  13.753  0.1073  0.4570  0.3440
 3533TIP3    H132090   4.494   1.506  13.783  1.0321  1.2642 -0.8875
 3533TIP3    H232091   4.447   1.370  13.735 -0.4623  1.5231 -0.2155
 3534TIP3   OH232092   2.454   5.758  14.039 -0.1982 -0.2408 -0.1654
 3534TIP3    H132093   2.463   5.748  14.134  0.6012  0.5781 -0.1564
 3534TIP3    H232094   2.541   5.738  14.004 -1.1616 -3.3430 -0.9743
 3535TIP3   OH232095   0.229   3.168   0.252  0.1025  0.0253 -0.5684
 3535TIP3    H132096   0.310   3.219   0.257  0.5089 -0.6554 -0.0806
 3535TIP3    H232097   0.258   3.077   0.264 -0.6440 -0.2874 -1.1414
 3536TIP3   OH232098   4.130   2.790   1.152 -0.4557  0.2253 -0.1527
 3536TIP3    H132099   4.073   2.860   1.182  1.2567  2.1129 -1.1670
 3536TIP3    H232100   4.204   2.792   1.213  0.1990  0.1374 -0.9404
 3537TIP3   OH232101   6.232   3.075  12.693 -0.1558  0.0936  0.8156
 3537TIP3    H132102   6.231   3.164  12.657 -1.5835 -0.3662 -0.3500
 3537TIP3    H232103   6.140   3.056  12.710  0.1478 -1.1627  1.0400
 3538TIP3   OH232104   2.220   4.695   3.189 -0.1990 -0.3171  0.1587
 3538TIP3    H132105   2.229   4.755   3.263 -1.9416 -1.3179  1.2076
 3538TIP3    H232106   2.144   4.726   3.140  0.5982 -0.0000 -0.8959
 3539TIP3   OH232107   3.856   1.384   3.519  0.5299 -0.1248 -0.2344
 3539TIP3    H132108   3.914   1.437   3.573  2.0149 -1.8526 -0.0918
 3539TIP3    H232109   3.791   1.349   3.579  1.5501 -1.1872  0.2563
 3540TIP3   OH232110   1.094   4.007   4.068 -0.6225  0.0290 -0.1801
 3540TIP3    H132111   1.025   3.970   4.013 -2.3048  0.2314  1.7615
 3540TIP3    H232112   1.158   3.937   4.077 -0.9623 -0.4279 -1.3362
 3541TIP3   OH232113   6.524   4.292  16.276  0.5793 -0.0661 -0.4910
 3541TIP3    H132114   6.485   4.353  16.339  0.5051  1.1472 -1.7034
 3541TIP3    H232115   6.616   4.318  16.273  0.4289  0.3422 -1.4381
 3542TIP3   OH232116   0.966   1.005  13.549 -0.5441 -0.0045 -0.5254
 3542TIP3    H132117   0.913   0.989  13.627 -2.4501  0.4671 -1.6915
 3542TIP3    H232118   0.971   1.100  13.542  1.5446 -0.0184  0.2537
 3543TIP3   OH232119   3.219   0.884   6.249  0.1104  0.0752  0.5985
 3543TIP3    H132120   3.139   0.935   6.263  0.1530  0.7247 -1.3783
 3543TIP3    H232121   3.290   0.944   6.272  0.1320  0.6413 -0.9182
 3544TIP3   OH232122   3.725   3.234   0.710 -0.2359 -0.2623  0.6183
 3544TIP3    H132123   3.778   3.231   0.789 -0.3939 -0.1512  0.7274
 3544TIP3    H232124   3.660   3.165   0.723  0.5247 -1.1029  0.0312
 3545TIP3   OH232125   5.737   6.486   3.879 -0.0241  0.4394  0.2174
 3545TIP3    H132126   5.826   6.520   3.879  0.7891 -1.5838  2.1349
 3545TIP3    H232127   5.718   6.469   3.971 -2.3492  0.7153 -0.1831
 3546TIP3   OH232128   1.640   0.808  13.724 -0.4011  0.1680  0.3282
 3546TIP3    H132129   1.721   0.790  13.677 -0.4174 -0.0932  0.3981
 3546TIP3    H232130   1.667   0.851  13.805 -0.3057 -0.2599  0.5243
 3547TIP3   OH232131   2.264   5.969   1.593 -0.0989 -0.2190 -0.2650
 3547TIP3    H132132   2.249   5.878   1.620 -0.3518 -0.0919  0.0291
 3547TIP3    H232133   2.181   6.013   1.611  0.6035  0.4824  1.3519
 3548TIP3   OH232134   6.094   5.359   6.525 -0.1621 -0.1164 -0.4194
 3548TIP3    H132135   6.169   5.304   6.499 -0.0645  0.2752 -0.9782
 3548TIP3    H232136   6.058   5.390   6.442  1.0673  2.3626 -0.0668
 3549TIP3   OH232137   2.504   4.703   0.721 -0.1772 -0.1741  0.0356
 3549TIP3    H132138   2.529   4.728   0.632 -0.2574 -0.0870  0.0381
 3549TIP3    H232139   2.414   4.735   0.731  1.3308  3.8556  1.7587
 3550TIP3   OH232140   4.844   2.344  14.282 -0.0664 -0.6159  0.3963
 3550TIP3    H132141   4.911   2.325  14.347  1.0187 -2.6804 -1.2745
 3550TIP3    H232142   4.885   2.324  14.198 -1.5587  1.6384 -0.9488
 3551TIP3   OH232143   5.160   4.911  14.822  0.3721 -0.2411 -0.6515
 3551TIP3    H132144   5.216   4.834  14.832  0.6867  0.1601  0.6387
 3551TIP3    H232145   5.221   4.983  14.805  0.2149  0.1082  0.2689
 3552TIP3   OH232146   4.583   4.022  16.137  0.1649 -0.4512 -0.0776
 3552TIP3    H132147   4.555   3.977  16.057 -0.7026 -0.4366  0.2065
 3552TIP3    H232148   4.619   4.105  16.106 -0.7393 -0.1738 -0.4300
 3553TIP3   OH232149   3.685   4.122   3.187 -0.1647 -0.5192  0.2380
 3553TIP3    H132150   3.649   4.072   3.114  0.1082 -1.2593  0.6058
 3553TIP3    H232151   3.780   4.113   3.178 -0.0627  1.1577 -0.5420
 3554TIP3   OH232152   4.140   3.811   4.341  0.0172 -0.0942 -0.1657
 3554TIP3    H132153   4.181   3.727   4.319 -1.1325 -0.7075  0.0295
 3554TIP3    H232154   4.204   3.877   4.313  1.2240 -1.0490  0.2985
 3555TIP3   OH232155   4.066   0.240  14.160 -0.5141 -0.5751  1.1057
 3555TIP3    H132156   4.023   0.321  14.185 -1.2604 -0.4017 -0.6834
 3555TIP3    H232157   4.109   0.210  14.241  0.3417  1.9204  1.6167
 3556TIP3   OH232158   3.214   4.183   1.045  0.4890 -0.0934  0.3778
 3556TIP3    H132159   3.167   4.256   1.086  0.9487  0.9071 -0.8259
 3556TIP3    H232160   3.205   4.111   1.107 -2.0697  0.2628  0.5060
 3557TIP3   OH232161   2.821   2.888   2.137 -0.5209  0.3394  0.1746
 3557TIP3    H132162   2.833   2.930   2.052 -0.2493 -3.0229 -1.5431
 3557TIP3    H232163   2.741   2.837   2.127  1.2659 -2.6744  0.8155
 3558TIP3   OH232164   5.124   3.232   5.105 -0.3098  0.7891 -0.6382
 3558TIP3    H132165   5.090   3.308   5.151  2.8863  1.3079  0.9945
 3558TIP3    H232166   5.056   3.165   5.115 -0.4916  1.4661  3.3087
 3559TIP3   OH232167   5.988   4.261  16.757  0.4589  0.6974  0.0995
 3559TIP3    H132168   5.932   4.226  16.826  1.2090 -1.0059 -0.1411
 3559TIP3    H232169   5.959   4.216  16.677  0.6270  1.5258 -0.4377
 3560TIP3   OH232170   6.259   3.485  17.243  0.5714  0.0500  0.1787
 3560TIP3    H132171   6.294   3.510  17.158  0.9637  2.0775  0.9034
 3560TIP3    H232172   6.336   3.476  17.299  0.1672  1.1161  0.9152
 3561TIP3   OH232173   5.333   1.555   2.852  0.2431  0.6554 -0.3383
 3561TIP3    H132174   5.295   1.635   2.886  1.3658  1.2308 -0.4009
 3561TIP3    H232175   5.324   1.562   2.757  0.1552  0.6138 -0.3327
 3562TIP3   OH232176   0.711   6.676   5.886 -0.0595 -0.0422 -0.0419
 3562TIP3    H132177   0.754   6.700   5.803 -0.7809 -1.9462 -0.9977
 3562TIP3    H232178   0.783   6.651   5.944  0.5690  2.7175  0.4197
 3563TIP3   OH232179   1.311   4.649  15.342 -0.4216  0.2218  0.3674
 3563TIP3    H132180   1.370   4.575  15.330  0.4445  0.7619  1.2667
 3563TIP3    H232181   1.248   4.641  15.270 -1.1462 -2.1371  1.2016
 3564TIP3   OH232182   0.856   0.597   1.201 -0.3857 -0.0453 -0.1872
 3564TIP3    H132183   0.881   0.688   1.221  0.3890 -0.1813 -0.5086
 3564TIP3    H232184   0.903   0.545   1.266 -0.3325 -0.2580 -0.3969
 3565TIP3   OH232185   0.030   4.061   1.209 -0.8417  0.5343  0.0429
 3565TIP3    H132186   0.016   3.970   1.236 -0.6761  0.1283 -1.2210
 3565TIP3    H232187  -0.021   4.112   1.272  1.0022 -0.2702  2.2451
 3566TIP3   OH232188   3.399   3.119  13.860 -0.3293 -0.6703  0.3946
 3566TIP3    H132189   3.415   3.123  13.766 -0.4391  0.0746  0.3972
 3566TIP3    H232190   3.329   3.183  13.875  1.7019  1.3898  1.3761
 3567TIP3   OH232191   5.342   2.091   0.203  0.2886 -0.3315 -0.2501
 3567TIP3    H132192   5.274   2.041   0.249 -1.2421  1.1644 -0.8160
 3567TIP3    H232193   5.409   2.108   0.269 -0.6366 -0.5009  0.7416
 3568TIP3   OH232194   4.278   5.595  14.539  0.1217  0.4138  0.7772
 3568TIP3    H132195   4.215   5.523  14.534 -0.2395  0.6637  1.6333
 3568TIP3    H232196   4.228   5.672  14.513  1.0144  0.0885 -2.0886
 3569TIP3   OH232197   3.779   0.760  11.775 -0.5304 -0.3271 -0.4939
 3569TIP3    H132198   3.725   0.681  11.775 -1.9664  0.6512 -0.2382
 3569TIP3    H232199   3.744   0.813  11.704  0.2064  0.2395 -0.4377
 3570TIP3   OH232200   3.301   6.540   3.676  1.0948 -0.4786  0.4748
 3570TIP3    H132201   3.344   6.552   3.760 -0.7300  1.9835  1.1055
 3570TIP3    H232202   3.217   6.499   3.697 -0.1015  1.7090  0.0632
 3571TIP3   OH232203   1.889   4.879  15.654  0.3389 -0.8600  0.5989
 3571TIP3    H132204   1.953   4.878  15.583  0.1637  0.7121  0.3861
 3571TIP3    H232205   1.930   4.831  15.725  1.1547 -1.1133 -0.0400
 3572TIP3   OH232206   1.082   1.608  16.218 -0.0632  0.3277 -0.4506
 3572TIP3    H132207   1.012   1.581  16.278 -0.3837  1.3228 -0.3610
 3572TIP3    H232208   1.154   1.635  16.274  0.3494 -0.5728 -0.5379
 3573TIP3   OH232209   3.926   4.969   3.112 -0.1338 -0.3019  0.2722
 3573TIP3    H132210   3.851   5.010   3.069 -0.6430 -1.7551 -0.2547
 3573TIP3    H232211   3.917   4.876   3.092  1.8818 -0.4821  0.0957
 3574TIP3   OH232212   1.179   3.269  16.592 -0.1868  0.4726 -0.3388
 3574TIP3    H132213   1.151   3.268  16.501 -0.1142  0.2084 -0.3575
 3574TIP3    H232214   1.098   3.287  16.641 -0.5030 -0.8658 -0.3578
 3575TIP3   OH232215   0.983   2.004  16.615  0.4916 -0.1737 -0.6774
 3575TIP3    H132216   0.961   1.943  16.545  0.1665  0.8022 -1.4329
 3575TIP3    H232217   0.952   2.089  16.584  0.2361  0.2549  0.6998
 3576TIP3   OH232218   6.591   2.423  14.548 -0.1170  0.6837  0.4507
 3576TIP3    H132219   6.683   2.397  14.554 -0.1831  0.5007  0.6643
 3576TIP3    H232220   6.549   2.380  14.622 -0.1190  1.8311  1.1354
 3577TIP3   OH232221   1.186   0.321   3.209  0.1375  0.3939  0.4412
 3577TIP3    H132222   1.182   0.277   3.124 -1.1460  0.0787  0.6634
 3577TIP3    H232223   1.279   0.344   3.219  0.4209 -0.1884 -0.7212
 3578TIP3   OH232224   3.128   0.121   2.704  0.0447  0.1697  0.1081
 3578TIP3    H132225   3.048   0.129   2.757  1.1403  2.4508  1.5332
 3578TIP3    H232226   3.187   0.067   2.756 -0.6055 -1.6588 -1.0215
 3579TIP3   OH232227   3.199   1.972   0.025 -0.8816 -0.2892  0.0768
 3579TIP3    H132228   3.209   1.989   0.119  0.0113 -0.2922 -0.0123
 3579TIP3    H232229   3.106   1.988   0.008 -0.7545  1.1273  0.6687
 3580TIP3   OH232230   5.191   4.611  13.923 -0.5266  0.3515 -0.0952
 3580TIP3    H132231   5.276   4.579  13.894 -0.2796  1.6916 -0.9050
 3580TIP3    H232232   5.198   4.706  13.917 -1.9151  0.4963  0.3220
 3581TIP3   OH232233   3.474   4.873  12.873 -0.1290 -0.4437  0.0749
 3581TIP3    H132234   3.462   4.780  12.853  1.1686 -0.5527 -0.2364
 3581TIP3    H232235   3.465   4.878  12.968 -0.4699 -0.8409  0.0668
 3582TIP3   OH232236   5.255   1.760   1.101  0.2223 -0.1241  0.3026
 3582TIP3    H132237   5.226   1.701   1.171 -0.7947 -0.1597 -0.1425
 3582TIP3    H232238   5.241   1.848   1.137 -0.9711 -0.1341 -0.1100
 3583TIP3   OH232239   2.791   5.589  17.017  0.0820  0.1918  0.1887
 3583TIP3    H132240   2.782   5.571  17.111  2.8821  0.1647  0.5152
 3583TIP3    H232241   2.810   5.683  17.012  0.5389  0.0777 -0.2872
 3584TIP3   OH232242   2.077   1.217   4.614 -0.2989 -0.2946 -0.1301
 3584TIP3    H132243   2.079   1.207   4.709  0.1634 -0.0801 -0.1165
 3584TIP3    H232244   2.098   1.309   4.599 -0.6030 -0.2722 -0.4306
 3585TIP3   OH232245   6.441   2.402  14.850 -0.0428 -0.5015 -0.1840
 3585TIP3    H132246   6.462   2.495  14.857  0.4303 -0.3801 -2.4997
 3585TIP3    H232247   6.481   2.362  14.927  0.8720  1.0460  0.1661
 3586TIP3   OH232248   1.794   6.335  15.830  0.3775  0.0635  0.5433
 3586TIP3    H132249   1.824   6.262  15.774  0.3119  1.1203 -0.8933
 3586TIP3    H232250   1.849   6.409  15.804 -0.3385  0.8282  1.1891
 3587TIP3   OH232251   1.638   4.079   1.872 -0.6220 -0.7430 -0.2194
 3587TIP3    H132252   1.581   4.017   1.918 -0.0535 -2.5463 -1.9078
 3587TIP3    H232253   1.719   4.031   1.856  0.7238  1.2055  0.5021
 3588TIP3   OH232254   1.000   0.512   1.968 -0.0640 -0.0882 -0.0638
 3588TIP3    H132255   1.055   0.566   1.911  0.4461 -0.7873 -0.2432
 3588TIP3    H232256   1.009   0.423   1.932 -2.8176  0.0659 -1.2805
 3589TIP3   OH232257   0.103   1.117   6.179  0.3031  0.0172  0.2923
 3589TIP3    H132258   0.052   1.040   6.203  1.3782 -1.2003 -1.2197
 3589TIP3    H232259   0.184   1.108   6.229  0.3041  0.3459  0.3508
 3590TIP3   OH232260   1.893   1.283   0.426 -0.1508 -0.0736  0.1285
 3590TIP3    H132261   1.897   1.220   0.499 -1.8819 -0.0255  0.2764
 3590TIP3    H232262   1.972   1.265   0.375  2.6413  1.7706  3.5160
 3591TIP3   OH232263   1.064   5.627   3.494 -0.0463  0.3800  0.8405
 3591TIP3    H132264   0.981   5.605   3.535 -0.7572 -2.6513 -2.0133
 3591TIP3    H232265   1.115   5.546   3.497  1.3461  1.1578 -0.7792
 3592TIP3   OH232266   2.291   3.910   1.790 -0.5535  0.0902  0.6417
 3592TIP3    H132267   2.253   3.834   1.835  1.5850 -1.1588  0.4098
 3592TIP3    H232268   2.242   3.916   1.708 -1.7643 -0.0788  1.3298
 3593TIP3   OH232269   4.324   5.041  14.004  0.2552 -0.4874  0.3465
 3593TIP3    H132270   4.391   5.103  13.976 -0.5320 -0.0770 -0.6831
 3593TIP3    H232271   4.308   4.987  13.927 -1.0451 -0.1607  0.3751
 3594TIP3   OH232272   0.329   4.258  12.040  0.1341 -0.4205  0.4512
 3594TIP3    H132273   0.380   4.338  12.055 -0.2214 -0.0813 -0.1239
 3594TIP3    H232274   0.249   4.289  11.997  0.8292 -1.2848 -1.5236
 3595TIP3   OH232275   2.254   6.387   4.732  0.5616 -0.7682  0.2839
 3595TIP3    H132276   2.340   6.381   4.773  0.7366 -3.3239 -0.3332
 3595TIP3    H232277   2.221   6.297   4.732 -1.9934  0.1098  0.2364
 3596TIP3   OH232278   0.020   3.119  15.457 -0.3732  0.0779 -0.0007
 3596TIP3    H132279  -0.028   3.042  15.485 -0.9931  0.5608  0.2888
 3596TIP3    H232280   0.070   3.147  15.534 -0.1121 -0.0569 -0.1180
 3597TIP3   OH232281   5.521   2.976   1.443  0.4503 -0.4763  0.0962
 3597TIP3    H132282   5.432   2.945   1.428 -0.1321  1.7599 -1.3113
 3597TIP3    H232283   5.574   2.932   1.377 -0.4345  1.6736 -2.1401
 3598TIP3   OH232284   1.052   3.391  17.247 -0.2110  0.0663  0.4515
 3598TIP3    H132285   0.986   3.429  17.306 -1.5420 -1.7342  0.1590
 3598TIP3    H232286   1.071   3.460  17.184 -0.1303  1.3882  1.9098
 3599TIP3   OH232287   4.099   3.047   6.085  1.1297  0.0389  0.3193
 3599TIP3    H132288   4.023   2.992   6.102  0.4710  1.0186  0.5896
 3599TIP3    H232289   4.083   3.127   6.136 -0.0085  2.3131 -3.4116
 3600TIP3   OH232290   5.023   6.649   1.852  0.1375  0.2231 -0.3196
 3600TIP3    H132291   4.951   6.671   1.910  1.0888 -0.5543  1.1963
 3600TIP3    H232292   5.090   6.714   1.871  0.5442 -0.1722 -0.3815
 3601TIP3   OH232293   4.506   3.117  10.980 -0.6546  0.2600  0.2502
 3601TIP3    H132294   4.587   3.148  11.021 -0.5916  0.6890 -0.1988
 3601TIP3    H232295   4.496   3.171  10.902 -0.6116 -0.7604 -0.4731
 3602TIP3   OH232296   4.363   6.657  14.211  0.0544 -0.0820 -0.3368
 3602TIP3    H132297   4.426   6.585  14.217 -1.5784 -1.4168  1.0244
 3602TIP3    H232298   4.388   6.717  14.281  0.0299 -0.4435 -0.0158
 3603TIP3   OH232299   1.157   2.613   3.059 -0.0484  0.4209  0.1971
 3603TIP3    H132300   1.237   2.588   3.103 -1.2596 -1.9147  1.1323
 3603TIP3    H232301   1.179   2.611   2.966  1.3773  1.3162  0.5070
 3604TIP3   OH232302   1.032   5.685   5.449 -0.1198  0.5769 -0.1219
 3604TIP3    H132303   0.987   5.684   5.534  0.8438  1.8258  0.4247
 3604TIP3    H232304   1.050   5.593   5.431  1.1201  0.4045  1.8236
 3605TIP3   OH232305   5.564   5.047  13.273 -0.1519  0.0815 -0.8425
 3605TIP3    H132306   5.603   5.112  13.215 -0.4036  0.1024 -0.9865
 3605TIP3    H232307   5.594   5.073  13.361  2.2803 -1.3874 -1.1842
 3606TIP3   OH232308   0.582   0.289  15.319  0.2793  0.1462 -0.9461
 3606TIP3    H132309   0.631   0.326  15.246  1.8876 -1.1347 -0.5457
 3606TIP3    H232310   0.647   0.277  15.388 -0.4873 -2.0098 -0.5542
 3607TIP3   OH232311   2.603   0.965  12.170 -0.2891 -0.2887  0.5009
 3607TIP3    H132312   2.583   0.995  12.081  0.0623 -0.3810  0.3907
 3607TIP3    H232313   2.539   1.010  12.225 -0.8505 -0.6389  0.1398
 3608TIP3   OH232314   5.943   5.788  11.792 -0.3450  0.1047 -0.5919
 3608TIP3    H132315   6.025   5.837  11.781 -0.7755  0.7857 -0.7685
 3608TIP3    H232316   5.940   5.766  11.885 -0.0582  0.2439 -0.5489
 3609TIP3   OH232317   4.677   2.442  16.713 -0.3982  0.6211  0.7219
 3609TIP3    H132318   4.744   2.376  16.728  0.1957  1.2178  0.7408
 3609TIP3    H232319   4.655   2.433  16.620 -1.4318 -0.6170  1.0760
 3610TIP3   OH232320   6.196   4.926  15.174 -0.5922  0.0085  0.5051
 3610TIP3    H132321   6.105   4.900  15.190 -0.5175  0.1622  1.2037
 3610TIP3    H232322   6.236   4.928  15.261  0.4403 -1.3519  0.0764
 3611TIP3   OH232323   5.944   4.017  15.792 -0.2951 -0.3055  0.1487
 3611TIP3    H132324   5.921   4.086  15.854  2.4230  0.0048  0.8689
 3611TIP3    H232325   5.922   4.053  15.706 -0.4687  0.7742  0.6436
 3612TIP3   OH232326   5.474   4.459   5.857  0.1642 -0.1050 -0.6451
 3612TIP3    H132327   5.379   4.453   5.845  0.1124  1.0135 -0.8695
 3612TIP3    H232328   5.510   4.396   5.794 -0.5305 -3.4014  2.1198
 3613TIP3   OH232329   4.780   3.150  15.418 -0.4416  0.1630  0.0598
 3613TIP3    H132330   4.727   3.165  15.339  1.4041 -0.3114 -1.3072
 3613TIP3    H232331   4.728   3.088  15.470 -0.3297 -1.9398 -2.2232
 3614TIP3   OH232332   5.928   3.054   2.234 -0.5243 -0.0779  0.3800
 3614TIP3    H132333   5.947   3.088   2.147 -0.2523  0.8721  0.8033
 3614TIP3    H232334   5.833   3.051   2.239 -0.5320 -0.6207 -0.1390
 3615TIP3   OH232335   4.770   3.631  14.344 -0.2389 -0.2223  0.2809
 3615TIP3    H132336   4.793   3.624  14.437 -0.6222  1.5213  0.5274
 3615TIP3    H232337   4.683   3.670  14.344 -0.4965 -0.7798 -0.8077
 3616TIP3   OH232338   5.350   4.057  11.972  0.3830  0.3241 -0.1572
 3616TIP3    H132339   5.338   4.010  11.889  0.2790 -1.1703  0.6955
 3616TIP3    H232340   5.442   4.041  11.995 -0.7685 -3.0692  2.3005
 3617TIP3   OH232341   3.246   6.509   4.250 -0.0892  0.7502 -0.5506
 3617TIP3    H132342   3.182   6.553   4.306 -0.8468 -0.5891 -0.3604
 3617TIP3    H232343   3.288   6.444   4.306  0.0254  0.2548 -1.2004
 3618TIP3   OH232344   4.268   6.248   4.796  0.1239  0.4166  0.0584
 3618TIP3    H132345   4.223   6.321   4.838  0.1838 -1.1242  2.9606
 3618TIP3    H232346   4.200   6.182   4.784  1.0650 -1.0135  2.2806
 3619TIP3   OH232347   5.300   1.358  14.907 -0.1883 -0.0600  0.1690
 3619TIP3    H132348   5.356   1.299  14.958  1.9462  0.1462 -1.8215
 3619TIP3    H232349   5.326   1.446  14.936 -1.4301 -0.0067  1.1682
 3620TIP3   OH232350   2.374   5.326   5.004  0.1647  0.6370  0.0292
 3620TIP3    H132351   2.346   5.272   5.078 -1.5491  2.4775  0.7564
 3620TIP3    H232352   2.293   5.357   4.965  1.1112  2.2424 -0.7077
 3621TIP3   OH232353   1.692   1.247  15.566  0.2289  0.8839 -0.0700
 3621TIP3    H132354   1.661   1.159  15.589  0.8958  1.0303  1.4966
 3621TIP3    H232355   1.616   1.303  15.577 -0.3042  0.4503 -1.4713
 3622TIP3   OH232356   1.471   4.533   2.740 -0.2902  0.1872  0.5706
 3622TIP3    H132357   1.548   4.477   2.733 -0.1946  0.2519  1.0533
 3622TIP3    H232358   1.419   4.494   2.810  0.1337  1.1089  1.4209
 3623TIP3   OH232359   4.080   2.171   2.232  0.1549 -0.2563  0.4840
 3623TIP3    H132360   4.009   2.223   2.270  0.5011  2.4169 -2.2866
 3623TIP3    H232361   4.036   2.098   2.190 -1.3622  2.6572 -3.2995
 3624TIP3   OH232362   5.891   6.533   3.460  0.7376 -0.4159  1.0567
 3624TIP3    H132363   5.869   6.443   3.480 -1.0201 -0.9006 -2.6218
 3624TIP3    H232364   5.963   6.527   3.397 -1.0460  0.5909 -1.1559
 3625TIP3   OH232365   4.503   1.581   3.409 -0.5394  0.1687 -0.5702
 3625TIP3    H132366   4.585   1.551   3.448 -0.5897 -0.8683 -1.2448
 3625TIP3    H232367   4.475   1.654   3.464 -0.2172 -0.7819  0.8733
 3626TIP3   OH232368   4.372   5.894  11.929 -0.2089  0.5436 -0.6423
 3626TIP3    H132369   4.451   5.900  11.877  1.1972  0.2255  1.4001
 3626TIP3    H232370   4.373   5.972  11.984 -1.1361  0.3682 -0.3594
 3627TIP3   OH232371   0.881   2.518   0.489  0.4576 -0.6416  0.0792
 3627TIP3    H132372   0.853   2.477   0.407  0.2821 -0.9431  0.2920
 3627TIP3    H232373   0.852   2.458   0.558  0.9489 -0.5798  0.3441
 3628TIP3   OH232374   6.490   3.841   1.310  0.0332 -0.3094 -0.1605
 3628TIP3    H132375   6.402   3.860   1.342  0.4967 -0.3832  1.1732
 3628TIP3    H232376   6.482   3.756   1.267 -0.9701  0.5882 -1.8012
 3629TIP3   OH232377   2.790   6.229  11.883 -0.1945 -0.3460  0.1236
 3629TIP3    H132378   2.800   6.231  11.788  0.3742  0.7647  0.1940
 3629TIP3    H232379   2.698   6.208  11.898 -0.4365  0.1323 -0.6868
 3630TIP3   OH232380   4.396   0.728   5.089  0.1725  0.1215 -0.3139
 3630TIP3    H132381   4.365   0.638   5.100 -0.1723  0.1112 -1.2762
 3630TIP3    H232382   4.325   0.782   5.122  0.7626  0.0418  1.1503
 3631TIP3   OH232383   2.831   3.876  12.048 -0.2174 -0.1011 -0.7499
 3631TIP3    H132384   2.841   3.781  12.046  0.8644  0.0050 -0.7967
 3631TIP3    H232385   2.803   3.895  12.138  2.5596 -0.2124  0.1923
 3632TIP3   OH232386   3.228   1.598   5.934 -0.3093  0.1809 -0.3045
 3632TIP3    H132387   3.133   1.584   5.936 -0.3689  0.6803  0.7821
 3632TIP3    H232388   3.238   1.694   5.934  0.2074  0.1443  1.3940
 3633TIP3   OH232389   1.300   2.114  13.028  0.2323 -0.3182  0.1431
 3633TIP3    H132390   1.317   2.185  12.966  0.1830 -0.2610  0.1948
 3633TIP3    H232391   1.383   2.102  13.074  0.5850 -1.0787 -0.6702
 3634TIP3   OH232392   4.084   5.453   3.246  0.0399  0.1227 -0.2859
 3634TIP3    H132393   4.124   5.393   3.184 -0.5345  0.8581 -1.3889
 3634TIP3    H232394   3.990   5.446   3.229  0.0673  2.8392 -1.8729
 3635TIP3   OH232395   0.210   1.329  15.213  0.8273 -0.1397  0.2071
 3635TIP3    H132396   0.200   1.234  15.214 -0.0860 -0.0403  1.5217
 3635TIP3    H232397   0.291   1.345  15.262  0.0925 -0.1441  1.4269
 3636TIP3   OH232398   0.739   3.538   5.343  0.1219  0.3085 -0.4565
 3636TIP3    H132399   0.766   3.457   5.301  1.5327  0.3527  0.3142
 3636TIP3    H232400   0.667   3.513   5.401 -0.2491 -0.1657 -1.1229
 3637TIP3   OH232401   5.007   3.989   3.093 -0.1579 -0.1987  0.3064
 3637TIP3    H132402   4.954   3.953   3.022  1.4936 -0.8955 -0.6034
 3637TIP3    H232403   5.006   4.083   3.077  2.2890 -0.5195 -2.2099
 3638TIP3   OH232404   0.787   3.612   3.970 -0.4882 -0.2450  0.1235
 3638TIP3    H132405   0.749   3.697   3.947 -1.2987 -0.7355 -0.3410
 3638TIP3    H232406   0.739   3.549   3.917 -0.9663 -1.1663  1.6367
 3639TIP3   OH232407   4.064   2.227   3.613  0.5986  0.2069 -0.2865
 3639TIP3    H132408   4.021   2.269   3.539  0.8515  0.1451 -0.4700
 3639TIP3    H232409   4.097   2.300   3.666 -0.1405  0.2595  0.0970
 3640TIP3   OH232410   3.183   6.616  11.305  0.2243 -0.3737  0.2226
 3640TIP3    H132411   3.194   6.691  11.364  0.8342 -0.9448  0.8286
 3640TIP3    H232412   3.261   6.617  11.249 -0.7468  0.6795 -1.1816
 3641TIP3   OH232413   0.556   1.773  11.076 -0.0691  0.5226  0.1829
 3641TIP3    H132414   0.503   1.852  11.067 -2.3991 -0.9966  0.0905
 3641TIP3    H232415   0.494   1.705  11.104  2.4161 -0.6161  3.3207
 3642TIP3   OH232416   4.318   4.849   3.097  0.2118 -0.6766  0.1654
 3642TIP3    H132417   4.410   4.834   3.078  0.5249  0.6602  0.5986
 3642TIP3    H232418   4.276   4.856   3.011  0.9495  1.2591 -0.0595
 3643TIP3   OH232419   3.612   2.021  11.163 -0.3660 -0.3158 -0.5316
 3643TIP3    H132420   3.608   1.971  11.082  0.2677  0.4858 -1.0754
 3643TIP3    H232421   3.601   1.956  11.232  2.3730 -1.4928 -1.1433
 3644TIP3   OH232422   3.165   4.146   3.034 -0.4907  0.1224 -0.0239
 3644TIP3    H132423   3.198   4.111   3.116  0.3536 -0.2121 -0.5050
 3644TIP3    H232424   3.083   4.099   3.019 -0.5141 -0.0012  0.4932
 3645TIP3   OH232425   1.455   4.162   5.009 -0.4916  0.3459 -0.2631
 3645TIP3    H132426   1.452   4.113   4.927 -1.3895 -0.3638  0.1770
 3645TIP3    H232427   1.473   4.252   4.984 -0.0853  0.0073 -1.1881
 3646TIP3   OH232428   5.612   0.769  13.324 -0.0141  0.5117 -0.3861
 3646TIP3    H132429   5.524   0.799  13.299 -1.1491 -2.3055  0.0879
 3646TIP3    H232430   5.623   0.686  13.278  1.3899 -0.3983  1.5380
 3647TIP3   OH232431   5.600   5.450  15.623  0.3754 -0.3728 -0.5419
 3647TIP3    H132432   5.660   5.376  15.623 -1.1192 -1.6186  1.1632
 3647TIP3    H232433   5.577   5.462  15.530 -0.0119 -2.5981 -0.7610
 3648TIP3   OH232434   0.081   5.808  16.063  0.2948  0.0532  0.5291
 3648TIP3    H132435   0.175   5.830  16.060  0.1867  0.8361  1.9783
 3648TIP3    H232436   0.059   5.814  16.156 -0.4870 -3.2883  0.6268
 3649TIP3   OH232437   5.485   6.090   5.240 -0.0917 -0.1691  0.3545
 3649TIP3    H132438   5.430   6.068   5.165  0.4626  0.9291 -0.3923
 3649TIP3    H232439   5.564   6.037   5.229 -0.4234 -0.7364  0.6923
 3650TIP3   OH232440   6.323   3.041   3.869 -0.1518 -0.1886 -0.4656
 3650TIP3    H132441   6.389   3.102   3.836  0.6963  0.1843  1.8801
 3650TIP3    H232442   6.364   2.954   3.860 -0.7269 -0.3071 -2.2566
 3651TIP3   OH232443   2.221   6.694   2.380 -0.6089  0.1957  0.3269
 3651TIP3    H132444   2.136   6.653   2.364  0.0776 -0.8775 -0.6311
 3651TIP3    H232445   2.262   6.699   2.294  0.5909  0.0390  0.8800
 3652TIP3   OH232446   3.622   5.710  13.570 -0.0649 -0.1688 -0.3251
 3652TIP3    H132447   3.640   5.773  13.640  1.4086 -0.2938 -0.5779
 3652TIP3    H232448   3.544   5.744  13.527 -1.7105 -0.7537  2.1450
 3653TIP3   OH232449   2.033   6.062   5.188 -0.4042  0.7006  0.1135
 3653TIP3    H132450   2.095   6.100   5.251 -0.9438  0.5566  0.7459
 3653TIP3    H232451   1.989   6.137   5.149 -2.1882  0.7465  2.0979
 3654TIP3   OH232452   1.822   0.024  13.543 -0.0928  0.0191  0.2946
 3654TIP3    H132453   1.872   0.061  13.616 -0.3594  0.6722  0.1448
 3654TIP3    H232454   1.878  -0.046  13.510  0.3096  0.1308  0.7275
 3655TIP3   OH232455   4.486   4.632   6.220  0.1284  0.4147 -0.2195
 3655TIP3    H132456   4.512   4.607   6.309  0.6923  1.2277 -0.1507
 3655TIP3    H232457   4.554   4.594   6.164  0.3024  0.7208 -0.2184
 3656TIP3   OH232458   4.291   1.007  15.612 -0.3717 -0.5146 -0.1838
 3656TIP3    H132459   4.263   1.043  15.696  1.1094 -1.5935  0.7985
 3656TIP3    H232460   4.386   1.018  15.611 -0.5111  0.6269 -2.2780
 3657TIP3   OH232461   0.175   1.022   2.486  0.6082 -0.1487 -0.1491
 3657TIP3    H132462   0.189   1.086   2.556 -2.9100  2.7677 -1.9472
 3657TIP3    H232463   0.098   0.973   2.513 -1.2408  1.5128 -2.2484
 3658TIP3   OH232464   3.974   0.778  16.811  0.0426  0.4568 -0.1133
 3658TIP3    H132465   4.041   0.773  16.742 -0.3784 -1.0072 -0.4334
 3658TIP3    H232466   3.926   0.696  16.803 -0.5322  0.6391  1.4087
 3659TIP3   OH232467   2.488   0.357   4.790  0.2557 -0.0535 -0.3059
 3659TIP3    H132468   2.452   0.445   4.794  0.8593  0.2304 -0.9652
 3659TIP3    H232469   2.553   0.361   4.720  2.9141 -0.0675  2.0676
 3660TIP3   OH232470   6.694   5.107   4.168  0.3154  0.4920 -0.2652
 3660TIP3    H132471   6.694   5.012   4.180 -0.1685  0.5679  0.3691
 3660TIP3    H232472   6.774   5.137   4.211  0.0374  0.4582  0.2803
 3661TIP3   OH232473   5.582   5.035   0.368  0.0065  0.0331 -0.0153
 3661TIP3    H132474   5.516   5.101   0.348  1.0354 -0.1424 -4.3294
 3661TIP3    H232475   5.664   5.083   0.373  0.0563 -0.1978  2.3857
 3662TIP3   OH232476   2.172   2.376  11.427 -0.2929 -0.6113  0.5336
 3662TIP3    H132477   2.238   2.310  11.448 -0.6191 -0.9278  0.5604
 3662TIP3    H232478   2.101   2.327  11.385 -0.8645 -0.3911  1.2451
 3663TIP3   OH232479   4.157   2.853   2.930  0.4839  0.0028 -0.0729
 3663TIP3    H132480   4.205   2.770   2.937  0.2098 -0.1441  0.0745
 3663TIP3    H232481   4.212   2.916   2.977 -0.0992 -0.4393  1.2371
 3664TIP3   OH232482   3.293   1.483  12.958 -0.1191 -0.3672  1.0077
 3664TIP3    H132483   3.258   1.451  12.875  1.5038 -0.1887  0.2357
 3664TIP3    H232484   3.229   1.548  12.987 -0.7927 -0.5666 -0.0046
 3665TIP3   OH232485   2.233   2.400  16.705  0.1194  0.0578 -0.4248
 3665TIP3    H132486   2.239   2.435  16.616 -0.5992  1.9936  0.2604
 3665TIP3    H232487   2.139   2.393  16.722  0.2355  1.1228  0.7168
 3666TIP3   OH232488   3.146   3.558   4.981  0.1699 -0.5057  0.0029
 3666TIP3    H132489   3.168   3.646   4.951  1.9778 -0.9617 -0.0529
 3666TIP3    H232490   3.082   3.526   4.917 -0.7514  0.8653  0.2004
 3667TIP3   OH232491   3.643   0.656   3.917  0.0695 -0.2419 -0.1807
 3667TIP3    H132492   3.563   0.708   3.920  0.8680  1.0878 -1.5561
 3667TIP3    H232493   3.688   0.677   3.999 -0.6918 -0.5522  0.3295
 3668TIP3   OH232494   3.010   0.472   4.902  0.1362 -0.3756  0.6206
 3668TIP3    H132495   2.997   0.377   4.912 -1.1546 -0.2326  0.4158
 3668TIP3    H232496   2.989   0.489   4.810  2.3534 -0.1879  0.1242
 3669TIP3   OH232497   2.810   3.488  13.931 -0.7879  0.1901 -0.4090
 3669TIP3    H132498   2.794   3.404  13.975  0.7152  0.0064 -0.1782
 3669TIP3    H232499   2.866   3.466  13.857 -1.8366  0.7559 -1.3803
 3670TIP3   OH232500   5.867   1.416   1.048 -0.1315 -0.5177  0.4150
 3670TIP3    H132501   5.892   1.507   1.032  0.3218 -0.8656 -0.9246
 3670TIP3    H232502   5.897   1.399   1.137  0.7591  0.3162  0.2876
 3671TIP3   OH232503   6.638   0.904  13.343  0.6205 -0.0633  0.5822
 3671TIP3    H132504   6.635   0.829  13.403 -1.2031  1.0961  1.9628
 3671TIP3    H232505   6.691   0.969  13.388  0.8658  0.0997  0.0667
 3672TIP3   OH232506   6.564   4.458  14.611  0.6133 -0.6512 -0.2083
 3672TIP3    H132507   6.495   4.524  14.605  0.7810 -0.4345  0.2585
 3672TIP3    H232508   6.524   4.384  14.657  0.6271 -0.6121 -0.1339
 3673TIP3   OH232509   3.871   3.436   5.223 -0.3717 -0.2933 -0.6627
 3673TIP3    H132510   3.900   3.483   5.300  0.7642 -0.7653 -0.7947
 3673TIP3    H232511   3.775   3.443   5.225 -0.4027 -0.9535  1.2004
 3674TIP3   OH232512   4.465   1.433  14.648 -0.4191 -0.2053  0.1055
 3674TIP3    H132513   4.474   1.368  14.578  1.6854 -0.1274  0.2929
 3674TIP3    H232514   4.425   1.508  14.604 -1.2764 -0.9898 -0.4901
 3675TIP3   OH232515   5.896   1.350  17.000 -0.2256 -0.5031 -0.1179
 3675TIP3    H132516   5.948   1.343  17.081 -0.9420 -0.2333  0.3711
 3675TIP3    H232517   5.958   1.330  16.930  1.1105  2.0734  0.2845
 3676TIP3   OH232518   0.712   1.646   2.663  0.3937  0.1078  0.1873
 3676TIP3    H132519   0.765   1.695   2.726  2.8227 -2.5383  0.2882
 3676TIP3    H232520   0.699   1.561   2.704  0.1779 -0.9109 -1.9368
 3677TIP3   OH232521   4.992   3.481  15.890 -0.0884 -0.4162 -0.5041
 3677TIP3    H132522   4.903   3.471  15.924  0.6237 -0.3450  1.4623
 3677TIP3    H232523   4.994   3.568  15.850 -0.8214 -0.2911 -0.2684
 3678TIP3   OH232524   1.675   0.890   3.475  0.5213  0.1830  0.1959
 3678TIP3    H132525   1.620   0.965   3.452  2.2923  1.3768 -0.2364
 3678TIP3    H232526   1.701   0.905   3.565  2.9177  1.3952 -0.6749
 3679TIP3   OH232527   6.790   2.011   0.837  0.3285  0.2011  0.2105
 3679TIP3    H132528   6.814   2.058   0.917  1.5499 -0.8058  0.4520
 3679TIP3    H232529   6.702   1.978   0.854  1.6303 -2.3849  2.2877
 3680TIP3   OH232530   0.277   4.494   3.823  0.5554 -0.5859 -0.0434
 3680TIP3    H132531   0.301   4.501   3.731  0.5782 -0.1573 -0.0028
 3680TIP3    H232532   0.359   4.474   3.868  0.5621 -0.6919 -0.1014
 3681TIP3   OH232533   1.368   4.221  12.502 -0.4658  0.0394 -0.3264
 3681TIP3    H132534   1.464   4.224  12.507 -0.4201  0.5562 -1.4301
 3681TIP3    H232535   1.348   4.245  12.412 -1.6488  0.1342 -0.0420
 3682TIP3   OH232536   1.330   2.835  15.954 -0.6921 -0.3910 -0.1978
 3682TIP3    H132537   1.279   2.899  15.904 -1.6113 -0.0347  1.1577
 3682TIP3    H232538   1.387   2.888  16.009  0.0106 -0.7807 -0.5365
 3683TIP3   OH232539   4.423   5.983   4.023 -0.0848 -0.1620  0.2409
 3683TIP3    H132540   4.492   5.932   4.067 -1.8024 -0.4444  2.7236
 3683TIP3    H232541   4.412   6.060   4.079  0.0649  1.2333 -1.6103
 3684TIP3   OH232542   3.636   5.607   4.832 -0.3595 -0.1382 -0.4628
 3684TIP3    H132543   3.697   5.675   4.802 -0.9575  0.1305 -1.0720
 3684TIP3    H232544   3.688   5.526   4.831  0.1277  0.1744 -0.5150
 3685TIP3   OH232545   3.894   5.394  11.201 -0.6548  0.5628 -0.3385
 3685TIP3    H132546   3.937   5.461  11.254 -1.0688  1.3410 -0.9922
 3685TIP3    H232547   3.869   5.438  11.120  0.3014 -0.7162 -1.3546
 3686TIP3   OH232548   3.806   5.482   0.361  0.4223 -0.6174  0.1264
 3686TIP3    H132549   3.900   5.465   0.354  0.3280 -0.8820 -0.5307
 3686TIP3    H232550   3.765   5.403   0.325 -0.0554 -0.6915  0.8236
 3687TIP3   OH232551   3.017   3.048   4.974  0.0003  0.1067 -0.7153
 3687TIP3    H132552   3.085   2.992   5.012 -1.5689 -0.9776  0.5506
 3687TIP3    H232553   3.033   3.134   5.012 -0.5097 -0.5887  1.1046
 3688TIP3   OH232554   1.633   2.038  11.297 -0.0281 -0.8115 -0.0540
 3688TIP3    H132555   1.609   2.114  11.350  0.5518 -0.6918  0.0413
 3688TIP3    H232556   1.727   2.026  11.313  0.1035 -0.9131 -0.8737
 3689TIP3   OH232557   4.214   0.684   3.902 -0.0095  0.0780 -0.3068
 3689TIP3    H132558   4.231   0.668   3.995  0.1735 -0.1557 -0.3805
 3689TIP3    H232559   4.119   0.693   3.897 -0.0060  0.2593 -0.0701
 3690TIP3   OH232560   3.306   0.117   3.946  0.4803 -0.5590 -0.9135
 3690TIP3    H132561   3.301   0.174   3.869  0.1916  2.7832  1.5089
 3690TIP3    H232562   3.387   0.142   3.989 -0.0901 -1.3763  0.6494
 3691TIP3   OH232563   4.381   3.020   0.103 -0.5220  0.5318 -0.1228
 3691TIP3    H132564   4.340   3.054   0.183 -0.9208  1.4016 -0.6942
 3691TIP3    H232565   4.330   3.059   0.032  0.6128  0.7382 -0.8286
 3692TIP3   OH232566   2.665   3.363  13.701  0.4208  0.2851 -0.6792
 3692TIP3    H132567   2.745   3.387  13.655  4.1096 -6.0550  1.7989
 3692TIP3    H232568   2.681   3.388  13.792 -0.4459 -0.9866 -0.1642
 3693TIP3   OH232569   5.132   0.050   0.798 -0.1954  0.1301  0.0546
 3693TIP3    H132570   5.103  -0.041   0.804 -1.3880  0.4781 -0.2589
 3693TIP3    H232571   5.202   0.049   0.731 -0.1529 -0.5609  0.1086
 3694TIP3   OH232572   0.716   6.098  10.660 -0.1239  0.6022  0.1061
 3694TIP3    H132573   0.688   6.147  10.583 -0.4794  0.7723  0.3453
 3694TIP3    H232574   0.747   6.015  10.625  0.3064  0.9182 -0.2838
 3695TIP3   OH232575   3.898   3.167   1.860  0.1435  0.3254  0.4199
 3695TIP3    H132576   3.964   3.181   1.928 -0.0900  0.5953  0.5911
 3695TIP3    H232577   3.877   3.074   1.865  0.9962  0.1008 -0.0775
 3696TIP3   OH232578   3.158   1.429   1.782 -0.4906  0.3786 -0.5159
 3696TIP3    H132579   3.203   1.460   1.860 -0.7854 -0.6225  0.0645
 3696TIP3    H232580   3.227   1.389   1.729 -0.5741 -0.6506  0.1185
 3697TIP3   OH232581   4.749   6.069   3.705  0.1555  0.5581  0.4175
 3697TIP3    H132582   4.830   6.076   3.756 -0.2209  0.1036  1.0845
 3697TIP3    H232583   4.774   6.096   3.617  0.8368  1.2706  0.8202
 3698TIP3   OH232584   0.192   5.290   3.476 -0.1003  0.4208 -0.0694
 3698TIP3    H132585   0.208   5.364   3.417  1.0221  1.8938  2.0395
 3698TIP3    H232586   0.225   5.319   3.561 -2.9251 -1.1296  1.6345
 3699TIP3   OH232587   3.628   4.896  10.989  0.3717 -0.4341  0.8726
 3699TIP3    H132588   3.629   4.858  10.901 -0.4544 -0.0707  0.7068
 3699TIP3    H232589   3.542   4.874  11.023  0.7075 -0.6040  1.6086
 3700TIP3   OH232590   6.342   2.626  15.313 -0.7183 -0.3645 -0.3833
 3700TIP3    H132591   6.317   2.534  15.303 -3.0433  0.0325  1.4527
 3700TIP3    H232592   6.267   2.675  15.277  0.0684  0.8261 -0.4136
 3701TIP3   OH232593   0.874   1.255   2.921 -0.0031 -0.0387  0.4307
 3701TIP3    H132594   0.944   1.257   2.986  0.0765  3.3480  0.3201
 3701TIP3    H232595   0.793   1.261   2.972 -0.0877 -0.7092  0.3807
 3702TIP3   OH232596   6.441   6.773   3.864 -0.0113  0.2633 -0.4792
 3702TIP3    H132597   6.378   6.702   3.873 -0.0482  0.2757 -0.6309
 3702TIP3    H232598   6.450   6.809   3.952 -0.3026  0.3352 -0.4791
 3703TIP3   OH232599   5.515   5.369  10.794 -0.3187  0.2246  0.4702
 3703TIP3    H132600   5.557   5.454  10.807 -1.4786  0.7362  0.9421
 3703TIP3    H232601   5.541   5.318  10.871  1.0108 -0.1300 -0.1895
 3704TIP3   OH232602   5.369   4.869   5.697 -0.2174  0.3537 -0.4214
 3704TIP3    H132603   5.298   4.831   5.646  0.4459  0.6483 -1.5881
 3704TIP3    H232604   5.434   4.799   5.704  0.3234  0.7692 -1.2306
 3705TIP3   OH232605   3.487   4.077   1.229 -0.1490  0.0043  0.4473
 3705TIP3    H132606   3.435   4.038   1.159  1.3341  0.3775 -0.8931
 3705TIP3    H232607   3.546   4.008   1.257  0.0680  0.2147  0.5123
 3706TIP3   OH232608   4.697   4.858  14.999  0.3527  0.5908  0.1371
 3706TIP3    H132609   4.734   4.920  14.937  0.0744  1.3193  0.6977
 3706TIP3    H232610   4.631   4.810  14.949  1.2997  0.0109 -0.5793
 3707TIP3   OH232611   2.491   4.540  14.605 -0.2503  0.5650  0.3836
 3707TIP3    H132612   2.532   4.618  14.566  1.4763 -0.7822 -0.5520
 3707TIP3    H232613   2.418   4.520  14.546  1.1448 -0.2880 -1.0984
 3708TIP3   OH232614   3.193   6.725  16.867 -0.5229  0.3176  0.1818
 3708TIP3    H132615   3.169   6.634  16.849 -2.7067  0.8017  0.4002
 3708TIP3    H232616   3.150   6.775  16.797 -0.1078  1.2524  0.5909
 3709TIP3   OH232617   1.313   2.287  14.251 -0.1135 -1.0724  0.5838
 3709TIP3    H132618   1.276   2.375  14.251  1.5862 -0.3329  0.0926
 3709TIP3    H232619   1.297   2.254  14.163  0.1464 -0.8659  0.4602
 3710TIP3   OH232620   5.295   5.497  16.275  0.0077 -0.0104 -0.9535
 3710TIP3    H132621   5.330   5.583  16.297 -0.5240  0.2196 -1.0168
 3710TIP3    H232622   5.352   5.435  16.322 -0.8872  0.4534  0.7442
 3711TIP3   OH232623   5.403   5.265  14.595 -0.0304 -0.9015  0.3400
 3711TIP3    H132624   5.498   5.269  14.582 -0.1325 -2.3992 -1.0008
 3711TIP3    H232625   5.367   5.255  14.507 -1.5109  0.6598  0.7503
 3712TIP3   OH232626   6.692   1.481  13.715  1.0504  0.5028 -0.3638
 3712TIP3    H132627   6.638   1.471  13.636  2.4470  0.8913 -1.3758
 3712TIP3    H232628   6.707   1.391  13.745  1.1784  0.3115 -1.0001
 3713TIP3   OH232629   1.943   2.115  13.592  0.3927 -0.2414 -0.1638
 3713TIP3    H132630   2.039   2.111  13.598  0.7383  3.3908 -2.0432
 3713TIP3    H232631   1.922   2.074  13.509  0.2845 -1.0987  0.2795
 3714TIP3   OH232632   3.451   4.552   4.660  0.0453 -0.0109  0.0465
 3714TIP3    H132633   3.499   4.604   4.596 -2.0113  0.8127 -0.8474
 3714TIP3    H232634   3.511   4.480   4.682  1.3184  0.4689 -1.7443
 3715TIP3   OH232635   4.596   4.830  14.309  0.3819 -0.1481 -0.6180
 3715TIP3    H132636   4.684   4.853  14.340  0.7891 -2.5938  0.1059
 3715TIP3    H232637   4.610   4.755  14.251 -1.1041  0.1854 -1.4253
 3716TIP3   OH232638   6.641   3.753   6.522 -0.1679 -0.3329  0.0211
 3716TIP3    H132639   6.737   3.750   6.513 -0.1823  0.1774 -0.3179
 3716TIP3    H232640   6.618   3.666   6.556  0.3072 -0.8757 -0.9870
 3717TIP3   OH232641   0.990   4.669   0.349 -0.2593  0.9367 -0.3383
 3717TIP3    H132642   1.076   4.668   0.308  0.9808 -0.5633  2.1393
 3717TIP3    H232643   0.980   4.758   0.383  0.3402  1.1003 -0.5885
 3718TIP3   OH232644   2.102   5.633  16.494  0.2742 -0.1563  0.0193
 3718TIP3    H132645   2.156   5.619  16.417  0.0503 -0.5852 -0.0597
 3718TIP3    H232646   2.136   5.571  16.559  1.2763  1.0627  0.6790
 3719TIP3   OH232647   5.038   0.796  16.165 -0.0454 -0.0284  0.9867
 3719TIP3    H132648   5.100   0.785  16.236 -0.9230 -1.4502  1.5514
 3719TIP3    H232649   5.020   0.707  16.135 -0.3471  0.5011 -0.4331
 3720TIP3   OH232650   5.533   4.296  15.163  0.4523 -0.3359 -0.2281
 3720TIP3    H132651   5.496   4.371  15.209  0.1191 -0.3755 -0.4230
 3720TIP3    H232652   5.467   4.275  15.096  0.4119 -0.9713  0.0046
 3721TIP3   OH232653   4.313   3.094   0.423  0.5467  0.3783  0.0494
 3721TIP3    H132654   4.265   3.115   0.503 -1.4649  1.5296 -1.4124
 3721TIP3    H232655   4.263   3.023   0.383 -0.5706  2.2500 -1.9881
 3722TIP3   OH232656   4.505   3.551  16.121  0.3711  0.0235 -0.7650
 3722TIP3    H132657   4.529   3.472  16.170 -1.1529 -1.2771 -2.0333
 3722TIP3    H232658   4.463   3.608  16.186 -0.4892 -1.1453 -0.2745
 3723TIP3   OH232659   4.088   0.324  11.275  0.2728  0.6100  0.4497
 3723TIP3    H132660   4.022   0.265  11.239  1.8970 -0.4430 -0.8642
 3723TIP3    H232661   4.067   0.410  11.238  0.0544  0.1346 -0.5492
 3724TIP3   OH232662   3.094   0.097   0.753  0.1617  0.1520  0.0252
 3724TIP3    H132663   3.182   0.124   0.728  0.2380 -0.5071 -0.4207
 3724TIP3    H232664   3.082   0.131   0.842  1.0282 -0.1402  0.2522
 3725TIP3   OH232665   2.147   2.457  15.796 -0.1849 -0.1610  0.2478
 3725TIP3    H132666   2.080   2.473  15.862  0.7796  0.3317  1.1090
 3725TIP3    H232667   2.111   2.386  15.742 -1.6028  0.4345  0.3990
 3726TIP3   OH232668   4.451   2.803  13.983 -0.6966 -0.0346 -0.0622
 3726TIP3    H132669   4.508   2.744  14.032  0.7745  0.2892 -1.3476
 3726TIP3    H232670   4.489   2.890  13.997  0.8268 -0.1295 -3.1606
 3727TIP3   OH232671   0.691   6.285   4.751 -0.1531  1.8669  0.0844
 3727TIP3    H132672   0.731   6.371   4.765 -0.6696  2.2164 -0.6003
 3727TIP3    H232673   0.745   6.245   4.683 -0.1865  1.8260  0.0815
 3728TIP3   OH232674   3.380   4.015   2.294 -0.2236 -0.2989  0.1609
 3728TIP3    H132675   3.392   4.110   2.292  2.5203 -0.6365 -1.8716
 3728TIP3    H232676   3.286   4.003   2.296 -0.6234  2.4602 -0.1579
 3729TIP3   OH232677   4.196   0.041  17.107  0.0713 -1.0263  0.1082
 3729TIP3    H132678   4.190   0.135  17.123 -0.7364 -1.1544  0.5638
 3729TIP3    H232679   4.207   0.035  17.012  0.8431 -0.4470  0.1525
 3730TIP3   OH232680   0.459   4.738   5.320 -0.3588 -0.1491 -0.5836
 3730TIP3    H132681   0.464   4.680   5.244 -0.4640 -1.2603  0.2272
 3730TIP3    H232682   0.525   4.805   5.304 -0.1937 -0.5245 -1.5240
 3731TIP3   OH232683   4.981   1.904   1.766 -0.5654  0.4245  0.0046
 3731TIP3    H132684   4.923   1.879   1.693 -0.1496  0.2280 -0.2568
 3731TIP3    H232685   5.068   1.905   1.728 -0.3123  0.0557  0.5748
 3732TIP3   OH232686   2.823   1.892  14.144  0.0610  0.1069 -0.2292
 3732TIP3    H132687   2.742   1.923  14.185  0.8963  0.4055  1.2129
 3732TIP3    H232688   2.868   1.843  14.212  0.1772 -1.7856 -1.6057
 3733TIP3   OH232689   2.795   6.120  14.513 -0.8442 -0.2002  0.2117
 3733TIP3    H132690   2.738   6.197  14.513 -0.4061  0.1383  1.5104
 3733TIP3    H232691   2.884   6.156  14.514 -0.5999 -0.7230 -1.8379
 3734TIP3   OH232692   1.250   4.634   1.151  0.0087 -0.5259  0.2479
 3734TIP3    H132693   1.258   4.596   1.238 -1.5372 -0.4397  0.4579
 3734TIP3    H232694   1.293   4.572   1.092  0.9672 -0.6334  1.0539
 3735TIP3   OH232695   3.072   3.798   5.921 -0.4318 -0.0034  0.5612
 3735TIP3    H132696   3.008   3.777   5.990 -0.9803 -0.9741 -0.2324
 3735TIP3    H232697   3.019   3.822   5.845  0.1725  0.8162  0.3941
 3736TIP3   OH232698   2.047   0.427   1.075  0.2293  0.2357  0.0947
 3736TIP3    H132699   1.965   0.457   1.037  0.1347 -0.2545 -0.0913
 3736TIP3    H232700   2.086   0.506   1.114 -0.8918  0.2170  1.2437
 3737TIP3   OH232701   6.706   1.217  12.513  0.3576  0.1164 -0.3204
 3737TIP3    H132702   6.639   1.203  12.446  0.3701 -1.1796 -0.0764
 3737TIP3    H232703   6.708   1.312  12.526  0.6504  0.4247 -2.4498
 3738TIP3   OH232704   5.440   6.085   4.637  0.0145 -0.3417  0.2155
 3738TIP3    H132705   5.496   6.007   4.639 -1.3497 -1.4019 -1.3336
 3738TIP3    H232706   5.490   6.149   4.587  0.1742 -1.0303 -0.5244
 3739TIP3   OH232707   4.842   3.043   1.679  0.3293  0.0057  0.1937
 3739TIP3    H132708   4.783   3.117   1.666  0.7815  0.2332 -0.6227
 3739TIP3    H232709   4.920   3.081   1.718  0.7353  0.0382 -0.6323
 3740TIP3   OH232710   6.470   5.140  11.578  0.1746 -0.7970  0.2410
 3740TIP3    H132711   6.488   5.148  11.671  1.3704 -3.7048  0.3249
 3740TIP3    H232712   6.530   5.202  11.536  0.9451 -0.8273  1.2967
 3741TIP3   OH232713   4.507   2.939   4.919 -0.5571 -0.1299 -0.3200
 3741TIP3    H132714   4.469   2.854   4.938 -1.0298 -0.1091 -1.1320
 3741TIP3    H232715   4.534   2.973   5.004 -1.2931 -0.6481  0.1261
 3742TIP3   OH232716   5.265   1.356   4.524 -0.1078  0.5478 -0.4002
 3742TIP3    H132717   5.305   1.274   4.553  0.1816  0.4502 -1.0631
 3742TIP3    H232718   5.332   1.422   4.542 -0.9359  0.8903  1.6022
 3743TIP3   OH232719   3.125   3.804   4.817  0.8365 -0.3437  0.2365
 3743TIP3    H132720   3.141   3.844   4.731  0.4580 -0.7111 -0.0056
 3743TIP3    H232721   3.042   3.757   4.807  0.6475 -0.1562  0.8850
 3744TIP3   OH232722   4.331   4.114   1.225  0.3331  0.4526 -0.2833
 3744TIP3    H132723   4.383   4.125   1.146  0.0066 -1.1665 -0.7341
 3744TIP3    H232724   4.394   4.095   1.294  0.3563 -1.8281 -0.8890
 3745TIP3   OH232725   3.903   5.214  16.873  0.3328 -0.2594  0.1680
 3745TIP3    H132726   3.953   5.181  16.948  0.2310 -0.6968  0.0464
 3745TIP3    H232727   3.848   5.283  16.908  0.8124  0.0227  0.3603
 3746TIP3   OH232728   4.676   5.994  15.730 -0.5114 -0.6250  0.4826
 3746TIP3    H132729   4.730   6.070  15.750 -1.9632  1.1609 -2.0049
 3746TIP3    H232730   4.732   5.937  15.677 -0.7192  0.7470 -1.2455
 3747TIP3   OH232731   4.880   4.289  13.526  0.5180 -0.2488 -0.1853
 3747TIP3    H132732   4.897   4.308  13.434  0.0168 -0.4550 -0.3235
 3747TIP3    H232733   4.816   4.355  13.553  0.5242 -0.3035 -0.0353
 3748TIP3   OH232734   4.015   3.347   0.348  0.4671 -0.0067 -0.5167
 3748TIP3    H132735   4.071   3.342   0.271 -1.0204 -1.6679 -1.5240
 3748TIP3    H232736   3.978   3.259   0.357 -0.1891  0.4480  1.4789
 3749TIP3   OH232737   6.123   5.339  11.601  0.0297 -0.3454 -0.4717
 3749TIP3    H132738   6.165   5.313  11.683 -1.1772  0.5653  0.4482
 3749TIP3    H232739   6.039   5.377  11.628 -0.8076 -0.9482 -2.2008
 3750TIP3   OH232740   3.023   2.623   0.882 -0.5127  0.5087 -0.0671
 3750TIP3    H132741   3.065   2.688   0.826  2.4923 -1.6705 -0.4688
 3750TIP3    H232742   2.942   2.600   0.835  0.1603  1.3707 -1.6881
 3751TIP3   OH232743   6.209   4.173  12.196 -0.1587  0.2383 -0.0936
 3751TIP3    H132744   6.115   4.160  12.197 -0.0463 -0.5596  0.5708
 3751TIP3    H232745   6.231   4.195  12.287  0.3745 -0.1970 -0.1144
 3752TIP3   OH232746   1.626   4.174   0.724  0.2400  0.5216 -0.0338
 3752TIP3    H132747   1.538   4.188   0.688  0.8659  1.0912 -1.3934
 3752TIP3    H232748   1.632   4.080   0.738 -0.6060  0.4878  0.1140
 3753TIP3   OH232749   3.690   1.061  13.422  0.4793  0.2214  0.0477
 3753TIP3    H132750   3.661   0.980  13.464  1.6764 -0.1399  0.1724
 3753TIP3    H232751   3.608   1.108  13.404 -0.1597 -0.5053  0.9732
 3754TIP3   OH232752   2.132   4.149   5.781  0.2814 -0.0929 -0.0128
 3754TIP3    H132753   2.202   4.214   5.771  1.0181 -0.9306 -0.3797
 3754TIP3    H232754   2.066   4.193   5.834  1.3734  0.4882  0.8927
 3755TIP3   OH232755   1.004   2.538   1.121 -0.4489  0.4459 -0.1487
 3755TIP3    H132756   0.924   2.556   1.170 -0.7463 -2.2501  0.4037
 3755TIP3    H232757   1.075   2.559   1.182 -0.7156  2.0577 -0.3680
 3756TIP3   OH232758   5.256   2.332   6.754  0.3971  0.5868 -0.0207
 3756TIP3    H132759   5.304   2.258   6.792  1.7746  1.8113  0.7120
 3756TIP3    H232760   5.213   2.373   6.829 -0.8442  0.1789 -0.5112
 3757TIP3   OH232761   6.284   1.781  12.327 -0.9000  0.3767  0.6443
 3757TIP3    H132762   6.340   1.857  12.321 -1.1837  0.5478  0.1420
 3757TIP3    H232763   6.195   1.816  12.320 -1.0613  0.0893  1.2349
 3758TIP3   OH232764   2.998   6.594   2.764  0.0542  0.4198  0.0053
 3758TIP3    H132765   2.986   6.638   2.680  1.0347  0.5855 -0.0500
 3758TIP3    H232766   2.914   6.604   2.809  0.0628  1.7583 -0.2759
 3759TIP3   OH232767   0.042   5.095   0.240  0.4366  0.8621 -0.4868
 3759TIP3    H132768   0.018   5.171   0.186 -0.7314  1.6716  1.1229
 3759TIP3    H232769   0.019   5.121   0.329 -2.3027 -2.3132 -0.1828
 3760TIP3   OH232770   6.719   3.514   5.575 -0.1225  0.2806  0.4202
 3760TIP3    H132771   6.796   3.464   5.603  0.3390  1.9156  2.1868
 3760TIP3    H232772   6.655   3.448   5.551  1.2935 -1.1352  0.4280
 3761TIP3   OH232773   6.428   4.694   3.417  0.1775  0.4666 -0.1508
 3761TIP3    H132774   6.487   4.677   3.491 -1.7588 -0.9720  1.1120
 3761TIP3    H232775   6.442   4.619   3.359  0.1478  0.5175 -0.2228
 3762TIP3   OH232776   2.339   5.235  10.999  0.4689  0.4041 -0.0000
 3762TIP3    H132777   2.269   5.278  10.950  1.4371 -0.0767 -1.8703
 3762TIP3    H232778   2.326   5.262  11.089 -1.2019  1.5549 -0.5693
 3763TIP3   OH232779   5.563   2.946  15.038  0.1368 -0.1465  0.0631
 3763TIP3    H132780   5.587   2.919  14.949 -0.5252 -0.9985  0.1445
 3763TIP3    H232781   5.587   3.039  15.042 -1.4520  0.3504 -1.5806
 3764TIP3   OH232782   6.602   4.592  12.749 -0.0676 -0.2903 -0.0077
 3764TIP3    H132783   6.619   4.499  12.764 -1.4844 -0.5631  0.0179
 3764TIP3    H232784   6.577   4.597  12.656 -2.0022 -0.2792  0.4757
 3765TIP3   OH232785   2.405   4.199  15.796  0.3527  0.3646 -0.3243
 3765TIP3    H132786   2.472   4.132  15.807  0.5591  0.5714 -0.3055
 3765TIP3    H232787   2.322   4.154  15.810  0.5404  0.3258  0.6905
 3766TIP3   OH232788   4.140   3.438  11.435  0.4720  0.1000 -0.1330
 3766TIP3    H132789   4.073   3.507  11.428  2.7973  2.4508  0.1228
 3766TIP3    H232790   4.096   3.366  11.479 -2.0885  1.3423 -0.5687
 3767TIP3   OH232791   5.889   1.606  13.132  0.0152 -0.3401 -0.5876
 3767TIP3    H132792   5.919   1.653  13.055  0.6395 -1.0908 -0.8092
 3767TIP3    H232793   5.949   1.633  13.202  0.6237 -1.0975 -0.8078
 3768TIP3   OH232794   5.054   3.057  15.203  0.1111  0.0152  0.1419
 3768TIP3    H132795   5.085   3.109  15.277 -0.7698  0.0002  0.5273
 3768TIP3    H232796   5.126   2.997  15.183  0.5820  0.4250  0.5933
 3769TIP3   OH232797   4.860   4.485   4.792  0.0971 -0.4403  0.2507
 3769TIP3    H132798   4.940   4.529   4.764  0.3042 -0.4328  0.8484
 3769TIP3    H232799   4.832   4.533   4.870  0.2995 -1.3278  0.8848
 3770TIP3   OH232800   1.025   6.151   2.042 -0.1392 -0.2474 -0.1120
 3770TIP3    H132801   1.082   6.117   1.973  0.0714 -0.3690  0.1213
 3770TIP3    H232802   0.939   6.116   2.020  0.0222 -0.6909 -0.0389
 3771TIP3   OH232803   1.579   5.635   2.109  0.1720 -0.2833 -0.0065
 3771TIP3    H132804   1.655   5.622   2.166  0.4619 -1.3600 -0.6358
 3771TIP3    H232805   1.592   5.575   2.036 -1.4103 -0.6651 -0.0046
 3772TIP3   OH232806   5.915   0.557   5.275 -0.4725  0.1173  0.2311
 3772TIP3    H132807   5.894   0.543   5.367 -1.2236 -0.6163 -0.0370
 3772TIP3    H232808   5.979   0.489   5.255 -0.6564 -0.0184  0.1004
 3773TIP3   OH232809   4.839   1.140  13.927  0.1458  0.4872 -0.4204
 3773TIP3    H132810   4.885   1.148  13.844  0.8704  0.5679 -0.0167
 3773TIP3    H232811   4.748   1.124  13.903  0.0641  2.0719 -1.2360
 3774TIP3   OH232812   4.374   0.092  13.159  0.6784  0.5189 -0.4965
 3774TIP3    H132813   4.438   0.112  13.092  0.2779  1.9852 -0.4588
 3774TIP3    H232814   4.414   0.122  13.241  0.7005 -0.2322 -0.2277
 3775TIP3   OH232815   0.252   6.706   5.235  0.0508  0.7242 -0.1104
 3775TIP3    H132816   0.242   6.612   5.254 -0.3257  0.5661 -1.1005
 3775TIP3    H232817   0.294   6.741   5.314 -0.1131 -0.2144  0.4074
 3776TIP3   OH232818   1.126   1.999   2.243 -0.0065  0.1480 -0.2320
 3776TIP3    H132819   1.051   1.973   2.189 -1.0833  1.4371  0.6130
 3776TIP3    H232820   1.185   1.924   2.239 -1.9079 -1.3999  0.1098
 3777TIP3   OH232821   5.770   2.524   2.082 -0.7994 -0.3339  0.7368
 3777TIP3    H132822   5.677   2.538   2.068 -0.9781 -2.4962 -0.5245
 3777TIP3    H232823   5.807   2.516   1.994  0.5728  0.4555  1.2214
 3778TIP3   OH232824   1.331   1.000  14.588  0.1843  0.2262  0.5095
 3778TIP3    H132825   1.241   0.972  14.570 -0.0861  0.1005  2.0252
 3778TIP3    H232826   1.360   0.942  14.658  0.9207  1.2888  1.0867
 3779TIP3   OH232827   1.794   3.022  11.969 -0.4453  0.0552  0.0818
 3779TIP3    H132828   1.721   2.998  12.026  0.2243 -0.5688  0.6846
 3779TIP3    H232829   1.752   3.061  11.892 -1.5140 -1.7933 -0.3194
 3780TIP3   OH232830   3.606   4.847   1.904 -0.1301  0.3444 -0.5901
 3780TIP3    H132831   3.676   4.793   1.940 -0.6528  0.6508  0.9525
 3780TIP3    H232832   3.623   4.851   1.810  0.4198 -1.7497 -0.5928
 3781TIP3   OH232833   0.742   3.816  12.361 -0.3251  0.0058  0.0083
 3781TIP3    H132834   0.680   3.781  12.297 -1.7087  1.6682  0.4374
 3781TIP3    H232835   0.827   3.811  12.316 -0.7227 -2.2349 -0.5905
 3782TIP3   OH232836   1.748   5.170  15.356  0.0138  0.2050 -0.4960
 3782TIP3    H132837   1.730   5.097  15.416  1.1366  1.2575  1.1787
 3782TIP3    H232838   1.663   5.195  15.321 -0.4740 -1.3810 -0.4589
 3783TIP3   OH232839   3.190   5.890  17.228 -0.6263 -0.0056  0.2718
 3783TIP3    H132840   3.276   5.899  17.269  0.4527 -1.1079 -1.6618
 3783TIP3    H232841   3.172   5.976  17.190  1.0647 -0.5948 -1.9693
 3784TIP3   OH232842   1.866   1.792   4.757  0.0378 -0.2372  0.3544
 3784TIP3    H132843   1.906   1.858   4.700  2.3580  0.1993  2.3919
 3784TIP3    H232844   1.815   1.842   4.820 -0.5760 -0.5862  0.1448
 3785TIP3   OH232845   4.732   4.529   4.161  0.6424 -0.1148  0.9848
 3785TIP3    H132846   4.656   4.570   4.201 -0.4484  0.3897 -1.4636
 3785TIP3    H232847   4.707   4.437   4.150  0.0483  0.2086 -0.5182
 3786TIP3   OH232848   6.149   2.149  15.682  0.2668  0.1552 -0.9412
 3786TIP3    H132849   6.059   2.175  15.658  0.4817  0.7800 -1.0960
 3786TIP3    H232850   6.189   2.125  15.598  0.6490  1.1658 -1.0564
 3787TIP3   OH232851   5.320   4.469   5.479  0.1724  0.1231  0.4542
 3787TIP3    H132852   5.290   4.381   5.457 -0.1044  0.2975  0.1161
 3787TIP3    H232853   5.268   4.494   5.556  0.3653 -0.0708  0.6474
 3788TIP3   OH232854   1.768   1.027  13.315 -0.5919  0.7200  0.4337
 3788TIP3    H132855   1.690   1.001  13.363 -1.1567  1.5349 -0.0248
 3788TIP3    H232856   1.754   0.994  13.226  0.3045 -0.5036  0.7316
 3789TIP3   OH232857   2.172   5.188  13.862  0.6138 -0.7301  0.2313
 3789TIP3    H132858   2.181   5.279  13.891 -0.0813  0.4806 -3.1238
 3789TIP3    H232859   2.100   5.153  13.916  1.0206  0.6137  1.6857
 3790TIP3   OH232860   5.942   4.179  11.212 -0.3863 -0.2124  0.1678
 3790TIP3    H132861   5.973   4.155  11.125 -0.9112  2.4243 -0.7717
 3790TIP3    H232862   6.021   4.194  11.263 -0.0857 -0.0822 -0.3384
 3791TIP3   OH232863   5.729   0.864   3.549  0.0628 -0.4863  0.3591
 3791TIP3    H132864   5.759   0.951   3.575  2.7910 -1.6542  1.2915
 3791TIP3    H232865   5.790   0.837   3.480 -1.5592 -1.1595 -0.8560
 3792TIP3   OH232866   3.550   5.772   2.547  0.2391  0.5794 -0.0647
 3792TIP3    H132867   3.475   5.787   2.605 -0.3357 -0.5707 -0.4874
 3792TIP3    H232868   3.537   5.683   2.514  2.4368 -0.1117  0.7975
 3793TIP3   OH232869   1.654   0.570  12.726  0.4359 -0.2934  0.0776
 3793TIP3    H132870   1.747   0.579  12.747  0.2700  2.1125 -0.0634
 3793TIP3    H232871   1.609   0.584  12.809  0.1014  1.6709 -0.4033
 3794TIP3   OH232872   3.363   2.821   3.191  0.1202  0.1154 -0.6570
 3794TIP3    H132873   3.384   2.798   3.101 -0.0008  0.1637 -0.6977
 3794TIP3    H232874   3.271   2.798   3.201 -0.1743  1.1808 -0.8921
 3795TIP3   OH232875   4.273   0.084   4.805  0.1794 -0.3893  0.4433
 3795TIP3    H132876   4.299  -0.007   4.793 -1.6697 -0.8967  0.1958
 3795TIP3    H232877   4.181   0.080   4.828 -0.0356  1.4529 -0.0154
 3796TIP3   OH232878   4.169   0.114  15.317  0.4552  0.0580  0.1064
 3796TIP3    H132879   4.228   0.043  15.341 -0.3821 -0.5830  0.2736
 3796TIP3    H232880   4.116   0.079  15.245 -1.8432 -0.4577  2.0075
 3797TIP3   OH232881   0.843   1.742  13.826  0.4710 -0.1960 -0.2363
 3797TIP3    H132882   0.926   1.700  13.850  0.8384  1.4527  1.5654
 3797TIP3    H232883   0.865   1.799  13.753  0.9126  0.1495  0.1612
 3798TIP3   OH232884   0.060   1.847   3.472 -0.6215  0.2461  0.0904
 3798TIP3    H132885   0.048   1.795   3.552 -1.2037 -1.0794 -0.8358
 3798TIP3    H232886  -0.029   1.873   3.447 -0.7233 -1.6302 -1.6001
 3799TIP3   OH232887   2.196   1.034  13.702  0.1093  0.0873 -0.6181
 3799TIP3    H132888   2.100   1.028  13.706  0.1260 -0.3330 -0.8716
 3799TIP3    H232889   2.213   1.121  13.668 -0.1365  1.7989  3.3771
 3800TIP3   OH232890   6.115   6.755   2.498 -0.6516 -0.5391  0.2972
 3800TIP3    H132891   6.099   6.689   2.565  0.3375 -1.8657 -0.7360
 3800TIP3    H232892   6.092   6.712   2.416  1.9143 -0.3092 -0.5939
 3801TIP3   OH232893   5.739   0.991   0.861 -0.0253  0.2233  0.3682
 3801TIP3    H132894   5.712   1.057   0.797 -0.8143 -1.4347 -1.0590
 3801TIP3    H232895   5.666   0.929   0.864  0.4221 -0.2314  2.1805
 3802TIP3   OH232896   4.969   3.055  13.042  0.1309 -0.2295 -0.3150
 3802TIP3    H132897   4.958   3.119  12.972  0.1203 -0.6532 -0.6978
 3802TIP3    H232898   4.948   3.104  13.122  1.0642  0.5070 -0.5118
 3803TIP3   OH232899   3.765   3.377   1.799 -0.1483  0.0227  0.0730
 3803TIP3    H132900   3.807   3.292   1.808 -2.1330 -0.9981  0.0528
 3803TIP3    H232901   3.733   3.397   1.887  0.3626  0.7852  0.0920
 3804TIP3   OH232902   5.654   0.825  12.993 -0.3140  0.6177 -0.1984
 3804TIP3    H132903   5.647   0.919  13.007  0.0975  0.8283 -1.3572
 3804TIP3    H232904   5.687   0.791  13.076 -1.4293  1.3629  0.5595
 3805TIP3   OH232905   0.624   1.716   2.043 -0.1167 -0.5992  0.2299
 3805TIP3    H132906   0.606   1.640   1.988  0.3578  0.5119 -1.4739
 3805TIP3    H232907   0.603   1.791   1.989  1.5144  0.5456  1.1331
 3806TIP3   OH232908   3.638   1.649  15.524 -0.1859 -0.0329  0.4256
 3806TIP3    H132909   3.620   1.607  15.608  0.8013  0.2842  0.8020
 3806TIP3    H232910   3.654   1.741  15.546 -0.0714  0.0852 -0.1317
 3807TIP3   OH232911   4.205   5.167   0.111 -0.2220  0.6656  0.1163
 3807TIP3    H132912   4.156   5.201   0.185  0.1991  2.3325 -0.3363
 3807TIP3    H232913   4.225   5.076   0.134  0.1933  1.2641  2.1830
 3808TIP3   OH232914   0.315   6.116   5.852  0.2619 -0.3127 -0.7676
 3808TIP3    H132915   0.264   6.084   5.926  0.7504  0.9709  0.1447
 3808TIP3    H232916   0.401   6.075   5.863  0.2655 -0.3074 -0.7745
 3809TIP3   OH232917   2.913   4.755  13.727 -0.3143 -0.2232 -0.5579
 3809TIP3    H132918   2.964   4.781  13.803 -2.2189 -0.6868  0.9125
 3809TIP3    H232919   2.839   4.705  13.763 -1.0846 -0.7153 -2.7170
 3810TIP3   OH232920   4.219   2.684   3.564 -0.0913 -0.1101 -0.3734
 3810TIP3    H132921   4.176   2.651   3.485  0.4359 -1.0434 -0.2712
 3810TIP3    H232922   4.185   2.630   3.635 -0.6277  0.7824  0.0632
 3811TIP3   OH232923   0.787   3.647   3.070  0.1166  0.1323  0.2362
 3811TIP3    H132924   0.757   3.602   2.991  1.1887 -0.0263 -0.0937
 3811TIP3    H232925   0.882   3.650   3.060  0.1351  1.5590  0.7444
 3812TIP3   OH232926   0.346   1.176   3.679 -0.0212 -0.3741  0.6217
 3812TIP3    H132927   0.386   1.119   3.744 -1.0559 -0.7509  0.9238
 3812TIP3    H232928   0.403   1.168   3.602  0.7992 -0.4706  1.2412
 3813TIP3   OH232929   1.192   5.177   4.314  0.4753 -0.1471  0.1045
 3813TIP3    H132930   1.180   5.090   4.276  0.5219  0.0047 -0.2594
 3813TIP3    H232931   1.258   5.164   4.383  1.2249 -0.2157 -0.6135
 3814TIP3   OH232932   4.863   5.958  11.699 -0.0727  0.1607 -0.5483
 3814TIP3    H132933   4.916   6.038  11.701  0.9683 -0.5262  0.9521
 3814TIP3    H232934   4.796   5.972  11.765 -1.8441  1.0643 -2.5133
 3815TIP3   OH232935   3.766   1.223  10.849  0.0293 -0.5020 -0.0495
 3815TIP3    H132936   3.697   1.197  10.910 -0.3279  0.5676  0.0252
 3815TIP3    H232937   3.847   1.192  10.889 -0.0616  1.4327  1.7056
 3816TIP3   OH232938   2.618   4.493  13.604  0.7749 -0.6247 -0.0285
 3816TIP3    H132939   2.658   4.522  13.686 -0.0940 -0.3513  0.3026
 3816TIP3    H232940   2.575   4.571  13.569 -0.8245 -1.2765  0.4340
 3817TIP3   OH232941   5.029   0.897   0.052  0.0409  0.1226  0.1689
 3817TIP3    H132942   5.062   0.815   0.014  0.4403  0.5741 -0.4675
 3817TIP3    H232943   5.025   0.958  -0.021 -0.9883  0.4598  0.4960
 3818TIP3   OH232944   1.523   4.692  10.601 -0.1378  0.1630 -0.0897
 3818TIP3    H132945   1.556   4.782  10.610 -0.5583  0.3463 -0.3023
 3818TIP3    H232946   1.600   4.637  10.601  0.1889  0.6158 -1.0198
 3819TIP3   OH232947   5.008   6.705   5.546  0.1794 -0.2300 -0.3374
 3819TIP3    H132948   5.059   6.766   5.598 -0.5881  0.2534 -0.1385
 3819TIP3    H232949   4.972   6.758   5.474  1.2912 -0.9050 -1.4233
 3820TIP3   OH232950   1.974   2.981   4.911  0.3462 -0.4162  0.5494
 3820TIP3    H132951   2.057   2.995   4.866 -1.2298  0.4224 -2.2402
 3820TIP3    H232952   1.962   3.059   4.964 -0.0992  0.9145 -1.4533
 3821TIP3   OH232953   5.623   0.462   6.448  0.0474  0.0014  0.0774
 3821TIP3    H132954   5.663   0.436   6.531 -1.3690  2.2368  1.5207
 3821TIP3    H232955   5.683   0.527   6.412 -0.0695  0.0929  0.0487
 3822TIP3   OH232956   5.652   5.316   5.342  0.8575 -0.0890  0.5464
 3822TIP3    H132957   5.633   5.335   5.434  1.0227 -2.4535  1.0837
 3822TIP3    H232958   5.704   5.392   5.313  0.3854  0.9169  2.2500
 3823TIP3   OH232959   5.798   5.302   1.354  0.1598 -0.0024 -0.0745
 3823TIP3    H132960   5.817   5.216   1.316 -2.2198  0.0932 -1.5747
 3823TIP3    H232961   5.799   5.362   1.280 -0.7114  0.8420  0.5815
 3824TIP3   OH232962   0.496   2.269  14.421 -0.1626 -0.3493  0.2339
 3824TIP3    H132963   0.486   2.289  14.328  0.1984 -0.2105  0.2204
 3824TIP3    H232964   0.573   2.212  14.425 -0.2458 -0.4487  0.4349
 3825TIP3   OH232965   5.399   6.771  16.699  0.2878 -0.1761  0.0105
 3825TIP3    H132966   5.451   6.763  16.779 -0.3733 -1.8906  0.2882
 3825TIP3    H232967   5.437   6.707  16.639 -2.7407 -3.0131  0.9486
 3826TIP3   OH232968   2.885   4.537  15.005 -0.0459 -0.2057 -0.0127
 3826TIP3    H132969   2.918   4.597  15.071  0.2905 -0.0991 -0.2805
 3826TIP3    H232970   2.790   4.551  15.005 -0.0219 -0.0481  0.2898
 3827TIP3   OH232971   3.566   1.931  16.649 -0.5353  0.4502 -0.3076
 3827TIP3    H132972   3.568   1.870  16.723 -2.2320 -1.2274 -1.5988
 3827TIP3    H232973   3.622   1.890  16.583  0.0379  1.3620 -0.3940
 3828TIP3   OH232974   1.229   0.123  12.892  0.0088  0.0044  0.4400
 3828TIP3    H132975   1.247   0.062  12.963 -0.4614  1.1962  1.6108
 3828TIP3    H232976   1.315   0.147  12.858  0.2482 -0.3454  0.8014
 3829TIP3   OH232977   4.757   5.873   0.805  0.1969  0.0499  0.3628
 3829TIP3    H132978   4.695   5.882   0.878  1.1753 -1.6518  1.4419
 3829TIP3    H232979   4.717   5.809   0.747  0.0280  0.4257  0.0642
 3830TIP3   OH232980   2.132   4.559   2.936  0.4491 -0.3592 -0.2983
 3830TIP3    H132981   2.198   4.506   2.981 -0.0106  0.2159  1.0754
 3830TIP3    H232982   2.164   4.649   2.943 -0.3387 -0.1111  0.1358
 3831TIP3   OH232983   2.562   1.418  13.317  0.4141 -0.1378 -0.0262
 3831TIP3    H132984   2.490   1.410  13.254  1.8003 -0.7977 -1.5487
 3831TIP3    H232985   2.536   1.361  13.390 -1.0775  0.4314 -0.0802
 3832TIP3   OH232986   3.838   3.711   5.814  0.2844 -0.3545 -0.3384
 3832TIP3    H132987   3.785   3.752   5.746  0.1935 -1.1951 -0.7772
 3832TIP3    H232988   3.872   3.785   5.866 -2.2771  0.1586  0.6809
 3833TIP3   OH232989   4.937   2.122  17.051 -0.1961 -0.0175  0.1996
 3833TIP3    H132990   5.023   2.094  17.020 -0.2777 -1.6915  1.4548
 3833TIP3    H232991   4.917   2.064  17.124 -1.7826  1.2736  0.8288
 3834TIP3   OH232992   6.325   5.505   1.316  0.2450 -0.3751 -0.2596
 3834TIP3    H132993   6.308   5.600   1.315 -0.1030 -0.4129  1.1481
 3834TIP3    H232994   6.374   5.491   1.397  1.1124 -1.2738 -0.9313
 3835TIP3   OH232995   1.512   4.233  15.525  0.4671  0.0182  0.4679
 3835TIP3    H132996   1.525   4.198  15.613 -0.1732  1.2370  1.0598
 3835TIP3    H232997   1.559   4.316  15.525  3.4259 -1.5617 -1.4685
 3836TIP3   OH232998   5.380   5.307  15.727  0.0552 -0.1610 -0.3316
 3836TIP3    H132999   5.455   5.365  15.713 -0.5372  0.5548 -0.5516
 3836TIP3    H233000   5.368   5.305  15.822 -1.8266  2.5230 -0.4673
 3837TIP3   OH233001   2.485   2.879  13.759 -0.0756 -0.1713  0.3439
 3837TIP3    H133002   2.467   2.882  13.853  0.6224  0.1575  0.4724
 3837TIP3    H233003   2.556   2.942  13.746 -0.9106  0.6061 -0.5767
 3838TIP3   OH233004   0.926   3.356   6.250  0.4076 -0.1729  0.8713
 3838TIP3    H133005   0.890   3.271   6.276 -0.5296 -0.1873 -0.3631
 3838TIP3    H233006   0.893   3.417   6.316 -0.7272 -0.4276  0.5600
 3839TIP3   OH233007   6.389   1.294  14.217 -0.1070  0.0583  0.1245
 3839TIP3    H133008   6.356   1.225  14.160  0.5716 -2.0153  2.1998
 3839TIP3    H233009   6.311   1.331  14.258 -0.3316 -0.7056  0.3938
 3840TIP3   OH233010   5.292   3.823   1.205  0.3255  0.2798  0.3702
 3840TIP3    H133011   5.231   3.857   1.141 -1.7250 -0.5076  1.8613
 3840TIP3    H233012   5.276   3.876   1.284  0.5761 -0.8573  1.1944
 3841TIP3   OH233013   3.101   4.348   0.584 -0.2462  0.0359 -0.2743
 3841TIP3    H133014   3.109   4.280   0.517  0.5342  0.0711 -0.2221
 3841TIP3    H233015   3.018   4.391   0.565  0.0235  0.1269 -1.3088
 3842TIP3   OH233016   3.184   3.732  13.253  0.1465 -0.6617 -0.2720
 3842TIP3    H133017   3.200   3.756  13.161  2.0244  0.0922  0.2180
 3842TIP3    H233018   3.272   3.716  13.288 -0.6315 -1.9451  1.1346
 3843TIP3   OH233019   0.706   3.723   3.332 -0.0163  0.6611  0.1869
 3843TIP3    H133020   0.723   3.691   3.243  2.5174  0.0890  0.8562
 3843TIP3    H233021   0.792   3.745   3.367 -1.0724  1.6758  2.2238
 3844TIP3   OH233022   5.298   1.285   1.966 -0.3230  0.0390  0.5034
 3844TIP3    H133023   5.368   1.270   2.029 -0.7572 -2.9016  0.3870
 3844TIP3    H233024   5.231   1.332   2.015  1.2373  1.9091  0.9110
 3845TIP3   OH233025   6.806   6.516   3.596 -0.2555 -0.1592  0.3714
 3845TIP3    H133026   6.801   6.536   3.690 -3.2157  2.8763 -0.3299
 3845TIP3    H233027   6.730   6.460   3.579  0.4302 -0.9298 -0.1641
 3846TIP3   OH233028   0.933   6.662   1.076  0.1078 -0.3042  0.4262
 3846TIP3    H133029   0.859   6.714   1.106  0.0927  0.2676 -0.5617
 3846TIP3    H233030   0.904   6.626   0.992  0.3694 -1.3609  0.7803
 3847TIP3   OH233031   0.098   1.511  14.381  0.6801 -0.4761 -0.4715
 3847TIP3    H133032   0.054   1.546  14.458 -1.1860 -0.6002 -1.4426
 3847TIP3    H233033   0.096   1.583  14.318  0.5513 -0.9731 -1.0368
 3848TIP3   OH233034   3.422   1.199   5.348 -0.1420  0.1075  0.2741
 3848TIP3    H133035   3.348   1.213   5.408 -0.4057 -1.5191  0.3600
 3848TIP3    H233036   3.414   1.107   5.322  1.5949  0.0425 -0.0765
 3849TIP3   OH233037   0.526   6.018   2.525  0.3056  0.4317  0.4302
 3849TIP3    H133038   0.526   6.029   2.430  0.2802  2.2114  0.6056
 3849TIP3    H233039   0.448   5.965   2.543  1.8907 -2.3971 -0.7493
 3850TIP3   OH233040   0.181   5.820   4.201  0.2587  0.0279 -0.3251
 3850TIP3    H133041   0.196   5.855   4.288  1.8315  1.4763 -1.1664
 3850TIP3    H233042   0.092   5.848   4.179  0.1856  0.4075  0.4326
 3851TIP3   OH233043   0.912   5.592  11.717  0.5205 -0.0029  0.0404
 3851TIP3    H133044   0.991   5.581  11.770  1.3520 -0.8894 -1.3274
 3851TIP3    H233045   0.907   5.511  11.665  1.5151  2.0774 -3.4882
 3852TIP3   OH233046   2.066   2.656  13.322  0.2513  0.7132  0.2462
 3852TIP3    H133047   2.119   2.701  13.387  1.8399 -1.3860  0.4341
 3852TIP3    H233048   1.978   2.654  13.360  0.7848  1.0892  1.5248
 3853TIP3   OH233049   6.696   2.427  12.618 -0.7842  0.5835  0.0590
 3853TIP3    H133050   6.628   2.365  12.645 -1.0869  1.3261  1.0928
 3853TIP3    H233051   6.764   2.374  12.579 -2.1884 -0.1348 -1.4679
 3854TIP3   OH233052   6.310   4.497  16.631 -0.0266 -0.3559 -0.2844
 3854TIP3    H133053   6.218   4.475  16.615  0.0707 -1.1440  0.2069
 3854TIP3    H233054   6.350   4.414  16.655  1.0202 -0.1844 -1.4123
 3855TIP3   OH233055   6.347   6.546  14.539 -0.2760 -0.1011 -0.6244
 3855TIP3    H133056   6.341   6.532  14.444  3.5436 -0.7204 -0.8716
 3855TIP3    H233057   6.287   6.619  14.556 -0.9752  0.0789 -3.5260
 3856TIP3   OH233058   5.469   1.804   4.424 -0.2412  0.2647 -0.5158
 3856TIP3    H133059   5.444   1.889   4.460 -2.1193  0.1516 -1.5088
 3856TIP3    H233060   5.502   1.824   4.336 -1.7124 -0.1170 -1.1748
 3857TIP3   OH233061   3.821   3.322  14.709 -0.3095  0.3249  0.4132
 3857TIP3    H133062   3.728   3.314  14.729  0.1315  0.9881  2.8773
 3857TIP3    H233063   3.827   3.399  14.653 -1.1753  0.6137  0.7064
 3858TIP3   OH233064   3.279   3.577  15.548  0.4172  0.3636  0.4196
 3858TIP3    H133065   3.193   3.620  15.542  0.9300  1.4625  0.8575
 3858TIP3    H233066   3.305   3.563  15.457 -0.5832 -0.7201  0.2813
 3859TIP3   OH233067   2.100   0.099   3.215 -0.0895  0.1886 -0.0847
 3859TIP3    H133068   2.163   0.152   3.263 -0.6679  1.0524 -0.2624
 3859TIP3    H233069   2.132   0.099   3.125 -0.7782  1.3120 -0.3368
 3860TIP3   OH233070   3.512   3.940   2.704 -0.5997  0.4879 -0.1362
 3860TIP3    H133071   3.543   3.982   2.624  2.6029 -2.2599 -0.4445
 3860TIP3    H233072   3.437   3.888   2.676 -0.6098  0.9586 -1.0050
 3861TIP3   OH233073   4.339   4.079   1.642  0.5319 -0.4704  1.1064
 3861TIP3    H133074   4.244   4.086   1.634  0.5317 -1.4195  0.2376
 3861TIP3    H233075   4.355   4.078   1.737 -0.1082  2.2272  1.2936
 3862TIP3   OH233076   3.073   1.009   2.478 -0.0020  0.1987 -0.0478
 3862TIP3    H133077   3.046   0.993   2.569 -0.2403 -1.3564 -0.3786
 3862TIP3    H233078   3.041   1.098   2.459 -2.4836 -0.5265  0.4774
 3863TIP3   OH233079   4.471   5.167  11.388 -0.0013 -0.7578 -0.7604
 3863TIP3    H133080   4.562   5.177  11.416 -0.0966 -0.8076 -0.4284
 3863TIP3    H233081   4.420   5.209  11.458 -0.1762  0.2211 -1.4578
 3864TIP3   OH233082   1.238   1.228   5.889 -0.6692 -0.4808  0.2305
 3864TIP3    H133083   1.309   1.267   5.941 -2.2841  0.3770  1.8608
 3864TIP3    H233084   1.229   1.140   5.924  0.7017 -1.1863 -1.1376
 3865TIP3   OH233085   6.011   5.897   5.463 -0.1475 -0.1322 -0.3444
 3865TIP3    H133086   6.094   5.937   5.490  0.9226 -1.4642 -1.5503
 3865TIP3    H233087   5.979   5.853   5.542 -0.0511  0.9564  0.3099
 3866TIP3   OH233088   6.416   1.273  15.649 -0.4227 -0.1976  0.1023
 3866TIP3    H133089   6.477   1.282  15.722  3.2126  0.4117 -2.9107
 3866TIP3    H233090   6.387   1.182  15.652 -0.1546 -0.2427  2.1035
 3867TIP3   OH233091   6.294   6.276   5.172  0.4743 -0.2855 -0.4427
 3867TIP3    H133092   6.222   6.339   5.163  0.5281 -0.0542  0.7272
 3867TIP3    H233093   6.267   6.220   5.245  1.6233 -0.0213  0.1788
 3868TIP3   OH233094   3.970   0.601   5.095  0.3291 -0.2942  0.0932
 3868TIP3    H133095   3.971   0.589   5.190 -0.2431  0.7589  0.2429
 3868TIP3    H233096   3.880   0.582   5.070 -0.5882  3.2819  0.3248
 3869TIP3   OH233097   0.914   4.106   0.624  0.3827  0.4681  0.2174
 3869TIP3    H133098   0.863   4.186   0.632  1.4498  1.1815 -0.0433
 3869TIP3    H233099   0.900   4.076   0.535 -0.8138 -0.1852  0.6183
 3870TIP3   OH233100   6.690   1.215   5.809 -0.0891  0.3860 -0.0957
 3870TIP3    H133101   6.755   1.223   5.879 -2.2593 -0.2923  2.1044
 3870TIP3    H233102   6.625   1.283   5.829  0.0201  1.1930 -2.3563
 3871TIP3   OH233103   5.658   4.750   1.708  0.5070 -0.7338  0.4701
 3871TIP3    H133104   5.671   4.798   1.790  0.5240  0.2876 -0.1220
 3871TIP3    H233105   5.636   4.661   1.736  1.9683 -0.7789  1.5792
 3872TIP3   OH233106   5.861   6.120   4.450 -0.1465 -0.2881 -0.0910
 3872TIP3    H133107   5.862   6.214   4.465 -0.3587 -0.3176  0.1093
 3872TIP3    H233108   5.882   6.082   4.535  1.5190 -0.3816 -0.5399
 3873TIP3   OH233109   3.280   6.413  16.593  0.3608 -0.0427  0.4554
 3873TIP3    H133110   3.274   6.507  16.610  0.7798  0.2572 -0.9501
 3873TIP3    H233111   3.350   6.382  16.650  0.6719  0.6308  0.4450
 3874TIP3   OH233112   1.409   4.768  14.703 -0.3614  0.0236  1.1319
 3874TIP3    H133113   1.372   4.853  14.680 -0.3400 -0.5566 -1.1312
 3874TIP3    H233114   1.335   4.707  14.695  1.0236 -1.2321 -3.8989
 3875TIP3   OH233115   3.843   5.925  16.564 -0.3053 -0.5900 -0.5747
 3875TIP3    H133116   3.903   5.852  16.573  0.3019 -0.1328 -0.8685
 3875TIP3    H233117   3.867   5.984  16.636 -1.5022 -1.1636  0.3293
 3876TIP3   OH233118   1.856   5.241   3.478 -0.0320 -0.3600 -0.4657
 3876TIP3    H133119   1.905   5.243   3.396  0.8568  1.1809  0.0724
 3876TIP3    H233120   1.907   5.296   3.538 -0.6215 -1.5430  1.1499
 3877TIP3   OH233121   2.455   1.103   5.865  0.2100 -0.3972 -0.4538
 3877TIP3    H133122   2.395   1.109   5.791  0.1908  1.6685 -0.3085
 3877TIP3    H233123   2.399   1.089   5.941 -0.0887  1.3701 -0.3380
 3878TIP3   OH233124   6.290   5.507   0.430  0.4181  0.0095  0.1057
 3878TIP3    H133125   6.332   5.422   0.413 -0.2907 -0.3257  0.0148
 3878TIP3    H233126   6.226   5.489   0.498 -0.9414  0.1043 -1.1187
 3879TIP3   OH233127   0.317   5.731  14.505 -0.8013  0.2224  0.5439
 3879TIP3    H133128   0.358   5.817  14.506 -2.7340  1.1745 -0.0436
 3879TIP3    H233129   0.321   5.704  14.413  2.3231 -1.6140  1.1190
 3880TIP3   OH233130   4.018   0.381   4.644  0.3223 -0.6949  0.7631
 3880TIP3    H133131   4.023   0.311   4.709 -1.5342 -1.5104  0.0679
 3880TIP3    H233132   3.980   0.455   4.693 -0.8038 -1.2177  0.7007
 3881TIP3   OH233133   0.069   3.264  13.427  0.1261  0.1267 -0.4214
 3881TIP3    H133134   0.040   3.353  13.410 -0.1133 -0.2350 -1.9510
 3881TIP3    H233135   0.149   3.275  13.479  0.2243  1.2269 -0.7967
 3882TIP3   OH233136   3.116   3.276  12.579  0.2815  0.2472  1.1989
 3882TIP3    H133137   3.087   3.190  12.611 -2.6046 -0.1890 -2.3155
 3882TIP3    H233138   3.058   3.338  12.624 -3.2757 -0.3158 -2.3063
 3883TIP3   OH233139   2.154   3.668   6.400  0.5455  1.0367 -0.0768
 3883TIP3    H133140   2.236   3.619   6.397  0.0126  0.0032  1.3803
 3883TIP3    H233141   2.107   3.630   6.475 -1.5470  1.1210 -1.3285
 3884TIP3   OH233142   4.965   5.349  11.193  0.1410 -0.6191 -0.1447
 3884TIP3    H133143   4.918   5.332  11.275  0.0944  0.6001  0.0853
 3884TIP3    H233144   4.900   5.332  11.125  0.0146 -1.0968  0.0920
 3885TIP3   OH233145   3.033   3.791  16.907  0.3130  0.2662  0.4399
 3885TIP3    H133146   3.084   3.816  16.831  1.0010 -0.6109  0.5954
 3885TIP3    H233147   3.016   3.873  16.953 -2.0985  1.1134 -1.8498
 3886TIP3   OH233148   3.274   5.281  16.159 -0.5964  0.2779  0.1783
 3886TIP3    H133149   3.233   5.361  16.126  0.3080  0.1413 -1.3143
 3886TIP3    H233150   3.214   5.250  16.226 -2.1856  0.8884 -0.9195
 3887TIP3   OH233151   2.324   2.217  14.051 -0.3322 -0.0912  0.2689
 3887TIP3    H133152   2.243   2.226  14.000 -1.2050 -0.1657  1.6148
 3887TIP3    H233153   2.330   2.299  14.101  0.0269 -0.3979  0.7280
 3888TIP3   OH233154   2.643   1.249   0.203 -0.4834  0.2027  0.2015
 3888TIP3    H133155   2.659   1.331   0.155  1.3351 -0.5681 -0.5368
 3888TIP3    H233156   2.568   1.210   0.157 -1.0277  1.1943  0.2281
 3889TIP3   OH233157   4.931   4.714  16.243 -0.2287 -0.5376 -0.4358
 3889TIP3    H133158   4.986   4.646  16.281  0.5709  0.2761 -0.1194
 3889TIP3    H233159   4.866   4.732  16.310  1.8175  1.6498  1.0305
 3890TIP3   OH233160   2.092   4.357  14.185 -0.2312 -0.7727 -0.7946
 3890TIP3    H133161   1.997   4.348  14.189 -0.5517  2.1645 -0.3336
 3890TIP3    H233162   2.106   4.439  14.136  1.9265  0.3678  1.6106
 3891TIP3   OH233163   1.263   6.585   4.482 -0.5247  0.2505 -0.0182
 3891TIP3    H133164   1.294   6.499   4.454 -3.3544 -1.3173  1.3851
 3891TIP3    H233165   1.227   6.625   4.403 -0.3505 -0.3729 -0.4169
 3892TIP3   OH233166   2.933   1.064  11.046  0.0180 -0.1388  0.0747
 3892TIP3    H133167   2.954   1.156  11.027  1.5994 -0.4363  0.3187
 3892TIP3    H233168   2.963   1.016  10.969 -2.2709 -0.3045 -0.7643
 3893TIP3   OH233169   2.364   3.204  13.467  0.3607 -0.1109  0.0713
 3893TIP3    H133170   2.366   3.295  13.439  0.6095 -0.7127 -1.9416
 3893TIP3    H233171   2.277   3.194  13.507 -0.0765  0.7453 -0.6327
 3894TIP3   OH233172   0.745   2.187   0.102  0.8801  0.0993  0.0132
 3894TIP3    H133173   0.749   2.183   0.006 -2.2729  1.0772 -0.2073
 3894TIP3    H233174   0.679   2.122   0.126 -0.2976  1.7483  1.3077
 3895TIP3   OH233175   5.877   1.677   0.192 -0.1417 -0.0488  0.1469
 3895TIP3    H133176   5.935   1.726   0.133  0.8386 -0.6205  0.6176
 3895TIP3    H233177   5.912   1.588   0.191  1.3876  0.4477  3.4618
 3896TIP3   OH233178   1.362   4.935   5.789 -0.1421 -0.0216 -0.1092
 3896TIP3    H133179   1.457   4.924   5.787  0.1704  2.2794  0.9069
 3896TIP3    H233180   1.340   4.943   5.881 -0.9602  2.2940 -0.4729
 3897TIP3   OH233181   0.909   6.164  14.619 -0.2648 -0.1425 -0.3104
 3897TIP3    H133182   0.971   6.193  14.551 -1.1028  1.5511 -0.3809
 3897TIP3    H233183   0.934   6.215  14.696 -2.1509  1.2608 -0.5973
 3898TIP3   OH233184   2.419   2.350  13.307 -0.2593  0.0896  0.0200
 3898TIP3    H133185   2.469   2.270  13.322  1.2448  0.7813 -1.1259
 3898TIP3    H233186   2.431   2.400  13.388  1.6539  0.6031 -0.5383
 3899TIP3   OH233187   6.242   3.164  12.037 -0.1023  0.2762 -0.2022
 3899TIP3    H133188   6.183   3.216  11.983  0.5454 -1.8041 -3.0400
 3899TIP3    H233189   6.301   3.121  11.975  1.1453 -1.6851  2.2127
 3900TIP3   OH233190   3.502   3.535  14.056  0.3091  0.2989  0.1315
 3900TIP3    H133191   3.544   3.552  14.140 -0.0978 -0.8899  0.5835
 3900TIP3    H233192   3.569   3.492  14.003 -0.5323 -2.3212  1.1200
 3901TIP3   OH233193   4.578   1.502   6.767 -0.4546 -0.3116 -0.0046
 3901TIP3    H133194   4.611   1.484   6.855  1.8291 -0.3360 -0.8497
 3901TIP3    H233195   4.564   1.416   6.728 -0.7206 -0.2913  0.0404
 3902TIP3   OH233196   6.586   4.723   4.492  0.6499  0.3609  0.5962
 3902TIP3    H133197   6.682   4.724   4.483  0.5706  4.5250 -0.7009
 3902TIP3    H233198   6.555   4.689   4.408  0.9357  2.6884 -0.4809
 3903TIP3   OH233199   4.694   0.601  13.155  0.0192 -0.7514 -0.3039
 3903TIP3    H133200   4.724   0.656  13.083  1.1293 -1.3931 -0.3373
 3903TIP3    H233201   4.772   0.553  13.183 -0.2856 -0.1438  1.6526
 3904TIP3   OH233202   3.653   4.321   1.070  0.0400  0.6166  1.0084
 3904TIP3    H133203   3.711   4.246   1.073  1.6283  1.8037  0.8927
 3904TIP3    H233204   3.574   4.290   1.026  0.7171 -0.9334  0.8863
 3905TIP3   OH233205   4.170   5.750  15.916  0.2315  0.2447 -0.4987
 3905TIP3    H133206   4.256   5.725  15.882 -0.3476 -1.8791 -0.5064
 3905TIP3    H233207   4.152   5.684  15.983 -1.2650  0.8359 -0.3159
 3906TIP3   OH233208   5.984   1.634   3.519  0.0119 -0.0055  0.0808
 3906TIP3    H133209   6.001   1.559   3.576 -0.6990  0.7562  1.3232
 3906TIP3    H233210   5.963   1.596   3.434  4.1688 -1.0915 -0.5672
 3907TIP3   OH233211   3.017   5.486  11.644  0.7030 -0.1995 -0.5261
 3907TIP3    H133212   3.059   5.505  11.728 -0.1297 -0.6372  0.0023
 3907TIP3    H233213   2.998   5.392  11.647 -2.3635  0.3743  0.2352
 3908TIP3   OH233214   6.035   4.268   3.032  0.4294  0.4685  0.4782
 3908TIP3    H133215   5.987   4.190   3.058  0.5392  0.3017  0.1788
 3908TIP3    H233216   5.969   4.325   2.992  0.5579  0.0612 -0.3232
 3909TIP3   OH233217   1.516   1.272  16.252  0.4621 -0.0702 -0.0100
 3909TIP3    H133218   1.563   1.256  16.170  0.1582 -1.5735  0.0914
 3909TIP3    H233219   1.484   1.362  16.244  2.8943  0.7936 -0.2985
 3910TIP3   OH233220   2.970   3.469  15.397  0.3600  0.1751  0.1919
 3910TIP3    H133221   2.951   3.561  15.415 -0.2126  0.0785  0.0894
 3910TIP3    H233222   3.027   3.441  15.468  0.8287  0.7075  0.0327
 3911TIP3   OH233223   1.377   4.369  11.679  0.0210  0.0392  0.3893
 3911TIP3    H133224   1.458   4.380  11.729 -1.0105  1.5602  1.7949
 3911TIP3    H233225   1.347   4.459  11.663 -0.2273 -0.4580 -2.0666
 3912TIP3   OH233226   6.656   6.341  16.664 -0.6100 -0.1943 -0.0695
 3912TIP3    H133227   6.656   6.436  16.674 -0.5701 -0.3469  1.4513
 3912TIP3    H233228   6.714   6.325  16.589 -1.0435  0.9994 -0.6810
 3913TIP3   OH233229   0.233   1.420  10.555  0.6367 -0.7024  0.1097
 3913TIP3    H133230   0.232   1.324  10.553 -0.8667 -0.6872 -0.9261
 3913TIP3    H233231   0.168   1.446  10.490 -0.2973  0.9983  1.6589
 3914TIP3   OH233232   2.986   5.067   5.209 -0.0953  0.1806  1.0275
 3914TIP3    H133233   3.050   5.045   5.277  1.0234  0.9796  0.2427
 3914TIP3    H233234   2.902   5.045   5.248  0.5628  0.3111  2.5563
 3915TIP3   OH233235   2.769   5.961   5.844 -0.6839  0.0967  0.1848
 3915TIP3    H133236   2.695   6.008   5.806 -0.1170  1.9655  1.3558
 3915TIP3    H233237   2.846   5.997   5.800 -0.4817 -2.9849 -2.2299
 3916TIP3   OH233238   4.060   3.383   1.699  0.1941  0.2643  0.2201
 3916TIP3    H133239   4.103   3.466   1.719 -1.6611  1.5620 -0.9950
 3916TIP3    H233240   3.980   3.384   1.751  0.6207 -1.2216  0.9340
 3917TIP3   OH233241   3.205   3.304  13.895 -0.1899 -0.4046  0.1066
 3917TIP3    H133242   3.213   3.367  13.824 -2.0043 -1.7022 -1.3061
 3917TIP3    H233243   3.115   3.314  13.926  0.2135 -0.7129  1.3999
 3918TIP3   OH233244   3.679   1.072  11.996  0.3271  0.4287 -0.6511
 3918TIP3    H133245   3.687   0.984  12.031  0.1053 -0.0862 -1.8586
 3918TIP3    H233246   3.611   1.065  11.928 -0.7477  1.8333  0.2400
 3919TIP3   OH233247   4.772   6.703   2.550  0.0800 -0.3781 -0.1219
 3919TIP3    H133248   4.817   6.640   2.606  0.5419  0.0575  0.0030
 3919TIP3    H233249   4.725   6.760   2.611 -0.0719 -0.4013 -0.2171
 3920TIP3   OH233250   5.846   1.342   5.885 -0.1883  0.0147  0.3132
 3920TIP3    H133251   5.834   1.434   5.862 -0.8866 -0.1051  0.1706
 3920TIP3    H233252   5.808   1.294   5.812 -1.6807 -0.3706  1.3085
 3921TIP3   OH233253   4.228   3.226   5.751  0.1170  0.3340 -0.0852
 3921TIP3    H133254   4.237   3.312   5.708  0.2347 -0.0995 -0.9415
 3921TIP3    H233255   4.240   3.245   5.844 -0.6117  1.3660 -0.1849
 3922TIP3   OH233256   6.685   6.213   2.487 -1.1054 -0.4880 -0.3342
 3922TIP3    H133257   6.755   6.260   2.441 -1.2546  0.6961  0.6248
 3922TIP3    H233258   6.695   6.122   2.460 -0.3662 -0.0228 -1.6773
 3923TIP3   OH233259   6.755   5.340  12.100 -0.8879 -0.2494  0.0034
 3923TIP3    H133260   6.736   5.322  12.193 -0.3800 -1.2957 -0.0816
 3923TIP3    H233261   6.784   5.255  12.066  0.1418  0.4236 -0.8070
 3924TIP3   OH233262   0.752   3.771   1.663  0.4271  0.7458 -0.4698
 3924TIP3    H133263   0.750   3.754   1.569  0.0368  1.5280 -0.6082
 3924TIP3    H233264   0.708   3.855   1.673 -1.2651 -0.2494  0.6290
 3925TIP3   OH233265   6.717   2.123  11.012 -0.3367  0.2600 -0.0930
 3925TIP3    H133266   6.716   2.036  10.973 -1.1736  1.5766 -3.1144
 3925TIP3    H233267   6.807   2.133  11.045  0.0492 -1.3283 -0.6240
 3926TIP3   OH233268   2.781   1.528  15.462 -0.0949 -0.0542  0.0067
 3926TIP3    H133269   2.731   1.607  15.440 -0.0205 -0.0915 -0.3057
 3926TIP3    H233270   2.716   1.459  15.469 -0.0230 -0.2290 -1.0166
 3927TIP3   OH233271   4.259   2.979  14.385 -0.3047  0.2750 -0.1103
 3927TIP3    H133272   4.324   2.961  14.317  0.0488  0.3808  0.1973
 3927TIP3    H233273   4.311   3.000  14.463 -0.7067  0.6626  0.0563
 3928TIP3   OH233274   3.177   0.359   5.468  0.2448  0.1740 -0.3250
 3928TIP3    H133275   3.242   0.289   5.456  0.7086  0.9593 -2.5825
 3928TIP3    H233276   3.099   0.328   5.422 -0.6203 -0.2353  1.3701
 3929TIP3   OH233277   4.875   2.673  12.518  0.5880  0.4334 -0.5415
 3929TIP3    H133278   4.823   2.739  12.474  1.5627  1.7964  0.3003
 3929TIP3    H233279   4.827   2.655  12.599 -0.0913 -0.4917 -1.1413
 3930TIP3   OH233280   1.635   1.929   4.864 -0.9031  0.2901 -0.0214
 3930TIP3    H133281   1.654   1.863   4.932  0.4788  1.2836  0.5580
 3930TIP3    H233282   1.565   1.982   4.902 -0.4830  0.5269  0.4310
 3931TIP3   OH233283   1.336   2.024   3.251 -0.0379 -0.3705 -0.2999
 3931TIP3    H133284   1.249   2.013   3.211 -0.2656  0.0533  0.0808
 3931TIP3    H233285   1.327   2.100   3.308 -0.0878 -1.7759  1.6041
 3932TIP3   OH233286   3.150   5.798   0.324 -0.0262  0.0380 -0.1720
 3932TIP3    H133287   3.218   5.742   0.286  0.2659  1.4956 -1.8273
 3932TIP3    H233288   3.197   5.877   0.353 -0.9137  0.7775 -0.7422
 3933TIP3   OH233289   2.405   5.924   3.558 -0.2408  0.3079 -0.2489
 3933TIP3    H133290   2.423   5.949   3.648  0.5920  1.1033 -0.6264
 3933TIP3    H233291   2.364   6.002   3.520  1.2817  0.7138 -1.1068
 3934TIP3   OH233292   5.076   6.597  16.599  0.5465  0.1569  0.1089
 3934TIP3    H133293   5.014   6.543  16.648  1.1895  0.7071  1.5624
 3934TIP3    H233294   5.162   6.568  16.630  0.9199  1.4252  0.2695
 3935TIP3   OH233295   4.711   3.915  13.247  0.2552  0.1231 -0.1549
 3935TIP3    H133296   4.747   3.836  13.288  2.6971  1.9742  1.4007
 3935TIP3    H233297   4.624   3.925  13.286  0.2944 -1.2901  0.3173
 3936TIP3   OH233298   1.089   6.509   1.965 -0.2263 -0.4718  0.6281
 3936TIP3    H133299   1.044   6.431   1.930 -0.6049 -0.7674  1.7635
 3936TIP3    H233300   1.178   6.478   1.985  0.5407  0.1243 -1.6567
 3937TIP3   OH233301   1.982   6.737   3.462 -0.7186  0.1424 -0.5540
 3937TIP3    H133302   1.981   6.822   3.507  0.4319  0.3324 -0.8788
 3937TIP3    H233303   2.021   6.677   3.525  1.3842  0.5208 -1.4784
 3938TIP3   OH233304   2.399   2.196  11.500 -0.2619 -0.1987  0.6156
 3938TIP3    H133305   2.381   2.154  11.585 -0.2055 -0.5734  0.4429
 3938TIP3    H233306   2.463   2.264  11.521 -1.3355  0.6853  1.1162
 3939TIP3   OH233307   2.885   0.860   5.225 -0.2061  0.6311  0.1003
 3939TIP3    H133308   2.805   0.810   5.210 -0.0876 -0.0497  1.7102
 3939TIP3    H233309   2.857   0.935   5.279 -0.0113  1.1885 -0.5587
 3940TIP3   OH233310   1.626   4.356  11.804  0.2668 -0.0277 -0.4899
 3940TIP3    H133311   1.679   4.421  11.850  0.0822 -1.2649  1.5235
 3940TIP3    H233312   1.680   4.329  11.730  2.7509 -1.7177  1.8518
 3941TIP3   OH233313   5.173   1.876   5.406 -0.0483  0.0297  0.1040
 3941TIP3    H133314   5.133   1.938   5.345 -0.5292  1.1312  1.4917
 3941TIP3    H233315   5.249   1.922   5.441 -0.8298  0.1567  1.6938
 3942TIP3   OH233316   0.560   3.273   3.361 -0.4688 -0.0101 -0.1368
 3942TIP3    H133317   0.655   3.278   3.353 -0.5461 -0.9335 -1.8115
 3942TIP3    H233318   0.530   3.363   3.351  0.2980  0.4352  1.4853
 3943TIP3   OH233319   5.000   3.176  15.791  0.2565  0.5628 -0.2927
 3943TIP3    H133320   5.055   3.113  15.838  1.3320  1.0558 -0.8743
 3943TIP3    H233321   4.927   3.123  15.757 -0.4571  0.1798  1.7770
 3944TIP3   OH233322   5.559   3.312  13.754  0.4058  0.0306 -0.1097
 3944TIP3    H133323   5.536   3.340  13.665 -0.2070 -2.8084 -0.8876
 3944TIP3    H233324   5.521   3.380  13.811 -0.0700  1.3422 -1.9441
 3945TIP3   OH233325   0.558   2.707   2.720  0.4576 -0.2273  0.0247
 3945TIP3    H133326   0.650   2.727   2.704  0.9843 -1.8524  0.9644
 3945TIP3    H233327   0.540   2.742   2.807  0.0430  0.5379 -0.3641
 3946TIP3   OH233328   5.514   5.975   0.157 -0.4042  0.0764  0.0791
 3946TIP3    H133329   5.505   6.030   0.235 -0.4297 -1.0622  0.8928
 3946TIP3    H233330   5.606   5.946   0.159 -0.6454 -0.6998  0.2013
 3947TIP3   OH233331   6.172   4.580  12.761  0.0664  0.7804  0.1619
 3947TIP3    H133332   6.213   4.547  12.841  0.1856 -0.1228 -0.2648
 3947TIP3    H233333   6.226   4.546  12.690 -0.1858  1.3687 -0.3190
 3948TIP3   OH233334   6.774   3.538  12.544  0.0888  0.1347  0.0173
 3948TIP3    H133335   6.716   3.569  12.613 -0.0641  1.4846 -0.6873
 3948TIP3    H233336   6.855   3.585  12.557 -0.2647  1.1572 -1.2925
 3949TIP3   OH233337   0.563   5.491  15.451  0.0429  0.1420  0.2622
 3949TIP3    H133338   0.628   5.557  15.473  2.1111 -1.7296 -0.0826
 3949TIP3    H233339   0.519   5.526  15.373  0.3267  1.6137  0.7505
 3950TIP3   OH233340   6.644   3.369   1.633 -0.2880  0.2299  0.5929
 3950TIP3    H133341   6.553   3.398   1.632 -0.2027  0.5826  1.7622
 3950TIP3    H233342   6.677   3.388   1.545 -1.8392 -1.5515 -0.4172
 3951TIP3   OH233343   4.643   2.434  14.692  0.1340  0.2123  0.2107
 3951TIP3    H133344   4.655   2.524  14.724  1.3932 -0.2276  1.0479
 3951TIP3    H233345   4.562   2.405  14.733  1.9017 -0.4635  3.4420
 3952TIP3   OH233346   5.806   0.743  14.027  0.6726 -0.3885 -0.1447
 3952TIP3    H133347   5.795   0.836  14.045  3.2036 -0.5305  2.5411
 3952TIP3    H233348   5.768   0.730  13.940  1.2109  3.3512 -0.9963
 3953TIP3   OH233349   1.478   6.162   2.572 -0.0865  0.3104  0.5215
 3953TIP3    H133350   1.394   6.198   2.544 -0.4822 -0.9338  0.0471
 3953TIP3    H233351   1.501   6.101   2.502  1.1635  0.5711  0.7039
 3954TIP3   OH233352   3.739   6.642   0.021  0.1871 -0.0288  0.0122
 3954TIP3    H133353   3.789   6.698  -0.038  0.8481  0.5848  1.1421
 3954TIP3    H233354   3.662   6.695   0.044  0.4959  0.1833  0.5798
 3955TIP3   OH233355   4.984   0.705   4.197  0.4900 -0.6162 -0.2485
 3955TIP3    H133356   4.930   0.749   4.262 -0.7339  0.0712 -1.7083
 3955TIP3    H233357   5.063   0.679   4.245 -0.3289 -0.0058  1.4620
 3956TIP3   OH233358   2.757   6.814  14.750  0.3719 -0.3818 -0.3827
 3956TIP3    H133359   2.714   6.882  14.698  2.4452  0.5304 -0.9262
 3956TIP3    H233360   2.700   6.804  14.827  1.5082  4.0776  1.1891
 3957TIP3   OH233361   4.882   0.826   1.620 -0.4075 -0.2155  0.8362
 3957TIP3    H133362   4.893   0.759   1.688  0.1615  0.9280  1.8902
 3957TIP3    H233363   4.842   0.900   1.665 -0.4391  0.4020 -0.1762
 3958TIP3   OH233364   4.097   1.650   3.167  0.0355 -0.1202  0.1854
 3958TIP3    H133365   4.056   1.656   3.080  0.6295 -3.5225 -0.3843
 3958TIP3    H233366   4.024   1.635   3.227 -0.3079  1.5889  0.2213
 3959TIP3   OH233367   0.066   1.318   4.634 -0.2847  0.3405  0.1927
 3959TIP3    H133368   0.144   1.284   4.677 -0.4086 -3.2543 -2.1175
 3959TIP3    H233369  -0.004   1.309   4.699  0.6818  0.9954  1.3378
 3960TIP3   OH233370   2.259   2.162   2.208  0.7696 -0.4323 -0.4431
 3960TIP3    H133371   2.246   2.113   2.127 -0.0383  0.7984 -1.0827
 3960TIP3    H233372   2.320   2.232   2.185 -1.0151  1.1418 -0.5352
 3961TIP3   OH233373   2.741   3.653  10.543  0.1374  0.4848 -0.0546
 3961TIP3    H133374   2.812   3.695  10.494 -1.8118  1.2581 -2.3057
 3961TIP3    H233375   2.687   3.725  10.575 -1.2887 -0.1553 -0.9483
 3962TIP3   OH233376   3.289   1.152  16.159  0.2286  0.3134 -0.7564
 3962TIP3    H133377   3.297   1.126  16.251 -0.5635 -5.0591 -2.0009
 3962TIP3    H233378   3.380   1.154  16.127  0.3390 -0.9558 -0.5638
 3963TIP3   OH233379   6.589   3.832  11.604  0.2777  0.3993 -0.2206
 3963TIP3    H133380   6.558   3.781  11.679  0.9908 -1.4785 -1.1629
 3963TIP3    H233381   6.517   3.827  11.541  0.6887 -0.2050 -0.6534
 3964TIP3   OH233382   6.398   4.211  16.748 -0.3777 -0.2302  0.7987
 3964TIP3    H133383   6.310   4.177  16.768 -0.1731 -0.9287  0.5076
 3964TIP3    H233384   6.408   4.197  16.654  0.4367 -1.0481  1.0105
 3965TIP3   OH233385   4.943   6.738   1.107  0.1328 -0.1387  0.2977
 3965TIP3    H133386   4.996   6.768   1.181 -1.1194  0.5548  0.9266
 3965TIP3    H233387   5.007   6.711   1.041  1.2668 -0.2541  1.4186
 3966TIP3   OH233388   3.669   5.660  16.582 -0.0636 -0.1605  0.0867
 3966TIP3    H133389   3.735   5.654  16.651 -0.9721 -0.4610  0.9412
 3966TIP3    H233390   3.586   5.641  16.626 -0.6842 -0.1439 -1.0462
 3967TIP3   OH233391   2.166   0.101   0.244  0.4521  0.3475  0.0994
 3967TIP3    H133392   2.162   0.140   0.332  0.9860 -0.3208  0.4202
 3967TIP3    H233393   2.232   0.032   0.251 -1.1731 -1.2794 -0.2033
 3968TIP3   OH233394   4.776   1.534   3.529  0.0780 -0.1310 -0.1883
 3968TIP3    H133395   4.807   1.458   3.578  1.8916  0.7625  0.0934
 3968TIP3    H233396   4.723   1.584   3.592  1.1509  0.2415  0.4186
 3969TIP3   OH233397   2.329   5.261  12.529 -0.0732  0.0593  0.0540
 3969TIP3    H133398   2.267   5.309  12.474  0.1807 -1.0645 -1.2530
 3969TIP3    H233399   2.281   5.243  12.609  0.0416  3.0145  0.8194
 3970TIP3   OH233400   3.339   6.570  12.033 -0.1709 -0.3362 -0.0409
 3970TIP3    H133401   3.375   6.648  11.990 -0.9153 -0.0057 -0.0688
 3970TIP3    H233402   3.416   6.525  12.068  0.1918  0.9340  0.8463
 3971TIP3   OH233403   4.445   0.787  16.425  0.4217 -0.5718  0.1842
 3971TIP3    H133404   4.408   0.726  16.361  1.4107 -2.8524  1.7123
 3971TIP3    H233405   4.424   0.874  16.391 -0.5638 -1.7566 -2.3298
 3972TIP3   OH233406   0.588   4.698  16.244 -0.3616 -0.1115  0.6195
 3972TIP3    H133407   0.599   4.638  16.171 -0.3097  1.6489 -0.8795
 3972TIP3    H233408   0.672   4.743  16.252 -0.0984 -0.8941  2.3242
 3973TIP3   OH233409   5.350   5.225   3.409 -0.2841 -0.6813 -0.1687
 3973TIP3    H133410   5.412   5.282   3.455 -1.8775 -0.0840  1.2869
 3973TIP3    H233411   5.400   5.190   3.335  0.7754  2.5187 -1.0372
 3974TIP3   OH233412   2.335   1.810  13.194 -0.3325 -0.1492 -0.2540
 3974TIP3    H133413   2.282   1.887  13.215  0.2861  0.4214 -0.7754
 3974TIP3    H233414   2.377   1.832  13.111  1.2559 -0.3258  0.4910
 3975TIP3   OH233415   3.126   3.440  16.510  0.0686  0.1127 -0.0960
 3975TIP3    H133416   3.141   3.462  16.601 -0.5953 -0.7368  0.2277
 3975TIP3    H233417   3.187   3.496  16.461  1.8133 -0.7882  0.9683
 3976TIP3   OH233418   3.823   2.093  10.837  0.2808 -0.4957 -0.0868
 3976TIP3    H133419   3.793   2.147  10.763  0.0088 -0.8705 -0.2532
 3976TIP3    H233420   3.761   2.020  10.840  0.8771 -1.0051 -0.0996
 3977TIP3   OH233421   2.639   2.619  11.647 -0.4993  0.1467 -0.1308
 3977TIP3    H133422   2.614   2.673  11.722  0.0907  0.3739 -0.0930
 3977TIP3    H233423   2.723   2.654  11.619  0.6675 -1.7702  0.8772
 3978TIP3   OH233424   2.572   5.360  12.631 -0.2308  0.1323 -0.1300
 3978TIP3    H133425   2.494   5.314  12.601 -1.1568  1.3383  0.3656
 3978TIP3    H233426   2.566   5.446  12.589  0.2380  0.6203  0.7898
 3979TIP3   OH233427   1.022   2.620   0.862 -0.8558  0.6157  0.1773
 3979TIP3    H133428   1.022   2.578   0.948 -0.0728 -0.6537 -0.4215
 3979TIP3    H233429   0.932   2.609   0.830 -0.9137  0.2750  0.4511
 3980TIP3   OH233430   3.672   4.015  10.596 -0.3507  0.2925 -0.3075
 3980TIP3    H133431   3.689   4.082  10.662 -1.9568  0.6023 -0.1843
 3980TIP3    H233432   3.613   4.057  10.534 -1.1731 -0.9051 -0.3618
 3981TIP3   OH233433   1.054   4.531  11.713 -0.0700 -0.3401  0.1636
 3981TIP3    H133434   1.019   4.569  11.794  2.2225 -1.6517  1.8035
 3981TIP3    H233435   1.027   4.593  11.645 -1.4849  1.1283  1.9800
 3982TIP3   OH233436   5.820   1.921   6.009 -0.5633 -0.0645 -0.0798
 3982TIP3    H133437   5.828   1.881   5.922  0.5573  0.5115 -0.2592
 3982TIP3    H233438   5.890   1.986   6.011 -1.4687  0.8901  0.7460
 3983TIP3   OH233439   5.775   6.152   0.615  0.9411 -0.0347 -0.1305
 3983TIP3    H133440   5.852   6.182   0.567  1.0280 -0.6998 -0.4120
 3983TIP3    H233441   5.801   6.068   0.652  1.2093  0.9273  1.9140
 3984TIP3   OH233442   1.918   6.638   4.178  0.2308 -0.2865  0.1045
 3984TIP3    H133443   2.008   6.628   4.209  0.7708 -0.2241 -1.4025
 3984TIP3    H233444   1.888   6.720   4.218  1.0544  0.0095  0.1199
 3985TIP3   OH233445   6.491   2.343  15.617  0.2748  0.2980  0.6096
 3985TIP3    H133446   6.416   2.392  15.649 -0.2328 -0.0942  0.0352
 3985TIP3    H233447   6.542   2.322  15.695 -0.0870  0.7671  0.9723
 3986TIP3   OH233448   1.267   2.892   4.854 -0.1818 -0.3330 -0.4679
 3986TIP3    H133449   1.175   2.917   4.849 -0.2728 -0.3776  0.8701
 3986TIP3    H233450   1.315   2.975   4.849 -0.4571  0.1179  3.0826
 3987TIP3   OH233451   1.301   1.679   3.950 -0.3704  0.0478  0.2283
 3987TIP3    H133452   1.292   1.617   4.022 -0.4414  1.1001  1.1309
 3987TIP3    H233453   1.394   1.702   3.950 -0.2801 -0.2920 -0.3184
 3988TIP3   OH233454   2.195   0.253   3.427 -0.6083  0.1266  0.2271
 3988TIP3    H133455   2.171   0.294   3.510  0.6407  0.1680  0.5650
 3988TIP3    H233456   2.269   0.304   3.395  0.2931 -1.2195  0.1418
 3989TIP3   OH233457   6.780   3.075   3.795  0.8505 -0.4608 -0.5003
 3989TIP3    H133458   6.757   2.995   3.842 -1.8056  0.4995 -0.1007
 3989TIP3    H233459   6.814   3.133   3.864 -2.9379  0.9056  0.3099
 3990TIP3   OH233460   5.961   6.011   0.448 -0.5918 -0.6030 -0.2204
 3990TIP3    H133461   5.961   6.050   0.361 -0.8936 -1.2814 -0.5271
 3990TIP3    H233462   5.968   5.916   0.432 -1.3984 -0.7836  0.4666
 3991TIP3   OH233463   3.748   6.762   4.238  0.1510  0.1951 -0.7064
 3991TIP3    H133464   3.731   6.745   4.331 -0.8555  1.0320 -0.7255
 3991TIP3    H233465   3.840   6.790   4.235 -0.4726  2.4549  0.3707
 3992TIP3   OH233466   3.754   3.112   1.404 -0.1883 -0.0596  0.2142
 3992TIP3    H133467   3.696   3.046   1.442 -0.5699 -0.0442 -0.3323
 3992TIP3    H233468   3.704   3.148   1.331 -0.7322  2.1382  1.6161
 3993TIP3   OH233469   3.793   0.042   2.537  0.3670 -0.1790  0.0515
 3993TIP3    H133470   3.801   0.084   2.451  0.5171  0.7593  0.5234
 3993TIP3    H233471   3.883   0.018   2.560  0.5452  1.0183  0.6618
 3994TIP3   OH233472   2.977   1.704   1.095 -0.2766 -0.0467  0.8415
 3994TIP3    H133473   2.941   1.734   1.178 -0.5539 -0.4005  0.8478
 3994TIP3    H233474   2.981   1.609   1.103 -2.3345 -0.2503 -0.3842
 3995TIP3   OH233475   6.086   2.232   1.492  0.4411  0.1463 -0.4696
 3995TIP3    H133476   5.996   2.227   1.459  0.8003  0.9137 -1.6189
 3995TIP3    H233477   6.112   2.141   1.506 -0.3548 -0.1040 -0.6133
 3996TIP3   OH233478   0.274   5.199  14.676 -0.7618 -0.4262  0.3698
 3996TIP3    H133479   0.282   5.285  14.717 -1.5916 -0.4659  0.6198
 3996TIP3    H233480   0.246   5.217  14.586  0.1506 -0.3822  0.0930
 3997TIP3   OH233481   0.744   6.811   0.227  0.4106  0.5826  0.7734
 3997TIP3    H133482   0.730   6.819   0.133  0.2342 -2.0528  0.5326
 3997TIP3    H233483   0.658   6.788   0.262  0.1838  2.8282  1.7869
 3998TIP3   OH233484   0.888   3.107  15.028  0.0502  0.7559 -0.2279
 3998TIP3    H133485   0.842   3.181  15.067  0.9881  3.0754 -3.3792
 3998TIP3    H233486   0.839   3.088  14.948  0.3694 -1.4752  0.0759
 3999TIP3   OH233487   4.646   2.848  16.014 -0.1643 -0.3566  0.2361
 3999TIP3    H133488   4.635   2.943  16.026 -2.3763 -0.4809 -0.4702
 3999TIP3    H233489   4.653   2.814  16.103  2.9941  0.6735  0.4446
 4000TIP3   OH233490   0.544   0.614  11.536 -0.5658  0.2033  0.4070
 4000TIP3    H133491   0.462   0.617  11.584  0.1584  1.2183  1.6087
 4000TIP3    H233492   0.518   0.607  11.444 -2.0168  1.9177  0.6685
 4001TIP3   OH233493   6.454   0.432   0.009  0.1702  0.3004  0.5363
 4001TIP3    H133494   6.481   0.512   0.054  1.3416  0.6952 -0.8161
 4001TIP3    H233495   6.535   0.380   0.002 -0.5762 -1.0338  1.4152
 4002TIP3   OH233496   4.058   4.628  14.304  0.0478  0.1326  0.3705
 4002TIP3    H133497   4.079   4.716  14.336 -0.9436  1.3051 -2.0499
 4002TIP3    H233498   4.133   4.575  14.328  0.4275  1.5082  2.3569
 4003TIP3   OH233499   5.759   6.630  12.805  0.1487 -0.3013  0.6651
 4003TIP3    H133500   5.746   6.654  12.714  1.1621 -0.3304  0.5019
 4003TIP3    H233501   5.764   6.534  12.804 -0.3702 -0.3300  0.8243
 4004TIP3   OH233502   4.864   2.928  10.953  0.2856 -0.5441  0.4540
 4004TIP3    H133503   4.789   2.891  10.905 -0.5105  0.5443  0.8287
 4004TIP3    H233504   4.878   3.013  10.913 -0.4571  0.4327  2.1746
 4005TIP3   OH233505   3.198   1.272  15.061 -0.5005 -0.3389  0.4562
 4005TIP3    H133506   3.273   1.285  15.119 -0.5306  0.0031  0.4235
 4005TIP3    H233507   3.237   1.241  14.979 -0.2566  1.0520  0.0187
 4006TIP3   OH233508   1.463   0.637  12.929 -0.5230 -0.1457 -0.1672
 4006TIP3    H133509   1.450   0.703  12.997  0.8122 -1.3154  1.2578
 4006TIP3    H233510   1.445   0.554  12.973  0.3288 -0.9166 -1.2652
 4007TIP3   OH233511   4.710   0.830  16.949 -0.0874 -0.1981 -0.3774
 4007TIP3    H133512   4.755   0.903  16.908  0.7413 -0.4772  0.0407
 4007TIP3    H233513   4.757   0.752  16.919 -0.8304 -0.5528 -0.6501
 4008TIP3   OH233514   5.591   2.416   0.636  0.1110 -0.3099  0.6041
 4008TIP3    H133515   5.573   2.481   0.568  0.4436 -0.3256  0.4976
 4008TIP3    H233516   5.510   2.366   0.644 -0.8443  1.4425  2.1673
 4009TIP3   OH233517   6.791   1.636  13.397 -0.0138  0.0989 -0.1851
 4009TIP3    H133518   6.814   1.640  13.490  1.5482  2.2871 -0.6310
 4009TIP3    H233519   6.709   1.686  13.390  0.5217  0.9901 -0.1626
 4010TIP3   OH233520   4.856   0.721   2.758 -0.7174  0.3352  0.5965
 4010TIP3    H133521   4.938   0.692   2.719  0.0119 -0.0776  2.3842
 4010TIP3    H233522   4.881   0.758   2.843 -2.3754  0.1369  1.2022
 4011TIP3   OH233523   4.322   6.503  14.725 -0.0932  0.0472 -0.0122
 4011TIP3    H133524   4.264   6.448  14.673  0.0097 -0.6842  0.6271
 4011TIP3    H233525   4.410   6.472  14.704 -0.0851 -0.7347  1.1112
 4012TIP3   OH233526   5.429   0.641  10.924  0.0964  0.2745 -0.0452
 4012TIP3    H133527   5.515   0.602  10.907 -0.4230 -0.5884 -0.6894
 4012TIP3    H233528   5.393   0.588  10.995 -0.7777 -0.6964 -1.1918
 4013TIP3   OH233529   1.750   3.239  15.164  0.1311 -0.1238 -0.5128
 4013TIP3    H133530   1.734   3.298  15.237 -1.5311 -0.9475 -0.1843
 4013TIP3    H233531   1.687   3.168  15.176  2.1816 -2.0493 -0.8038
 4014TIP3   OH233532   0.669   0.802  13.563 -0.0709 -0.2047  0.2002
 4014TIP3    H133533   0.640   0.819  13.473 -0.3835  0.0479  0.3483
 4014TIP3    H233534   0.597   0.834  13.618  0.6511  0.7895  0.5862
 4015TIP3   OH233535   6.469   2.370   4.174 -0.1068 -0.1683 -0.0542
 4015TIP3    H133536   6.401   2.384   4.108  0.7367  0.9187 -0.6940
 4015TIP3    H233537   6.422   2.331   4.248 -1.8251  2.5306  0.3279
 4016TIP3   OH233538   6.595   3.685  12.766  0.8049  0.0276 -0.0210
 4016TIP3    H133539   6.536   3.746  12.722 -0.3446 -1.3192 -0.3747
 4016TIP3    H233540   6.636   3.738  12.835 -0.5670  1.0699  0.0264
 4017TIP3   OH233541   5.065   3.761   3.510  0.1019 -0.6924 -0.3021
 4017TIP3    H133542   5.064   3.817   3.587  0.9670 -1.8757  0.5911
 4017TIP3    H233543   5.102   3.816   3.441  0.2064  0.0850  0.3681
 4018TIP3   OH233544   0.259   0.894  13.617  0.1373 -0.9240 -0.3962
 4018TIP3    H133545   0.250   0.826  13.551  0.6562 -1.3600 -0.0258
 4018TIP3    H233546   0.172   0.902  13.655 -0.0047 -1.1416 -0.6750
 4019TIP3   OH233547   5.559   2.049  13.353  0.3819 -0.1028 -0.3047
 4019TIP3    H133548   5.633   1.988  13.357 -0.5570 -1.3148 -1.0264
 4019TIP3    H233549   5.579   2.115  13.419  1.1586 -1.5161  0.9124
 4020TIP3   OH233550   4.342   3.980  11.072  0.0476 -0.0486  0.0795
 4020TIP3    H133551   4.368   3.962  11.162 -0.5221  0.2438  0.3073
 4020TIP3    H233552   4.407   4.042  11.040 -0.2528  0.5273  0.5751
 4021TIP3   OH233553   0.056   6.235   2.853  0.4394 -0.5126 -0.1035
 4021TIP3    H133554  -0.016   6.282   2.811 -0.1454 -0.3890  1.0099
 4021TIP3    H233555   0.131   6.293   2.844  0.5863 -0.9639 -1.9277
 4022TIP3   OH233556   6.366   3.648  15.378 -0.0963  0.0412  0.6773
 4022TIP3    H133557   6.410   3.586  15.436  0.9184  0.9983  0.9459
 4022TIP3    H233558   6.303   3.693  15.434 -0.2202 -0.1405  0.6820
 4023TIP3   OH233559   6.415   3.911  16.022 -0.1242  0.4082  0.0228
 4023TIP3    H133560   6.401   3.819  16.048  1.8878  0.3767  1.1101
 4023TIP3    H233561   6.380   3.962  16.095  0.8134  0.4355  0.4649
 4024TIP3   OH233562   2.957   2.378   4.872  0.0870 -0.0282 -0.1116
 4024TIP3    H133563   2.959   2.472   4.854  0.3544 -0.1053 -0.4922
 4024TIP3    H233564   2.921   2.339   4.792  1.1829 -0.3702 -0.4411
 4025TIP3   OH233565   0.949   5.507   0.066  0.5074 -0.3653 -0.2156
 4025TIP3    H133566   0.988   5.461  -0.009 -1.7197 -3.5499  0.4716
 4025TIP3    H233567   0.861   5.532   0.036  0.2652 -0.0512  0.7247
 4026TIP3   OH233568   4.522   0.739   2.332  0.0470 -0.1133  0.1479
 4026TIP3    H133569   4.527   0.653   2.374 -0.9121 -0.6737 -0.8655
 4026TIP3    H233570   4.588   0.736   2.263 -2.1275 -1.2287 -1.9675
 4027TIP3   OH233571   4.315   4.122  15.932  0.2763 -0.7046  0.6696
 4027TIP3    H133572   4.245   4.165  15.883 -0.5868 -0.6209  1.9665
 4027TIP3    H233573   4.387   4.184  15.931  0.0358 -0.4281  0.0792
 4028TIP3   OH233574   4.267   5.517   0.506 -0.3512 -0.2316 -0.4554
 4028TIP3    H133575   4.341   5.500   0.565  0.7935 -0.3528 -1.9153
 4028TIP3    H233576   4.283   5.605   0.472 -0.0296 -0.8891 -2.0138
 4029TIP3   OH233577   3.512   2.426   0.614 -0.6147  0.0712 -0.3774
 4029TIP3    H133578   3.452   2.361   0.651 -3.1495  1.4670 -1.8537
 4029TIP3    H233579   3.455   2.488   0.568  2.0498  1.0509 -2.5136
 4030TIP3   OH233580   2.210   2.473   1.495 -0.1590 -0.1635 -0.0536
 4030TIP3    H133581   2.131   2.506   1.453  1.4540  2.0180 -1.5207
 4030TIP3    H233582   2.259   2.431   1.424 -0.0563 -1.5943  0.8592
 4031TIP3   OH233583   3.422   4.746   1.575  0.1420 -0.0684  0.4532
 4031TIP3    H133584   3.433   4.775   1.484 -2.5718 -1.5297 -0.3885
 4031TIP3    H233585   3.505   4.701   1.595  0.5940 -0.1626 -1.4821
 4032TIP3   OH233586   3.563   5.067   0.878 -0.6146  0.4942 -0.6829
 4032TIP3    H133587   3.650   5.037   0.853  0.3980  1.7830  1.1430
 4032TIP3    H233588   3.509   4.989   0.875  0.7774 -0.4723 -1.1317
 4033TIP3   OH233589   4.605   0.981   5.391 -0.7196  0.3454  0.4176
 4033TIP3    H133590   4.542   0.915   5.420  0.8243 -1.4407 -0.1627
 4033TIP3    H233591   4.590   0.988   5.297  0.1921 -0.3682  0.2140
 4034TIP3   OH233592   5.213   3.089   4.042 -0.1345  0.8521 -0.2463
 4034TIP3    H133593   5.297   3.085   4.088 -0.5435 -0.5272  0.3897
 4034TIP3    H233594   5.216   3.173   3.996  1.3402  1.0971  0.2516
 4035TIP3   OH233595   2.564   3.271   0.588 -0.4408  0.8896 -0.1788
 4035TIP3    H133596   2.480   3.258   0.544 -0.1023 -1.1304 -0.2575
 4035TIP3    H233597   2.545   3.336   0.656 -2.1374  0.2529 -0.0152
 4036TIP3   OH233598   0.348   0.132  15.890  0.4836 -0.2305  0.1391
 4036TIP3    H133599   0.286   0.192  15.932  2.0069  0.7542  1.0333
 4036TIP3    H233600   0.294   0.079  15.832 -1.1548  0.8248  0.6536
 4037TIP3   OH233601   3.818   2.129  16.879 -0.1456  0.5026  0.5980
 4037TIP3    H133602   3.746   2.187  16.903 -0.9178 -0.4427  0.6038
 4037TIP3    H233603   3.777   2.042  16.870  1.0836 -0.1561  1.1895
 4038TIP3   OH233604   4.736   6.266  16.274  0.1516 -0.2045  0.4753
 4038TIP3    H133605   4.763   6.282  16.364 -0.3540 -0.5408  0.6899
 4038TIP3    H233606   4.790   6.324  16.221  0.3823  0.0579  1.0065
 4039TIP3   OH233607   5.033   4.937   3.074  0.1577  0.5414 -0.6161
 4039TIP3    H133608   5.032   4.887   3.155  2.5949 -0.3084 -1.0574
 4039TIP3    H233609   5.022   5.028   3.101 -3.1576 -0.0783  0.2912
 4040TIP3   OH233610   5.125   2.068   2.432  0.0922  0.1239  0.0087
 4040TIP3    H133611   5.035   2.077   2.462  0.4729 -0.2345  1.2835
 4040TIP3    H233612   5.138   2.142   2.373 -1.1806 -0.0874 -0.5463
 4041TIP3   OH233613   4.379   4.270   5.441  0.2366 -0.2005 -0.0094
 4041TIP3    H133614   4.320   4.343   5.422 -1.6129 -1.7102 -0.2674
 4041TIP3    H233615   4.400   4.233   5.355 -0.4664 -1.2055  0.2474
 4042TIP3   OH233616   2.269   2.711   5.227  0.6415 -0.3218  0.3548
 4042TIP3    H133617   2.287   2.617   5.238  2.7358  0.0048 -0.1969
 4042TIP3    H233618   2.322   2.754   5.294  3.3286  0.7712 -2.3665
 4043TIP3   OH233619   4.562   0.482  14.516  0.0792 -0.0604  0.5517
 4043TIP3    H133620   4.539   0.475  14.608 -0.0697 -1.6503  0.3970
 4043TIP3    H233621   4.514   0.559  14.485  0.0588  0.4281  1.7594
 4044TIP3   OH233622   0.930   5.987  11.913 -0.6003  0.1449  0.7669
 4044TIP3    H133623   0.984   5.910  11.934 -0.2794  1.0851  3.6498
 4044TIP3    H233624   0.989   6.045  11.865 -0.3862 -0.7171 -0.0396
 4045TIP3   OH233625   1.171   0.779  14.473  0.3106  0.1731  1.0557
 4045TIP3    H133626   1.078   0.790  14.455  0.5025  0.4957  0.2005
 4045TIP3    H233627   1.178   0.694  14.515 -0.2242 -0.4190 -0.0378
 4046TIP3   OH233628   4.779   3.257  16.792  0.1308 -0.0331  0.1610
 4046TIP3    H133629   4.692   3.248  16.753 -0.0124  1.6147  0.0748
 4046TIP3    H233630   4.781   3.346  16.826  2.1878  0.3455 -0.8609
 4047TIP3   OH233631   5.428   2.054  14.910 -0.5475 -0.8678 -0.2126
 4047TIP3    H133632   5.479   2.116  14.963 -0.9462 -0.8205  0.1171
 4047TIP3    H233633   5.494   1.994  14.874 -0.3639 -1.5639  1.2121
 4048TIP3   OH233634   3.792   2.411   0.040  0.0911  0.4961  0.1237
 4048TIP3    H133635   3.738   2.432   0.116  0.2901  3.2740 -0.4602
 4048TIP3    H233636   3.745   2.449  -0.034  1.0185 -0.2287 -0.8508
 4049TIP3   OH233637   4.225   2.703  15.849  0.0815  0.1335  0.0296
 4049TIP3    H133638   4.276   2.746  15.780  2.1467 -0.0468  1.3913
 4049TIP3    H233639   4.247   2.752  15.929 -1.8451 -0.0011  0.6789
 4050TIP3   OH233640   0.728   5.922  12.759 -0.0648 -0.3417  0.4950
 4050TIP3    H133641   0.690   5.849  12.809  2.0865 -1.0396  1.1680
 4050TIP3    H233642   0.758   5.983  12.825  0.7932 -0.2238  0.0024
 4051TIP3   OH233643   3.424   3.623   2.551  0.1375  0.0829  0.0602
 4051TIP3    H133644   3.449   3.532   2.534 -1.9346 -0.5517  0.2638
 4051TIP3    H233645   3.470   3.674   2.484  0.2854 -1.2628 -0.8822
 4052TIP3   OH233646   6.171   6.798   1.240 -0.5038  0.3387  0.8958
 4052TIP3    H133647   6.133   6.866   1.185 -0.1154  0.6948  1.0636
 4052TIP3    H233648   6.234   6.844   1.296  1.1478 -0.4364 -0.2892
 4053TIP3   OH233649   2.283   0.091  12.904  0.1716 -0.3046 -0.6157
 4053TIP3    H133650   2.348   0.161  12.911 -0.5234  0.2931 -0.0387
 4053TIP3    H233651   2.231   0.099  12.984 -0.9127 -0.4748 -1.3009
 4054TIP3   OH233652   0.860   2.588   1.849  0.0831 -0.2415 -0.0127
 4054TIP3    H133653   0.913   2.509   1.852  1.6396  0.8160  2.0865
 4054TIP3    H233654   0.899   2.641   1.779 -0.6316 -1.0946 -1.0609
 4055TIP3   OH233655   4.735   6.080   0.070  0.0560  0.0610 -0.7694
 4055TIP3    H133656   4.727   6.112   0.160  1.1142 -0.4944 -0.4631
 4055TIP3    H233657   4.810   6.127   0.034  0.7104 -0.9720 -0.7859
 4056TIP3   OH233658   6.216   0.500   6.146 -0.0593 -0.0554  0.3506
 4056TIP3    H133659   6.290   0.545   6.107 -0.9379  2.6736  1.6985
 4056TIP3    H233660   6.243   0.409   6.152  2.9154  0.7904  0.2128
 4057TIP3   OH233661   4.159   5.883   0.305 -0.0329 -0.1572  0.1833
 4057TIP3    H133662   4.130   5.869   0.215  0.7897 -2.6328  0.2472
 4057TIP3    H233663   4.080   5.907   0.353 -0.6077  0.4478 -1.0558
 4058TIP3   OH233664   1.760   1.921  16.318  0.5525  0.4589  0.1817
 4058TIP3    H133665   1.846   1.910  16.358  0.6437 -0.0683 -0.1440
 4058TIP3    H233666   1.765   2.005  16.272  0.4639  1.0425  1.2234
 4059TIP3   OH233667   1.405   0.483  11.681 -0.7087 -0.3419  0.6862
 4059TIP3    H133668   1.464   0.421  11.637  0.2940 -0.6446  2.4175
 4059TIP3    H233669   1.408   0.562  11.626 -1.8722 -1.7528 -1.4504
 4060TIP3   OH233670   1.808   6.700   4.946 -0.0916 -0.0114  0.4972
 4060TIP3    H133671   1.866   6.639   4.993 -0.6170 -0.2623  0.8204
 4060TIP3    H233672   1.725   6.695   4.993 -0.8639 -0.8269 -0.9151
 4061TIP3   OH233673   0.652   3.384  16.128  0.2973  0.4557 -0.3111
 4061TIP3    H133674   0.695   3.455  16.080  1.7600  0.3637  0.8287
 4061TIP3    H233675   0.724   3.340  16.174 -0.5616 -1.8846 -1.1491
 4062TIP3   OH233676   4.969   3.420  17.237 -0.8284  0.4799 -0.0345
 4062TIP3    H133677   4.888   3.402  17.189  0.9552 -1.0362 -2.6016
 4062TIP3    H233678   5.024   3.344  17.221  1.8670  2.3566 -0.0505
 4063TIP3   OH233679   3.046   2.556  15.347 -0.7465 -0.6611  0.0883
 4063TIP3    H133680   2.965   2.513  15.376 -1.1015  0.3444  0.6447
 4063TIP3    H233681   3.020   2.647  15.334 -0.1320 -0.7215 -1.5886
 4064TIP3   OH233682   3.449   0.890  17.163  0.1533  0.0662 -0.5919
 4064TIP3    H133683   3.384   0.853  17.223  1.9940 -1.7721  0.3117
 4064TIP3    H233684   3.496   0.815  17.128  1.6503  1.3431 -1.4044
 4065TIP3   OH233685   6.565   3.118  15.003 -0.2709  0.1483  0.5642
 4065TIP3    H133686   6.490   3.058  15.004 -0.5585  0.4979  0.0355
 4065TIP3    H233687   6.610   3.102  15.086 -0.5231 -0.5781  0.5649
 4066TIP3   OH233688   4.778   3.139   0.139 -0.9978  0.1755 -0.7242
 4066TIP3    H133689   4.769   3.044   0.133 -0.2531  0.1948 -2.7175
 4066TIP3    H233690   4.766   3.169   0.049  1.6262  1.7079 -0.6034
 4067TIP3   OH233691   2.628   1.039  15.128 -0.4600  0.2679 -0.3045
 4067TIP3    H133692   2.703   1.076  15.083  0.6368 -0.2640  1.0293
 4067TIP3    H233693   2.575   0.999  15.059  0.5505  0.5330 -1.2397
 4068TIP3   OH233694   4.046   4.968   2.016  0.3201  0.5567  0.6024
 4068TIP3    H133695   4.122   4.992   1.963 -1.5650  3.5739 -0.8958
 4068TIP3    H233696   4.051   5.025   2.092 -0.1071  0.3838  0.7624
 4069TIP3   OH233697   2.988   6.323  10.550 -0.6420  0.1436 -0.0064
 4069TIP3    H133698   3.065   6.341  10.495  2.2118  2.3038  4.4023
 4069TIP3    H233699   2.919   6.377  10.512  0.2317 -1.0397 -3.4731
 4070TIP3   OH233700   0.087   6.680   3.908 -0.4730  0.4724 -0.1235
 4070TIP3    H133701  -0.005   6.655   3.918 -0.0100 -0.4670  2.0968
 4070TIP3    H233702   0.128   6.602   3.869  0.1787 -0.8068  2.9669
 4071TIP3   OH233703   6.608   1.104  14.130 -0.2629 -0.1907 -0.0776
 4071TIP3    H133704   6.514   1.088  14.129 -0.6451  1.9588 -2.1158
 4071TIP3    H233705   6.621   1.171  14.197 -0.0747 -0.9088  0.6212
 4072TIP3   OH233706   3.574   6.381   5.559 -0.5041 -0.0732  0.3939
 4072TIP3    H133707   3.663   6.412   5.541 -0.2001 -1.6585 -0.9015
 4072TIP3    H233708   3.530   6.457   5.598  0.7564  1.4258 -1.0224
 4073TIP3   OH233709   1.680   0.961  15.339  0.5194  0.4003 -0.0944
 4073TIP3    H133710   1.736   0.945  15.415  1.5895  0.5594 -0.8416
 4073TIP3    H233711   1.727   0.919  15.266 -0.9483 -0.5581 -0.4994
 4074TIP3   OH233712   0.019   3.824  17.068  0.2955 -0.4328 -0.0975
 4074TIP3    H133713  -0.028   3.845  16.987  0.8744 -0.8228 -0.5407
 4074TIP3    H233714  -0.016   3.885  17.132  0.6019  0.6163 -0.9100
 4075TIP3   OH233715   3.991   0.712  13.828  0.1463 -0.6939 -0.1911
 4075TIP3    H133716   3.910   0.684  13.786  1.2127 -0.4575 -2.4805
 4075TIP3    H233717   4.050   0.637  13.818  1.4135  0.4845 -1.9692
 4076TIP3   OH233718   6.808   1.262   0.188 -0.8019 -0.5207 -0.1189
 4076TIP3    H133719   6.798   1.319   0.264  1.5679 -0.3970  0.1271
 4076TIP3    H233720   6.829   1.321   0.116  2.0321 -1.0563  0.2142
 4077TIP3   OH233721   5.372   5.023  14.026 -0.4077  0.1828  0.1249
 4077TIP3    H133722   5.282   4.991  14.038 -0.3517  0.4864  1.4912
 4077TIP3    H233723   5.411   5.018  14.113  1.6324 -2.0372 -0.8711
 4078TIP3   OH233724   6.712   1.497  15.884 -0.2238 -0.2992  0.4048
 4078TIP3    H133725   6.761   1.546  15.950 -1.9618 -0.3573  1.7804
 4078TIP3    H233726   6.671   1.565  15.830  1.5609 -0.2510 -0.9108
 4079TIP3   OH233727   3.510   3.272  14.705  0.2591 -0.0202 -0.2277
 4079TIP3    H133728   3.496   3.179  14.687  0.5037  0.3416 -2.3286
 4079TIP3    H233729   3.423   3.305  14.728 -0.1599 -0.3880 -1.2603
 4080TIP3   OH233730   3.632   1.807   4.869  0.3643 -0.2832 -0.1621
 4080TIP3    H133731   3.562   1.753   4.833  1.1579 -1.1704 -0.4292
 4080TIP3    H233732   3.606   1.824   4.959 -0.8699  0.5972 -0.6694
 4081TIP3   OH233733   2.872   3.184  10.844 -0.0039 -0.0336 -0.1462
 4081TIP3    H133734   2.855   3.105  10.896  0.7252 -0.3690 -0.4080
 4081TIP3    H233735   2.852   3.158  10.754 -1.0335  0.4747 -0.0620
 4082TIP3   OH233736   4.907   1.738   0.318  0.3086  0.3455 -0.3335
 4082TIP3    H133737   4.883   1.691   0.398  0.9452  1.7195  0.6947
 4082TIP3    H233738   4.892   1.675   0.247 -0.8504 -0.6858  0.8034
 4083TIP3   OH233739   5.276   2.228   4.926 -0.6099 -0.6853  0.4691
 4083TIP3    H133740   5.355   2.226   4.980 -0.4789  0.7343  0.3295
 4083TIP3    H233741   5.203   2.222   4.989 -0.4248 -0.9346  0.6620
 4084TIP3   OH233742   1.198   4.836   3.409  0.2134 -0.3751  0.2696
 4084TIP3    H133743   1.107   4.865   3.422 -0.4754 -2.2659 -0.1891
 4084TIP3    H233744   1.224   4.802   3.494  0.5946  0.4452  0.4800
 4085TIP3   OH233745   5.788   4.972  11.055  0.6903 -0.0977  0.0686
 4085TIP3    H133746   5.851   4.970  11.127  0.0182 -0.9740  0.6458
 4085TIP3    H233747   5.794   4.885  11.015 -1.9258 -1.1198  1.7090
 4086TIP3   OH233748   3.598   0.134   4.051 -0.1458  0.8352  0.6544
 4086TIP3    H133749   3.592   0.043   4.083  3.7520  0.6543  1.0536
 4086TIP3    H233750   3.580   0.187   4.129  1.8994  0.3861  1.4541
 4087TIP3   OH233751   3.921   1.102  14.599  0.2468 -0.0933 -0.1669
 4087TIP3    H133752   3.970   1.020  14.591 -0.1336 -0.1908 -1.5642
 4087TIP3    H233753   3.989   1.168  14.618  1.0076 -0.1537 -2.5076
 4088TIP3   OH233754   5.032   3.339  11.793  0.3042 -0.7417  0.2640
 4088TIP3    H133755   5.080   3.421  11.807  0.9257 -1.2689  1.3096
 4088TIP3    H233756   5.086   3.289  11.733  0.3962 -0.7712  0.3699
 4089TIP3   OH233757   1.879   1.475   1.109  0.3026 -0.8270 -0.1540
 4089TIP3    H133758   1.933   1.407   1.067  1.0769 -0.0408 -0.4324
 4089TIP3    H233759   1.874   1.545   1.045 -0.9101 -0.8088 -0.0553
 4090TIP3   OH233760   6.414   3.896  17.289  0.2046 -0.3825  0.1087
 4090TIP3    H133761   6.439   3.805  17.272  2.6135  0.6311 -2.0844
 4090TIP3    H233762   6.325   3.902  17.256  0.5638 -1.5589 -1.1287
 4091TIP3   OH233763   0.490   5.641  11.034 -0.3924 -0.9418 -0.1460
 4091TIP3    H133764   0.539   5.610  10.958  1.0127 -0.3590  0.5026
 4091TIP3    H233765   0.400   5.648  11.004  0.2195 -0.3416 -1.8556
 4092TIP3   OH233766   2.566   4.611   4.492 -0.0590  0.1186  0.3564
 4092TIP3    H133767   2.569   4.578   4.402 -2.3612 -0.5536  0.5068
 4092TIP3    H233768   2.614   4.545   4.543 -0.0375 -0.2654 -0.1581
 4093TIP3   OH233769   1.103   2.841   2.735 -0.3548  0.0741 -0.3225
 4093TIP3    H133770   1.076   2.897   2.808  0.1482  1.8169 -1.4436
 4093TIP3    H233771   1.145   2.900   2.674  2.2951 -1.9215 -0.5111
 4094TIP3   OH233772   0.588   2.532   3.905 -0.6600 -0.6887  0.2360
 4094TIP3    H133773   0.657   2.542   3.971 -0.0610 -0.6333 -0.4034
 4094TIP3    H233774   0.556   2.620   3.889  0.1255 -0.5411 -0.5474
 4095TIP3   OH233775   0.896   6.727   2.504 -0.0596 -0.0540 -0.2484
 4095TIP3    H133776   0.857   6.687   2.582 -0.0813 -1.1856 -0.8257
 4095TIP3    H233777   0.822   6.768   2.459 -0.7380 -2.6373 -1.6069
 4096TIP3   OH233778   5.105   3.999   2.453 -0.0117 -0.1811  0.1536
 4096TIP3    H133779   5.144   3.912   2.463 -1.2950 -0.7943 -0.0312
 4096TIP3    H233780   5.039   4.003   2.522 -0.2604  0.4832 -0.1195
 4097TIP3   OH233781   6.006   0.024   3.066 -0.3084  0.1396  0.5325
 4097TIP3    H133782   6.008  -0.036   2.991 -0.7485  0.6232  0.1297
 4097TIP3    H233783   6.022   0.110   3.028 -2.2184  0.6141  0.7624
 4098TIP3   OH233784   2.822   5.695   2.415  0.2271  0.2660 -0.1352
 4098TIP3    H133785   2.911   5.696   2.450 -0.3286  0.0239  1.3065
 4098TIP3    H233786   2.834   5.686   2.320  1.7523  1.3526 -0.0608
 4099TIP3   OH233787   3.206   4.956   1.047  0.2289  0.6359  0.4571
 4099TIP3    H133788   3.266   4.882   1.035  0.5582  0.9755 -0.0136
 4099TIP3    H233789   3.252   5.030   1.007 -0.7403  0.7859 -0.3654
 4100TIP3   OH233790   2.373   4.284  11.571 -0.4839 -0.1806 -0.1243
 4100TIP3    H133791   2.362   4.223  11.498 -2.4722 -1.0973  0.9073
 4100TIP3    H233792   2.352   4.370  11.533  0.3087 -0.3849 -1.0637
 4101TIP3   OH233793   4.850   2.811  13.013  0.1567 -0.0148 -0.6126
 4101TIP3    H133794   4.792   2.799  13.089 -1.4530 -1.3793 -1.9976
 4101TIP3    H233795   4.884   2.900  13.023 -1.8346  0.6628  0.4967
 4102TIP3   OH233796   1.130   6.124  16.111 -0.1724  0.5421  0.2606
 4102TIP3    H133797   1.123   6.210  16.069 -0.1440  0.5924  0.3559
 4102TIP3    H233798   1.213   6.089  16.079  0.0546  0.7587  0.5946
 4103TIP3   OH233799   5.072   2.544   6.350  0.1355 -0.5624 -0.4850
 4103TIP3    H133800   5.096   2.612   6.412  1.2156 -0.2686 -1.2291
 4103TIP3    H233801   5.149   2.532   6.296 -0.1312 -2.1971 -0.5307
 4104TIP3   OH233802   1.009   0.115   0.507  0.2774 -0.1650 -0.1821
 4104TIP3    H133803   0.979   0.118   0.597  1.5059 -2.9561  0.3833
 4104TIP3    H233804   0.970   0.035   0.471  1.7184 -0.3703 -1.3668
 4105TIP3   OH233805   0.971   1.652   4.590  0.5858 -0.5067  0.2644
 4105TIP3    H133806   0.992   1.634   4.682 -0.4335 -1.3622  0.3421
 4105TIP3    H233807   0.877   1.672   4.591  0.7107  0.1243 -0.5025
 4106TIP3   OH233808   4.118   5.290  11.030 -0.5686 -0.5943  0.3402
 4106TIP3    H133809   4.191   5.234  11.059 -1.1197 -0.6405  1.6470
 4106TIP3    H233810   4.040   5.249  11.068 -0.9507  1.2151  1.5195
 4107TIP3   OH233811   4.009   0.613   4.179 -0.7104  0.7008  0.2017
 4107TIP3    H133812   4.035   0.558   4.106  1.4453  2.8005 -0.7148
 4107TIP3    H233813   4.008   0.555   4.255 -0.2428 -0.9411 -1.0352
 4108TIP3   OH233814   4.310   3.930  15.386  0.1031 -0.4580 -0.1979
 4108TIP3    H133815   4.227   3.885  15.371 -0.6163  1.1121 -1.0300
 4108TIP3    H233816   4.289   3.999  15.449  0.8578 -0.3121 -0.0986
 4109TIP3   OH233817   2.764   2.171  14.614  0.0390 -0.3256  0.3792
 4109TIP3    H133818   2.691   2.217  14.573  1.5517  0.5516 -1.4058
 4109TIP3    H233819   2.803   2.236  14.673  0.3296 -0.2939  0.1517
 4110TIP3   OH233820   5.397   1.106   5.731 -0.4585 -0.3636 -0.4007
 4110TIP3    H133821   5.398   1.012   5.715 -1.6764 -0.4758  0.1590
 4110TIP3    H233822   5.343   1.142   5.661 -0.2532 -0.1112 -0.4298
 4111TIP3   OH233823   0.258   5.577  13.139 -0.1595 -0.0884 -0.2962
 4111TIP3    H133824   0.344   5.578  13.181 -1.5698 -1.9949  2.8959
 4111TIP3    H233825   0.260   5.649  13.076  3.1314  1.0266  1.0068
 4112TIP3   OH233826   5.843   1.295   4.274  0.5877 -0.0459 -0.2349
 4112TIP3    H133827   5.824   1.286   4.367  0.1771  2.7151 -0.0243
 4112TIP3    H233828   5.762   1.268   4.230  0.3353 -0.0651  0.2428
 4113TIP3   OH233829   5.464   0.419  12.774 -0.6460 -0.2962 -0.3883
 4113TIP3    H133830   5.419   0.450  12.852  2.0782 -0.0225  1.1427
 4113TIP3    H233831   5.467   0.495  12.716  0.9320  0.7139  0.9737
 4114TIP3   OH233832   5.412   0.894   3.791  0.1204  0.9596 -0.3431
 4114TIP3    H133833   5.330   0.866   3.832  1.3925 -0.2641  1.4856
 4114TIP3    H233834   5.473   0.903   3.865  2.5702 -1.5788 -1.9613
 4115TIP3   OH233835   3.190   2.042  15.859 -0.0702 -0.1291 -0.0429
 4115TIP3    H133836   3.097   2.062  15.858  0.2803  1.7913 -3.4103
 4115TIP3    H233837   3.230   2.110  15.804  3.0592 -2.0191 -0.2601
 4116TIP3   OH233838   5.411   3.635  11.915 -0.7511 -0.2825 -0.2099
 4116TIP3    H133839   5.387   3.717  11.871  1.3493 -0.8135 -2.4368
 4116TIP3    H233840   5.496   3.612  11.879  1.0238 -0.8781  4.0702
 4117TIP3   OH233841   0.115   1.602   4.956 -0.0307  0.4672 -0.0819
 4117TIP3    H133842   0.035   1.588   4.905 -1.1255  2.1756  1.1039
 4117TIP3    H233843   0.178   1.637   4.892 -1.3447  2.4792 -0.3285
 4118TIP3   OH233844   2.011   4.587  14.082  0.4015 -0.3075  0.6833
 4118TIP3    H133845   2.039   4.653  14.019  3.2643 -1.7262  0.3672
 4118TIP3    H233846   1.944   4.630  14.134  0.9372  2.2545 -0.6658
 4119TIP3   OH233847   6.494   0.055   2.922  0.2383 -0.3060  0.3850
 4119TIP3    H133848   6.504   0.076   3.015 -0.5472 -0.7488  0.5735
 4119TIP3    H233849   6.554  -0.018   2.907  1.2439  0.5283  0.2637
 4120TIP3   OH233850   6.813   4.774   0.194 -0.4414 -0.2602 -0.3515
 4120TIP3    H133851   6.806   4.838   0.265  0.8858 -0.5735  0.0796
 4120TIP3    H233852   6.723   4.759   0.166 -0.7978  1.5510 -0.2465
 4121TIP3   OH233853   0.471   0.973  12.929  0.4530  0.2315  0.0988
 4121TIP3    H133854   0.563   0.947  12.930  0.5565  0.6024  0.4647
 4121TIP3    H233855   0.466   1.042  12.863  0.4116  0.1357 -0.0001
 4122TIP3   OH233856   1.628   0.915  11.420  0.2793  0.0103 -0.0539
 4122TIP3    H133857   1.654   0.999  11.456  0.1676  0.2695 -0.5632
 4122TIP3    H233858   1.709   0.878  11.384  0.0430  0.6171 -1.2425
 4123TIP3   OH233859   6.393   1.497  15.391  0.0612 -0.1587 -0.4183
 4123TIP3    H133860   6.316   1.502  15.334 -0.6978  2.2608  0.7553
 4123TIP3    H233861   6.441   1.578  15.374  0.5949 -0.1047  1.3042
 4124TIP3   OH233862   2.342   2.747   3.575  0.3063 -0.1420 -0.1741
 4124TIP3    H133863   2.392   2.729   3.655  0.9646 -0.7948 -0.7337
 4124TIP3    H233864   2.252   2.725   3.598  0.1062  1.8221  1.1016
 4125TIP3   OH233865   2.494   1.196  14.918 -0.0371 -0.0825 -0.0912
 4125TIP3    H133866   2.529   1.114  14.885  1.4045 -0.3579  2.0233
 4125TIP3    H233867   2.556   1.263  14.887  0.8964 -0.2543  1.3610
 4126TIP3   OH233868   5.563   5.062  16.157 -0.2808 -0.1780  0.1749
 4126TIP3    H133869   5.556   4.967  16.162  0.5866 -0.2296  0.5479
 4126TIP3    H233870   5.651   5.081  16.190 -1.3092  0.9528  2.3867
 4127TIP3   OH233871   0.777   3.407  11.409 -0.3106  0.1501  0.5974
 4127TIP3    H133872   0.836   3.469  11.365 -0.7981 -0.3815 -0.8016
 4127TIP3    H233873   0.695   3.413  11.360 -1.2734  0.4797  2.2055
 4128TIP3   OH233874   2.941   0.252   5.548  0.0564 -0.1718 -0.7390
 4128TIP3    H133875   2.871   0.215   5.601  1.8890 -0.0207  1.9058
 4128TIP3    H233876   2.936   0.205   5.465 -1.1823 -2.3760  0.5321
 4129TIP3   OH233877   5.531   1.036   6.698 -0.5197 -0.7184 -0.7974
 4129TIP3    H133878   5.486   1.111   6.659 -0.9884 -1.1419 -1.0770
 4129TIP3    H233879   5.493   1.029   6.786  0.9057  0.5539 -0.0541
 4130TIP3   OH233880   3.388   4.221   2.620 -0.6348  0.5102  0.1790
 4130TIP3    H133881   3.476   4.185   2.632 -1.0568 -1.1219 -1.4306
 4130TIP3    H233882   3.364   4.255   2.706  1.8686  1.6684  0.4369
 4131TIP3   OH233883   4.070   6.227  15.972 -0.0462  0.2635 -0.5097
 4131TIP3    H133884   4.115   6.169  15.912  0.7136  0.7610 -0.4289
 4131TIP3    H233885   4.032   6.295  15.916 -2.4192 -1.2510 -0.7802
 4132TIP3   OH233886   5.219   3.962   5.756  0.4394 -0.4276  0.2192
 4132TIP3    H133887   5.314   3.951   5.751  0.5527 -0.1657  1.5786
 4132TIP3    H233888   5.205   4.056   5.748  0.2224 -0.5340 -0.7844
 4133TIP3   OH233889   4.619   4.970   3.410  0.2718  0.1800 -0.1736
 4133TIP3    H133890   4.581   4.994   3.325 -1.4017 -0.1647  0.4476
 4133TIP3    H233891   4.665   5.049   3.439  0.6225  0.3892 -1.2623
 4134TIP3   OH233892   3.345   3.732  16.983  0.1660 -0.0793 -0.1523
 4134TIP3    H133893   3.407   3.708  16.913 -1.0840 -0.1870 -1.2488
 4134TIP3    H233894   3.260   3.733  16.939 -0.4483  1.2946  1.0497
 4135TIP3   OH233895   5.744   3.834   1.943  0.6740 -0.0526 -0.0364
 4135TIP3    H133896   5.737   3.765   2.010  1.3560 -0.0979 -0.0118
 4135TIP3    H233897   5.658   3.877   1.944 -1.1007 -3.2859 -2.6379
 4136TIP3   OH233898   6.533   2.797   3.560 -0.5363 -0.1557 -0.1006
 4136TIP3    H133899   6.526   2.765   3.650 -1.7302  0.1216 -0.0841
 4136TIP3    H233900   6.550   2.719   3.507 -2.7422 -0.7582  0.0172
 4137TIP3   OH233901   0.424   6.420  16.607  0.2598  0.0229  0.8704
 4137TIP3    H133902   0.440   6.512  16.630 -1.2628  0.2269  1.1102
 4137TIP3    H233903   0.343   6.421  16.556  1.3114 -0.9602 -0.8676
 4138TIP3   OH233904   5.960   3.662   5.508  0.2972  0.5027  0.1299
 4138TIP3    H133905   5.983   3.727   5.442  0.9159 -0.0021 -0.1578
 4138TIP3    H233906   5.880   3.621   5.476  0.6387  0.2051 -0.3511
 4139TIP3   OH233907   2.950   2.378   0.057 -0.0201  0.3703 -0.2776
 4139TIP3    H133908   3.013   2.378   0.129  0.3919  1.5827 -0.6162
 4139TIP3    H233909   2.912   2.466   0.059 -0.6492  0.1172 -0.9790
 4140TIP3   OH233910   1.565   6.437  17.024  0.3516  0.2564  0.0264
 4140TIP3    H133911   1.609   6.382  16.959 -0.8823 -0.1400 -0.5036
 4140TIP3    H233912   1.633   6.463  17.085  0.8456 -2.3527  0.6093
 4141TIP3   OH233913   4.595   4.766  11.785 -0.2088 -0.1608 -0.0138
 4141TIP3    H133914   4.527   4.803  11.728 -0.1084  0.4890  0.2938
 4141TIP3    H233915   4.604   4.828  11.857  1.7928  0.5400 -0.8352
 4142TIP3   OH233916   0.233   0.113  13.321 -0.2380  0.5184 -0.0141
 4142TIP3    H133917   0.165   0.121  13.388  0.6778  0.5492  0.9279
 4142TIP3    H233918   0.313   0.141  13.365  0.8287 -1.8840 -0.3673
 4143TIP3   OH233919   6.756   2.254  16.486  0.6208 -0.2425 -0.0871
 4143TIP3    H133920   6.797   2.188  16.430  0.5307  0.3855 -0.9055
 4143TIP3    H233921   6.816   2.329  16.483  0.1614  0.1324 -0.0963
 4144TIP3   OH233922   6.085   4.426   3.974 -0.0481  0.2520  0.0218
 4144TIP3    H133923   6.105   4.481   3.899  3.4730 -0.6055  0.2063
 4144TIP3    H233924   6.037   4.482   4.034  1.5799  2.4852 -0.7150
 4145TIP3   OH233925   4.138   3.013  15.682 -0.7469 -0.3200 -0.0112
 4145TIP3    H133926   4.075   3.072  15.724  1.0334  1.7326 -0.1575
 4145TIP3    H233927   4.110   3.009  15.591 -0.9344  0.2314  0.0218
 4146TIP3   OH233928   2.172   6.595  14.337 -0.1576  0.2073 -0.0912
 4146TIP3    H133929   2.208   6.609  14.249 -0.2327  0.7062 -0.0447
 4146TIP3    H233930   2.093   6.544  14.323  0.4321 -0.6886 -0.2200
 4147TIP3   OH233931   6.632   0.011   3.361 -0.2987 -0.4423  0.5121
 4147TIP3    H133932   6.708   0.054   3.399  1.6944 -1.5731 -2.0222
 4147TIP3    H233933   6.608   0.067   3.287 -1.8941 -0.1416  1.2430
 4148TIP3   OH233934   0.641   4.865  15.421  0.0973  0.3871 -0.7057
 4148TIP3    H133935   0.626   4.771  15.429 -1.3507  0.4577 -2.3696
 4148TIP3    H233936   0.647   4.896  15.512 -1.1277 -1.0415 -0.1129
 4149TIP3   OH233937   2.372   3.704  14.714  0.5000  0.2309 -0.6024
 4149TIP3    H133938   2.369   3.673  14.805  1.1965 -0.4587 -0.8097
 4149TIP3    H233939   2.296   3.663  14.672  0.8584 -0.4155 -0.6267
 4150TIP3   OH233940   5.938   0.051  12.035 -0.4239  0.5148 -0.4598
 4150TIP3    H133941   5.952   0.020  12.125  0.1134 -1.6255 -1.2501
 4150TIP3    H233942   5.923  -0.029  11.984  0.3769  1.6156 -2.4781
 4151TIP3   OH233943   5.394   4.270  14.482 -0.0689 -0.1217  0.1466
 4151TIP3    H133944   5.406   4.176  14.466  0.0074  0.0084 -0.5919
 4151TIP3    H233945   5.438   4.286  14.565 -0.2195 -0.7734  0.3528
 4152TIP3   OH233946   6.584   0.980   2.394  0.1052  0.7335 -0.4023
 4152TIP3    H133947   6.534   0.900   2.406 -0.3396  1.0152 -0.3507
 4152TIP3    H233948   6.658   0.973   2.454  0.1496  0.2970 -0.5080
 4153TIP3   OH233949   2.394   6.795  15.415  0.5618 -0.6689 -0.2248
 4153TIP3    H133950   2.446   6.875  15.413 -0.1784 -0.1832 -0.8027
 4153TIP3    H233951   2.305   6.824  15.394  0.5062 -1.8033 -1.6400
 4154TIP3   OH233952   4.438   6.706  12.045 -0.0259  0.7370 -0.7095
 4154TIP3    H133953   4.416   6.614  12.028 -0.3488  0.1415  2.5657
 4154TIP3    H233954   4.386   6.755  11.982 -3.1168 -1.1525  0.2484
 4155TIP3   OH233955   3.860   3.156   3.135  0.5550  0.2661  0.1541
 4155TIP3    H133956   3.783   3.139   3.188  0.2348  1.4103  0.0648
 4155TIP3    H233957   3.838   3.119   3.049 -0.8948  2.7150 -0.5876
 4156TIP3   OH233958   6.107   6.243   3.064 -0.2409  0.2576 -0.3183
 4156TIP3    H133959   6.058   6.295   3.001 -0.4632 -0.4384 -0.7156
 4156TIP3    H233960   6.042   6.187   3.106 -0.0273  0.4135  0.2375
 4157TIP3   OH233961   4.221   0.493  14.422 -0.3534 -0.4831  0.4537
 4157TIP3    H133962   4.169   0.481  14.501 -0.3487 -1.7172  0.2752
 4157TIP3    H233963   4.275   0.571  14.440 -2.5097  1.0524  0.4770
 4158TIP3   OH233964   0.043   6.434   1.233  0.0166  0.1650 -0.3507
 4158TIP3    H133965  -0.048   6.423   1.258 -0.2286  0.8661 -0.9560
 4158TIP3    H233966   0.046   6.415   1.140  0.4837  0.1889 -0.3460
 4159TIP3   OH233967   0.566   2.239  11.942  0.3689 -0.1142  0.3414
 4159TIP3    H133968   0.591   2.179  12.012  0.4882 -2.4287 -1.6230
 4159TIP3    H233969   0.508   2.188  11.886  1.6071  1.1002 -2.1593
 4160TIP3   OH233970   6.347   6.207  13.784  0.1507  0.0757 -0.4462
 4160TIP3    H133971   6.311   6.155  13.712  0.5200 -0.9946  0.1347
 4160TIP3    H233972   6.437   6.225  13.757  1.3146 -3.0337  1.1438
 4161TIP3   OH233973   4.087   6.110   5.692 -0.1064  0.2476 -0.1848
 4161TIP3    H133974   4.000   6.123   5.653  1.5725 -0.8079 -4.5079
 4161TIP3    H233975   4.147   6.153   5.631  2.7685 -2.3264  0.7279
 4162TIP3   OH233976   5.878   2.015   2.888  0.6378  0.1120 -0.3578
 4162TIP3    H133977   5.797   1.991   2.933  1.0819  0.1210  0.4678
 4162TIP3    H233978   5.850   2.064   2.811 -0.1796 -0.7539 -0.6186
 4163TIP3   OH233979   4.622   4.807  12.513  0.0307  0.1171  0.5111
 4163TIP3    H133980   4.668   4.727  12.487  0.3892 -0.1790  1.9929
 4163TIP3    H233981   4.679   4.878  12.484 -0.7087 -0.1148 -1.6097
 4164TIP3   OH233982   3.463   6.561   1.020  0.6080  0.6987 -0.2953
 4164TIP3    H133983   3.503   6.475   1.026  1.4047  0.9867 -1.3062
 4164TIP3    H233984   3.374   6.549   1.053  1.2889 -0.1078  1.2786
 4165TIP3   OH233985   6.337   6.533   3.545 -0.3544 -0.5256 -0.9358
 4165TIP3    H133986   6.348   6.626   3.563  0.6063 -0.8993  0.4469
 4165TIP3    H233987   6.305   6.530   3.455  0.3432  1.0931 -1.2517
 4166TIP3   OH233988   0.789   4.062   1.731 -0.2391 -0.6264  0.8775
 4166TIP3    H133989   0.735   4.105   1.797  0.8926  2.4866 -0.1449
 4166TIP3    H233990   0.866   4.118   1.723  1.4872 -3.0791 -0.2497
 4167TIP3   OH233991   5.575   2.930   4.662  0.4115 -0.1726 -0.3491
 4167TIP3    H133992   5.570   2.867   4.590 -3.1352  0.3695 -0.6611
 4167TIP3    H233993   5.505   2.992   4.644 -0.3265  0.1767  3.3970
 4168TIP3   OH233994   4.897   6.235   5.350 -0.0203  0.3577  0.2955
 4168TIP3    H133995   4.889   6.282   5.267 -0.5450  0.3204  0.3289
 4168TIP3    H233996   4.912   6.303   5.415 -3.3370  0.7143  0.7337
 4169TIP3   OH233997   1.674   5.632  14.977  0.3764 -0.5190 -0.0390
 4169TIP3    H133998   1.720   5.549  14.966  1.1436 -0.2721  1.2845
 4169TIP3    H233999   1.595   5.610  15.026  0.0354 -0.6273 -0.6251
 4170TIP3   OH234000   4.387   0.457   5.121 -0.1892 -0.1353 -0.0387
 4170TIP3    H134001   4.371   0.417   5.206 -0.2339 -1.6791 -0.7658
 4170TIP3    H234002   4.481   0.478   5.121 -0.5908  1.8178  1.1933
 4171TIP3   OH234003   2.168   0.199  12.293 -0.8782 -0.3896  0.1279
 4171TIP3    H134004   2.102   0.268  12.297 -0.5900 -0.1401  0.8384
 4171TIP3    H234005   2.126   0.127  12.247 -0.8035  0.6702 -1.6491
 4172TIP3   OH234006   1.034   0.049  11.976  0.6605  0.2498 -0.0538
 4172TIP3    H134007   0.985  -0.028  11.949  1.9007  0.1604 -2.2018
 4172TIP3    H234008   0.968   0.112  12.003 -0.5698 -0.2175 -1.9096
 4173TIP3   OH234009   3.292   5.352  11.456  0.2266 -0.6395 -0.5022
 4173TIP3    H134010   3.376   5.386  11.425 -0.2334 -1.3201 -2.5928
 4173TIP3    H234011   3.285   5.383  11.547  1.6258  1.4139 -1.0680
 4174TIP3   OH234012   2.314   5.138   3.083  0.1908  0.5330  0.4012
 4174TIP3    H134013   2.353   5.069   3.136  1.2186  1.1674  0.4880
 4174TIP3    H234014   2.369   5.215   3.099 -1.0095  1.4055  0.3953
 4175TIP3   OH234015   1.098   4.559   2.175  0.2597  0.0948  0.2971
 4175TIP3    H134016   1.054   4.632   2.131  0.3337 -0.6816 -1.0711
 4175TIP3    H234017   1.168   4.601   2.227  1.0270  0.9167 -1.3658
 4176TIP3   OH234018   1.234   3.188   5.408  0.2541 -0.2439 -0.2172
 4176TIP3    H134019   1.190   3.125   5.351  0.6251 -0.6214 -0.0895
 4176TIP3    H234020   1.288   3.135   5.466  0.0406  0.1473  0.3540
 4177TIP3   OH234021   5.145   6.566   2.386 -0.1916 -0.2350  0.5674
 4177TIP3    H134022   5.072   6.509   2.365 -1.1741  1.8108 -1.8751
 4177TIP3    H234023   5.190   6.580   2.303  0.5854  1.7302  1.2730
 4178TIP3   OH234024   6.151   4.722  10.568 -0.4256  0.0507 -0.8409
 4178TIP3    H134025   6.115   4.633  10.563 -2.4092  0.8235 -0.9599
 4178TIP3    H234026   6.097   4.772  10.507  0.0773  1.5300 -0.0756
 4179TIP3   OH234027   6.381   5.747   0.646 -0.0086  0.2315 -0.0459
 4179TIP3    H134028   6.427   5.828   0.667  0.0518 -0.0634  0.9941
 4179TIP3    H234029   6.443   5.677   0.666  0.1981 -0.0621 -1.6285
 4180TIP3   OH234030   4.145   2.721   3.878  0.9133 -0.0576 -0.1885
 4180TIP3    H134031   4.204   2.796   3.877  0.7522  0.0531 -2.2020
 4180TIP3    H234032   4.157   2.683   3.965  1.7597  1.6764  0.4858
 4181TIP3   OH234033   2.380   4.893  17.272  0.1518 -0.2380  0.3899
 4181TIP3    H134034   2.378   4.971  17.328 -2.2911 -0.0505  0.0800
 4181TIP3    H234035   2.444   4.835  17.314 -0.6562  0.4489  2.6450
 4182TIP3   OH234036   5.608   0.158  15.924 -0.2423 -0.2203  0.2004
 4182TIP3    H134037   5.522   0.143  15.885  0.1793 -0.7835 -0.5121
 4182TIP3    H234038   5.589   0.193  16.011 -1.1978 -0.8092  0.2296
 4183TIP3   OH234039   4.594   5.222  14.881  0.0403  0.2291 -0.2661
 4183TIP3    H134040   4.559   5.270  14.806 -0.8291 -1.9012 -1.2636
 4183TIP3    H234041   4.651   5.156  14.843 -0.0042 -0.5521  0.9832
 4184TIP3   OH234042   3.273   4.201   0.756 -0.5979 -0.1858 -0.3050
 4184TIP3    H134043   3.220   4.268   0.713 -2.5498 -1.5187 -0.0385
 4184TIP3    H234044   3.244   4.203   0.847  1.0193  0.2196  0.2041
 4185TIP3   OH234045   3.966   0.396  15.048 -0.8036  0.5310 -0.6710
 4185TIP3    H134046   4.057   0.376  15.071 -1.2908 -2.7055 -1.3535
 4185TIP3    H234047   3.923   0.414  15.131  0.1804  0.9023 -0.2363
 4186TIP3   OH234048   0.046   0.300   5.059 -0.3532 -0.2767  0.1461
 4186TIP3    H134049   0.044   0.314   4.964  1.7686  2.6287  0.4614
 4186TIP3    H234050   0.129   0.254   5.074 -0.1966  0.1848  0.6965
 4187TIP3   OH234051   2.176   2.924   1.929 -0.3169 -0.3912 -0.4007
 4187TIP3    H134052   2.140   2.866   1.861  0.0369 -2.0569  0.7983
 4187TIP3    H234053   2.100   2.952   1.979 -0.5519  0.6451 -1.3157
 4188TIP3   OH234054   2.700   6.281  13.402  0.4138  0.1315  0.3154
 4188TIP3    H134055   2.657   6.281  13.316  2.6741  1.1105 -0.8690
 4188TIP3    H234056   2.699   6.190  13.430 -1.4272 -0.0196 -0.1743
 4189TIP3   OH234057   0.652   0.358  14.227  0.2394 -0.3284 -0.2385
 4189TIP3    H134058   0.635   0.264  14.231 -0.3824 -0.3921 -3.3963
 4189TIP3    H234059   0.571   0.399  14.259 -0.4028 -0.8413 -1.1965
 4190TIP3   OH234060   5.924   4.878  15.282 -0.8231  0.0424 -0.0649
 4190TIP3    H134061   5.905   4.927  15.362 -1.9580 -0.2369 -0.1489
 4190TIP3    H234062   5.878   4.794  15.294  2.4896 -1.7365  0.8295
 4191TIP3   OH234063   5.768   5.195  11.985  0.2387  0.0102  0.0753
 4191TIP3    H134064   5.751   5.214  11.893 -1.3840  1.3313  0.6266
 4191TIP3    H234065   5.713   5.119  12.005 -1.1241  1.0832  0.5041
 4192TIP3   OH234066   4.483   1.705  12.287  0.6322  0.3023 -0.3915
 4192TIP3    H134067   4.483   1.610  12.280  1.9900  0.1915  1.0516
 4192TIP3    H234068   4.404   1.725  12.338  0.0999  0.0031 -1.0802
 4193TIP3   OH234069   3.745   6.178   2.201 -0.3090  0.5814  0.7516
 4193TIP3    H134070   3.681   6.115   2.236 -0.2872  0.8032  1.1881
 4193TIP3    H234071   3.722   6.186   2.108  0.7093 -1.3357  0.2934
 4194TIP3   OH234072   3.839   5.822   2.148  0.6025  0.1136 -0.5110
 4194TIP3    H134073   3.900   5.869   2.091  0.1729  0.3993 -0.7450
 4194TIP3    H234074   3.858   5.855   2.236 -0.9316  2.1287 -0.8833
 4195TIP3   OH234075   4.751   6.111   4.477 -0.2461 -0.2683  0.0315
 4195TIP3    H134076   4.749   6.072   4.389 -1.7244 -0.4900  0.1533
 4195TIP3    H234077   4.748   6.205   4.462  0.6967 -0.2641 -0.1822
 4196TIP3   OH234078   4.430   1.040   5.982 -0.2897  0.3613 -0.5293
 4196TIP3    H134079   4.403   1.129   5.960  0.5196  1.2421  1.8360
 4196TIP3    H234080   4.509   1.025   5.930  0.5092  1.6774  0.2615
 4197TIP3   OH234081   6.328   1.742   3.870 -0.5818 -0.1385 -0.3152
 4197TIP3    H134082   6.414   1.724   3.907  0.1027 -0.8266 -2.1549
 4197TIP3    H234083   6.269   1.680   3.913 -0.7377  2.1399  2.9643
 4198TIP3   OH234084   0.053   6.361   0.023  0.1708 -0.3583  0.0335
 4198TIP3    H134085  -0.011   6.410   0.076  1.7744  0.5534  1.1664
 4198TIP3    H234086   0.025   6.377  -0.068  0.9718  3.1918  0.3369
 4199TIP3   OH234087   6.408   0.974  13.675  0.1548 -0.8690 -0.4859
 4199TIP3    H134088   6.326   0.927  13.692 -0.3152  0.6634  1.6473
 4199TIP3    H234089   6.383   1.044  13.615  0.2235 -1.3009 -1.0306
 4200TIP3   OH234090   4.267   1.979  12.525  0.0933  0.1337 -0.4155
 4200TIP3    H134091   4.186   1.957  12.478  1.1177 -1.8942 -1.2629
 4200TIP3    H234092   4.316   2.035  12.463  0.6955 -1.1576 -1.1152
 4201TIP3   OH234093   4.394   5.327   2.948  0.1613 -0.4660 -0.1728
 4201TIP3    H134094   4.381   5.239   2.914 -0.9364 -0.0271 -0.8944
 4201TIP3    H234095   4.413   5.380   2.871  2.5050 -0.3573  0.4273
 4202TIP3   OH234096   3.913   1.752  11.814 -0.0979  0.0150 -0.1249
 4202TIP3    H134097   3.947   1.832  11.776 -0.1444  0.9624  1.8004
 4202TIP3    H234098   3.889   1.698  11.738  2.0734  0.8538 -1.4572
 4203TIP3   OH234099   2.289   2.739  16.548  0.0319 -0.5087 -0.6555
 4203TIP3    H134100   2.233   2.661  16.545 -1.7991  0.7500  0.1099
 4203TIP3    H234101   2.229   2.812  16.536  1.4718  0.9042  0.5267
 4204TIP3   OH234102   1.866   2.866   0.339 -0.6239 -0.1191  0.6827
 4204TIP3    H134103   1.799   2.886   0.273  1.4079 -0.7644 -1.6639
 4204TIP3    H234104   1.848   2.776   0.364 -0.2492 -0.5059 -0.4217
 4205TIP3   OH234105   6.503   5.007   0.384 -0.1203  0.2525  0.0160
 4205TIP3    H134106   6.579   4.952   0.367  0.2809  0.9812 -0.6034
 4205TIP3    H234107   6.431   4.945   0.399  0.5634 -0.4352  0.4638
 4206TIP3   OH234108   1.115   3.225   0.552 -0.0372  0.2139 -0.6250
 4206TIP3    H134109   1.125   3.170   0.630 -0.5026 -1.1514 -1.5094
 4206TIP3    H234110   1.204   3.237   0.519  0.0598 -0.1186 -0.4871
 4207TIP3   OH234111   1.320   6.038   4.449  0.0882  0.0728  0.0742
 4207TIP3    H134112   1.368   5.965   4.411 -0.4539  0.0951 -0.6616
 4207TIP3    H234113   1.362   6.052   4.534  1.9245  0.6548 -0.9084
 4208TIP3   OH234114   3.874   2.460  13.988  0.0628 -0.1884  0.4200
 4208TIP3    H134115   3.826   2.536  14.019  0.0088 -0.4429  0.9634
 4208TIP3    H234116   3.806   2.393  13.976 -0.1500  0.3669 -1.7444
 4209TIP3   OH234117   5.385   3.884  11.217  0.0774  0.5455 -0.2899
 4209TIP3    H134118   5.307   3.916  11.262 -0.6177 -0.7871 -0.5408
 4209TIP3    H234119   5.427   3.964  11.184 -0.3925  1.3828  1.0795
 4210TIP3   OH234120   3.573   5.540  14.713  0.0872 -0.6374 -0.2926
 4210TIP3    H134121   3.567   5.511  14.804  0.8951  0.5511  0.1479
 4210TIP3    H234122   3.573   5.635  14.718 -0.3604 -0.5624 -1.5753
 4211TIP3   OH234123   3.372   5.865  12.605 -0.3593  0.3533 -0.5351
 4211TIP3    H134124   3.328   5.886  12.687 -2.0165  0.7889 -1.5182
 4211TIP3    H234125   3.464   5.855  12.629 -0.8524  0.3217  1.3935
 4212TIP3   OH234126   0.020   3.863   2.815  0.3468 -0.7850  0.6205
 4212TIP3    H134127   0.092   3.836   2.758 -0.3844 -0.8747 -0.2702
 4212TIP3    H234128  -0.056   3.868   2.757 -0.0953  0.5768  1.3019
 4213TIP3   OH234129   3.988   0.894   0.102 -0.2454  0.6743 -0.0060
 4213TIP3    H134130   3.949   0.877   0.017 -1.1396  0.6882  0.3964
 4213TIP3    H234131   4.035   0.814   0.124  1.2052  1.1801 -1.1496
 4214TIP3   OH234132   6.360   0.444  12.904 -0.0021 -0.0291  0.0052
 4214TIP3    H134133   6.293   0.452  12.835 -0.2737  1.6978  0.4498
 4214TIP3    H234134   6.388   0.534  12.921  1.2718 -0.5936  0.9870
 4215TIP3   OH234135   1.028   6.450   0.218  0.4406 -0.0855 -0.0358
 4215TIP3    H134136   1.047   6.453   0.124  0.0030  0.4416 -0.1168
 4215TIP3    H234137   1.044   6.540   0.248 -1.4735  0.2826 -0.0396
 4216TIP3   OH234138   6.681   6.585   5.136 -0.2759 -0.1085 -0.2422
 4216TIP3    H134139   6.629   6.601   5.057 -0.9627  1.1294  0.4437
 4216TIP3    H234140   6.726   6.502   5.119 -1.7882 -0.7453 -1.2030
 4217TIP3   OH234141   1.005   4.951  10.536 -0.3595 -0.2104 -0.0192
 4217TIP3    H134142   0.979   4.859  10.531  1.2520 -0.8767  2.7993
 4217TIP3    H234143   0.949   4.988  10.605 -0.1075  0.5940 -0.2427
 4218TIP3   OH234144   6.528   1.632   2.767  0.3673 -0.1204  0.2159
 4218TIP3    H134145   6.525   1.647   2.673 -0.6010 -0.4923  0.1843
 4218TIP3    H234146   6.614   1.596   2.783  0.0514 -1.3005 -0.7135
 4219TIP3   OH234147   3.157   5.904  15.145  0.3148 -0.5993 -0.3283
 4219TIP3    H134148   3.149   5.889  15.239 -0.7323  0.2944 -0.2754
 4219TIP3    H234149   3.163   5.999  15.135  0.5310 -0.6895 -1.1577
 4220TIP3   OH234150   6.204   5.696   3.044  0.2655  0.0856  0.5392
 4220TIP3    H134151   6.117   5.655   3.039 -0.5009  1.6069  0.9500
 4220TIP3    H234152   6.256   5.650   2.979 -1.5417  0.7906 -1.4539
 4221TIP3   OH234153   0.180   6.409   5.981  0.7266  0.2991  0.2283
 4221TIP3    H134154   0.133   6.490   6.004 -0.0891  0.0319 -0.4449
 4221TIP3    H234155   0.127   6.371   5.911  0.4466 -1.4173  1.3310
 4222TIP3   OH234156   6.687   1.646   5.970  0.2550 -0.5791 -0.2220
 4222TIP3    H134157   6.698   1.600   5.887  0.5472 -0.0953 -0.4536
 4222TIP3    H234158   6.730   1.730   5.956 -0.2512 -0.2502  0.2079
 4223TIP3   OH234159   3.972   1.160   1.478  0.2879 -0.0367 -0.2907
 4223TIP3    H134160   3.878   1.162   1.464  0.5514  0.6434 -2.2029
 4223TIP3    H234161   3.983   1.139   1.570 -1.7095 -1.5125 -0.3675
 4224TIP3   OH234162   3.947   0.768  12.784  0.0449 -0.4398 -0.0941
 4224TIP3    H134163   3.918   0.757  12.694 -1.4846  0.8976  0.2333
 4224TIP3    H234164   3.875   0.735  12.837 -0.0215  0.9229  0.6829
 4225TIP3   OH234165   4.360   4.536  17.152 -0.3892  0.3939 -0.1213
 4225TIP3    H134166   4.280   4.546  17.203  0.3585  1.2111  0.9073
 4225TIP3    H234167   4.336   4.475  17.081 -1.6317 -0.1606  0.7588
 4226TIP3   OH234168   1.417   1.057   5.317 -0.2351  0.9956 -0.0355
 4226TIP3    H134169   1.404   1.100   5.232 -0.8865 -0.6083 -0.7849
 4226TIP3    H234170   1.329   1.047   5.353 -0.3445 -1.6430 -0.9058
 4227TIP3   OH234171   2.699   1.036  16.429 -0.0116  0.1052 -0.1428
 4227TIP3    H134172   2.694   0.946  16.398  1.1958 -0.2468  0.6076
 4227TIP3    H234173   2.611   1.071  16.418 -1.2355 -2.0797  2.2516
 4228TIP3   OH234174   4.748   3.944   2.990 -0.0794 -0.1749  0.0463
 4228TIP3    H134175   4.728   4.031   3.023 -0.6581 -0.2735 -0.0329
 4228TIP3    H234176   4.728   3.885   3.063 -0.4120 -0.3068 -0.1508
 4229TIP3   OH234177   2.943   1.892  10.486 -0.3293 -0.3416 -0.6218
 4229TIP3    H134178   2.853   1.906  10.516 -0.7275  0.8633 -2.3355
 4229TIP3    H234179   2.985   1.978  10.493  0.5651 -0.7966 -0.2580
 4230TIP3   OH234180   5.244   4.653  11.448  0.3085  0.2548  0.1898
 4230TIP3    H134181   5.329   4.635  11.409  0.4210  1.0384  0.0641
 4230TIP3    H234182   5.185   4.666  11.374 -0.1819 -1.3855  0.2597
 4231TIP3   OH234183   0.549   1.242   1.557  0.2945  0.1453 -0.0130
 4231TIP3    H134184   0.549   1.162   1.608  1.9046  0.6783  0.8766
 4231TIP3    H234185   0.627   1.235   1.502 -0.7144  0.1602 -1.4605
 4232TIP3   OH234186   1.764   3.680  15.121 -0.3335 -0.2966  0.7256
 4232TIP3    H134187   1.825   3.754  15.120  0.2063 -0.7399  0.3670
 4232TIP3    H234188   1.678   3.719  15.108 -0.1630  0.3685  1.5541
 4233TIP3   OH234189   3.967   4.300   5.217 -0.4091 -0.2117 -0.2828
 4233TIP3    H134190   3.878   4.334   5.222 -1.2311 -2.0618 -1.5851
 4233TIP3    H234191   3.970   4.251   5.134  0.9957 -2.3888  0.9898
 4234TIP3   OH234192   0.913   5.740   5.709  0.0447 -0.3272  0.2885
 4234TIP3    H134193   0.887   5.651   5.735 -0.7109 -0.6696 -1.5575
 4234TIP3    H234194   0.834   5.778   5.672  0.6833  0.7173 -0.0226
 4235TIP3   OH234195   4.994   2.560  13.639  0.0093 -0.1152 -0.0820
 4235TIP3    H134196   5.057   2.504  13.684 -0.1432 -0.6753 -0.5560
 4235TIP3    H234197   5.023   2.649  13.657  2.2557 -0.3742 -2.1656
 4236TIP3   OH234198   2.824   6.105  14.868 -0.0184  0.3021 -0.2173
 4236TIP3    H134199   2.900   6.133  14.818 -0.7997  0.2156 -1.4819
 4236TIP3    H234200   2.860   6.053  14.939  1.1401  0.7860 -0.4324
 4237TIP3   OH234201   5.464   2.069   0.461  0.0616 -0.2939 -0.5225
 4237TIP3    H134202   5.412   2.007   0.511 -0.9127  1.8137  1.1399
 4237TIP3    H234203   5.422   2.153   0.475  2.3151  1.0406 -1.3916
 4238TIP3   OH234204   2.270   3.543   5.288 -0.4714 -0.3322 -0.0329
 4238TIP3    H134205   2.295   3.494   5.210  0.1403  0.3549 -0.2753
 4238TIP3    H234206   2.350   3.587   5.316 -0.6993 -0.5362  0.9591
 4239TIP3   OH234207   5.841   2.650  10.491 -0.2814 -0.3543 -1.0678
 4239TIP3    H134208   5.766   2.694  10.452 -0.5454 -0.3421 -0.5544
 4239TIP3    H234209   5.811   2.559  10.504 -0.7470  0.0115  0.5489
 4240TIP3   OH234210   4.755   1.257   3.941 -0.3485 -0.3024 -0.7009
 4240TIP3    H134211   4.771   1.340   3.896  0.1635 -1.0394 -1.8892
 4240TIP3    H234212   4.735   1.195   3.871 -3.6384 -0.5282  0.3932
 4241TIP3   OH234213   4.138   4.888  14.384 -0.1708  0.2927  0.0059
 4241TIP3    H134214   4.120   4.954  14.451  0.2889  0.1225  0.2970
 4241TIP3    H234215   4.231   4.898  14.364 -0.2513  0.1794 -0.4315
 4242TIP3   OH234216   2.225   5.639   1.134  0.1195  0.3944  0.2184
 4242TIP3    H134217   2.320   5.652   1.137  0.1653 -0.0284  0.7726
 4242TIP3    H234218   2.189   5.720   1.171  0.3376 -0.2676  1.9127
 4243TIP3   OH234219   5.589   1.217   0.216  0.2959  0.0719 -0.0683
 4243TIP3    H134220   5.674   1.208   0.174  0.4703  0.1301  0.2690
 4243TIP3    H234221   5.539   1.141   0.187  0.8720 -0.6034  0.7026
 4244TIP3   OH234222   4.251   1.729   0.151  0.1416  0.4199  0.0245
 4244TIP3    H134223   4.239   1.656   0.212  0.7446  1.7046  1.7405
 4244TIP3    H234224   4.333   1.709   0.107  0.3170  0.0593  0.4982
 4245TIP3   OH234225   1.388   3.513   2.032  0.1366  0.6111  0.0711
 4245TIP3    H134226   1.482   3.517   2.052 -0.1912  2.5235  1.4363
 4245TIP3    H234227   1.350   3.585   2.083 -2.0981 -0.2219 -0.3606
 4246TIP3   OH234228   0.908   0.973   5.848 -0.3450  0.6868 -0.1236
 4246TIP3    H134229   0.996   0.966   5.886 -0.4438  0.6598  0.1056
 4246TIP3    H234230   0.913   1.048   5.789  0.4732 -0.7162 -1.8807
 4247TIP3   OH234231   1.327   5.596   1.538  0.0107  0.2480 -0.5484
 4247TIP3    H134232   1.293   5.684   1.520  0.4184  0.6358  0.5059
 4247TIP3    H234233   1.402   5.611   1.596 -2.0253 -1.0028  2.5555
 4248TIP3   OH234234   5.476   3.894   3.712 -0.8968  0.4925  0.4653
 4248TIP3    H134235   5.470   3.984   3.681  0.6891  0.6857  0.6782
 4248TIP3    H234236   5.396   3.852   3.680 -0.8231  1.5266 -1.1093
 4249TIP3   OH234237   6.005   5.982   3.427  0.0632 -0.1085  0.1421
 4249TIP3    H134238   5.934   5.954   3.485  0.0947  0.1101  0.2864
 4249TIP3    H234239   5.965   6.048   3.371  0.0722 -0.2105  0.0140
 4250TIP3   OH234240   5.199   2.170  12.641  0.5582 -0.3967  0.3116
 4250TIP3    H134241   5.110   2.145  12.667  1.3966 -2.3896  1.3734
 4250TIP3    H234242   5.218   2.246  12.696 -0.8291  0.6657 -0.6293
 4251TIP3   OH234243   4.694   5.722   4.402 -0.1667  0.4527 -0.5575
 4251TIP3    H134244   4.626   5.675   4.353 -0.0487  0.7733 -1.0332
 4251TIP3    H234245   4.647   5.795   4.443 -0.3600 -0.1058  0.2293
 4252TIP3   OH234246   2.258   6.511  13.539 -0.4366 -0.5636 -0.3039
 4252TIP3    H134247   2.266   6.421  13.508 -0.4532 -0.6006 -0.2021
 4252TIP3    H234248   2.204   6.505  13.618 -0.0479 -0.5221 -0.0321
 4253TIP3   OH234249   4.625   3.295  13.312  0.1576  0.1333 -0.4336
 4253TIP3    H134250   4.618   3.255  13.225 -1.2939 -0.6896  0.0536
 4253TIP3    H234251   4.662   3.225  13.366 -1.8515 -0.3773  0.2945
 4254TIP3   OH234252   5.517   5.436  14.255  0.1631 -0.3225  0.1935
 4254TIP3    H134253   5.612   5.439  14.252  0.1385  1.7344  0.8952
 4254TIP3    H234254   5.488   5.468  14.170  0.0951  0.7585  0.6140
 4255TIP3   OH234255   0.313   4.051  14.646 -0.0626 -0.2949  0.3738
 4255TIP3    H134256   0.220   4.074  14.650  0.2844  1.2470 -0.2824
 4255TIP3    H234257   0.353   4.099  14.718  0.0050 -2.1514  1.6163
 4256TIP3   OH234258   6.263   3.725   4.218 -0.3450  0.1385  0.1743
 4256TIP3    H134259   6.220   3.756   4.298  1.6591  2.1562  0.5237
 4256TIP3    H234260   6.283   3.633   4.236 -2.1158 -0.1160  1.0094
 4257TIP3   OH234261   3.807   6.317  15.697  0.2499  0.4219 -0.2711
 4257TIP3    H134262   3.805   6.412  15.715  1.1189  0.7309 -1.7347
 4257TIP3    H234263   3.898   6.299  15.674 -0.0532 -0.6497 -0.6633
 4258TIP3   OH234264   2.134   0.431   5.138 -0.5112 -0.6604  0.1965
 4258TIP3    H134265   2.094   0.444   5.052  1.0622 -1.4236 -0.6880
 4258TIP3    H234266   2.096   0.350   5.171 -2.3899  0.5223  0.9898
 4259TIP3   OH234267   4.589   2.439  16.442 -0.7919 -0.4065  0.2576
 4259TIP3    H134268   4.592   2.534  16.453 -0.7472 -0.3782 -0.0064
 4259TIP3    H234269   4.604   2.425  16.349  1.3244 -0.7785  0.6422
 4260TIP3   OH234270   6.259   3.057   5.839 -0.3028 -0.2154 -0.2506
 4260TIP3    H134271   6.278   3.046   5.746 -0.4500 -1.3551 -0.1488
 4260TIP3    H234272   6.344   3.077   5.879 -0.4774  1.7964 -0.8411
 4261TIP3   OH234273   2.738   5.314   0.883  0.2744 -0.1187 -0.3934
 4261TIP3    H134274   2.712   5.385   0.942  0.0216 -0.6319  0.1263
 4261TIP3    H234275   2.754   5.240   0.942 -3.8882 -1.8228 -1.2084
 4262TIP3   OH234276   5.741   4.358  13.678  0.2292 -0.0288 -0.7407
 4262TIP3    H134277   5.795   4.412  13.620  0.9749 -1.2084 -1.1470
 4262TIP3    H234278   5.794   4.345  13.756  0.8697 -1.8147 -1.4419
 4263TIP3   OH234279   0.237   5.339  16.155  0.6452 -0.4953  0.2420
 4263TIP3    H134280   0.233   5.432  16.136 -0.4212 -0.9214 -1.8330
 4263TIP3    H234281   0.313   5.307  16.106  0.8076 -0.7588  0.6652
 4264TIP3   OH234282   6.082   1.259   5.723  0.3774 -0.5202 -0.1123
 4264TIP3    H134283   6.157   1.271   5.665  0.1457  1.7773  0.0019
 4264TIP3    H234284   6.008   1.298   5.676  0.2732  1.7849  1.8274
 4265TIP3   OH234285   2.449   1.856   1.520  0.3301  0.5543  0.3873
 4265TIP3    H134286   2.487   1.848   1.607  0.2885 -2.1331  0.2077
 4265TIP3    H234287   2.400   1.938   1.522  0.7841  0.7927  2.7086
 4266TIP3   OH234288   0.108   1.311   2.955 -0.1574  0.1015  0.2782
 4266TIP3    H134289   0.063   1.233   2.986 -1.1998  0.9351  0.9002
 4266TIP3    H234290   0.101   1.373   3.028 -1.4356  1.6189 -1.1158
 4267TIP3   OH234291   4.317   0.485   4.073 -0.0373 -0.6153 -0.0262
 4267TIP3    H134292   4.310   0.474   4.168 -0.1249  0.9017  0.1606
 4267TIP3    H234293   4.311   0.397   4.038  0.6838 -1.2612  1.4297
 4268TIP3   OH234294   1.982   5.144  14.070 -0.3061 -0.4311 -0.0067
 4268TIP3    H134295   1.942   5.210  14.127 -0.6015 -0.9044  0.3373
 4268TIP3    H234296   1.910   5.087  14.044 -0.2995  0.1949 -1.4438
 4269TIP3   OH234297   2.013   2.093   2.335  0.3913 -0.6507 -0.3140
 4269TIP3    H134298   2.104   2.120   2.322  0.0702  0.1370 -0.9673
 4269TIP3    H234299   1.991   2.126   2.422  1.5604 -3.2032  1.0112
 4270TIP3   OH234300   3.899   2.644   4.086 -0.0168 -0.2187 -0.2127
 4270TIP3    H134301   3.842   2.712   4.123 -1.2271 -1.2684 -0.1316
 4270TIP3    H234302   3.974   2.642   4.144 -1.3473 -1.0038  1.5281
 4271TIP3   OH234303   6.058   5.213  12.105  0.1687 -0.1162  0.6511
 4271TIP3    H134304   5.969   5.245  12.092 -0.2305  0.1640  3.6509
 4271TIP3    H234305   6.046   5.119  12.123  0.6957 -0.5163 -0.9847
 4272TIP3   OH234306   3.721   2.000  14.901 -0.1866 -0.1624 -0.0777
 4272TIP3    H134307   3.800   1.994  14.955  0.0049  1.1398 -0.1955
 4272TIP3    H234308   3.669   1.924  14.926  0.6612 -0.4844  0.7302
 4273TIP3   OH234309   5.645   6.362  14.885 -0.2683 -0.3018  0.3853
 4273TIP3    H134310   5.733   6.375  14.921 -0.5272 -1.5143  1.4800
 4273TIP3    H234311   5.654   6.383  14.792  0.8074  1.1405  0.8002
 4274TIP3   OH234312   3.935   3.155   2.460  0.1071  0.4041  0.7548
 4274TIP3    H134313   3.940   3.092   2.531 -1.3750 -0.0688  0.4562
 4274TIP3    H234314   3.842   3.179   2.455  0.5091  1.9813  0.3219
 4275TIP3   OH234315   4.674   1.827  11.508 -0.0811  0.0729  0.5038
 4275TIP3    H134316   4.717   1.785  11.582 -0.4406 -1.2636 -0.0404
 4275TIP3    H234317   4.735   1.895  11.480  0.9721 -0.7740  0.7387
 4276TIP3   OH234318   0.088   0.844   5.276 -0.3921  0.2564 -0.6301
 4276TIP3    H134319   0.043   0.923   5.306  1.7482  0.7013  1.5449
 4276TIP3    H234320   0.041   0.772   5.319 -0.3491  0.5558 -0.0892
 4277TIP3   OH234321   0.877   3.428  13.911  0.5873 -0.4201 -0.6200
 4277TIP3    H134322   0.876   3.396  14.001 -1.0812 -1.2227 -0.9088
 4277TIP3    H234323   0.927   3.510  13.915  0.6929 -0.5534  0.9919
 4278TIP3   OH234324   2.025   6.771   0.608 -0.1254 -0.3242 -0.4755
 4278TIP3    H134325   1.973   6.706   0.655 -1.7837  0.0532 -1.7356
 4278TIP3    H234326   2.076   6.720   0.545  0.3038 -0.6061  0.0963
 4279TIP3   OH234327   4.815   3.029  14.141 -0.0810  0.1723 -0.6178
 4279TIP3    H134328   4.878   2.960  14.117 -0.4714 -0.3783 -0.0767
 4279TIP3    H234329   4.863   3.111  14.130  1.2659 -0.3207  1.3894
 4280TIP3   OH234330   0.233   5.467  15.365  0.0775 -0.3867  0.6656
 4280TIP3    H134331   0.248   5.558  15.388  1.4734 -0.8306  1.5681
 4280TIP3    H234332   0.252   5.418  15.445  1.1229 -1.6069 -0.2975
 4281TIP3   OH234333   5.474   4.815  16.189  0.1523  0.3007  0.2732
 4281TIP3    H134334   5.460   4.751  16.119  0.4694  0.4314  0.0893
 4281TIP3    H234335   5.391   4.818  16.236  0.4551 -1.0633  0.9490
 4282TIP3   OH234336   1.355   5.901  15.212 -0.5858  0.2520  0.4584
 4282TIP3    H134337   1.383   5.903  15.303  0.1014 -0.4072  0.2569
 4282TIP3    H234338   1.259   5.903  15.217 -0.5496  2.2873  1.1431
 4283TIP3   OH234339   2.813   2.476   1.861 -0.1590 -0.3973 -0.4443
 4283TIP3    H134340   2.896   2.500   1.902  0.3264 -0.3940 -1.4089
 4283TIP3    H234341   2.782   2.401   1.911 -0.9518  1.2666  1.6857
 4284TIP3   OH234342   1.709   4.228   6.094  0.0234  0.0952  0.0442
 4284TIP3    H134343   1.773   4.157   6.084 -0.3792 -0.5958  2.1718
 4284TIP3    H234344   1.756   4.296   6.143 -0.4535  0.1463  0.4319
 4285TIP3   OH234345   3.045   6.795   1.764  0.5097  0.6577 -0.3206
 4285TIP3    H134346   3.093   6.753   1.692 -1.9444 -0.5301 -1.3148
 4285TIP3    H234347   3.000   6.869   1.722 -1.0201 -0.1050 -0.0496
 4286TIP3   OH234348   1.898   6.668   5.580 -0.0570 -0.3149 -0.4878
 4286TIP3    H134349   1.911   6.575   5.563 -0.1407 -0.6818  1.3732
 4286TIP3    H234350   1.876   6.673   5.673  0.0694  1.5769 -0.5362
 4287TIP3   OH234351   1.988   2.500  13.702 -0.4308 -0.2544 -0.0016
 4287TIP3    H134352   2.023   2.413  13.721  0.0287 -0.0947 -0.1214
 4287TIP3    H234353   2.064   2.557  13.701 -0.6998  0.1020 -0.2101
 4288TIP3   OH234354   2.284   5.576  11.250 -0.3247  0.0100 -0.3796
 4288TIP3    H134355   2.310   5.565  11.342 -0.5353 -1.1582 -0.4510
 4288TIP3    H234356   2.363   5.606  11.206  0.3378 -1.3761 -0.1754
 4289TIP3   OH234357   0.846   3.958  16.176 -0.0187 -0.0948  0.4487
 4289TIP3    H134358   0.940   3.957  16.159 -0.2035 -1.5025 -0.6113
 4289TIP3    H234359   0.813   4.033  16.126  0.0210 -1.8571 -2.3465
 4290TIP3   OH234360   1.910   3.867  11.231  0.3965  0.1981  0.2958
 4290TIP3    H134361   1.824   3.879  11.193 -0.0739 -0.4932  1.1090
 4290TIP3    H234362   1.969   3.919  11.176 -0.9205  2.8677  1.3313
 4291TIP3   OH234363   2.680   3.750  14.876  0.5878  0.0698  0.3040
 4291TIP3    H134364   2.642   3.836  14.895 -0.1494 -0.0916 -0.4406
 4291TIP3    H234365   2.767   3.753  14.915  0.5878  1.1819  0.2191
 4292TIP3   OH234366   0.636   1.267  16.508  0.5795  0.2086  0.7395
 4292TIP3    H134367   0.593   1.182  16.507 -0.1336  0.5548  1.1503
 4292TIP3    H234368   0.726   1.250  16.480 -0.2592 -0.2956 -1.8360
 4293TIP3   OH234369   5.529   3.315   1.250  0.1956 -0.4589 -0.2313
 4293TIP3    H134370   5.539   3.308   1.345 -2.8615 -2.1702  0.0193
 4293TIP3    H234371   5.609   3.276   1.215  0.5818 -1.4183  1.6313
 4294TIP3   OH234372   4.002   3.950   5.275  0.0650 -0.2551 -0.0787
 4294TIP3    H134373   3.990   4.032   5.322 -1.5346 -0.7591  0.4439
 4294TIP3    H234374   4.043   3.975   5.192  0.7514  0.9115  0.6100
 4295TIP3   OH234375   2.661   0.513   1.933 -0.4580  0.3200  0.0720
 4295TIP3    H134376   2.724   0.571   1.976 -0.4740  0.1288  0.3498
 4295TIP3    H234377   2.618   0.466   2.004 -1.6302  1.1735 -0.0674
 4296TIP3   OH234378   2.450   1.379  11.526 -0.3746 -0.9646 -0.8443
 4296TIP3    H134379   2.393   1.405  11.599 -0.8742 -0.4877 -1.4043
 4296TIP3    H234380   2.539   1.397  11.558 -0.6984  1.7021 -1.2905
 4297TIP3   OH234381   0.749   3.253   0.184  0.1313 -0.5665  0.3711
 4297TIP3    H134382   0.801   3.176   0.206  2.8791  1.0456 -0.1468
 4297TIP3    H234383   0.759   3.311   0.260 -1.1167 -0.3244  0.3551
 4298TIP3   OH234384   1.957   5.090   5.837 -0.1065  0.2975  0.4555
 4298TIP3    H134385   2.033   5.144   5.858  0.9000 -1.3152  1.0546
 4298TIP3    H234386   1.954   5.087   5.742  0.7412  0.1349  0.4385
 4299TIP3   OH234387   0.504   1.955  12.420  0.4364  0.4199 -0.2100
 4299TIP3    H134388   0.412   1.930  12.427  0.5403 -0.2973 -1.2232
 4299TIP3    H234389   0.543   1.886  12.366  1.8620 -0.0220  1.3559
 4300TIP3   OH234390   4.319   0.890  16.069  0.0484  0.0305  0.3468
 4300TIP3    H134391   4.378   0.908  16.143 -0.6328 -0.5666  1.0345
 4300TIP3    H234392   4.280   0.975  16.049 -1.7790 -0.2787  2.4174
 4301TIP3   OH234393   0.731   0.435  13.903 -0.1174  0.1152 -0.6743
 4301TIP3    H134394   0.673   0.507  13.926 -0.2173 -0.5090  1.1606
 4301TIP3    H234395   0.695   0.360  13.950  1.0596 -0.7061 -1.0635
 4302TIP3   OH234396   5.933   0.778   2.191  0.0677  0.4898 -0.2600
 4302TIP3    H134397   6.016   0.822   2.206  1.3599 -1.6475 -0.9691
 4302TIP3    H234398   5.918   0.787   2.097  0.3083 -0.5239 -0.3983
 4303TIP3   OH234399   2.568   5.508  10.993 -0.1959 -0.1076  0.2050
 4303TIP3    H134400   2.520   5.529  10.913 -0.9762 -2.8137 -0.0573
 4303TIP3    H234401   2.536   5.573  11.057 -0.4561  1.2975 -1.3192
 4304TIP3   OH234402   0.524   6.449   3.091 -0.8735  0.0163 -0.2591
 4304TIP3    H134403   0.545   6.539   3.118 -2.4845  0.4456 -0.3954
 4304TIP3    H234404   0.581   6.433   3.016  0.4142  0.4179  0.6077
 4305TIP3   OH234405   6.164   3.577  14.881 -0.0037  0.0171 -0.8080
 4305TIP3    H134406   6.131   3.541  14.963  2.6093  0.0284  0.3177
 4305TIP3    H234407   6.154   3.506  14.818 -0.9456 -0.4080 -0.1879
 4306TIP3   OH234408   5.737   4.308  11.346 -0.6708  0.1966 -0.2659
 4306TIP3    H134409   5.805   4.264  11.295  0.2329  0.8447  0.3534
 4306TIP3    H234410   5.750   4.401  11.327  0.0388  0.4992  1.5391
 4307TIP3   OH234411   5.630   5.940  13.822 -0.0631 -0.2068 -0.2381
 4307TIP3    H134412   5.710   5.888  13.815  0.2342  0.5147 -2.3314
 4307TIP3    H234413   5.563   5.888  13.777 -0.0162  0.6917 -1.3587
 4308TIP3   OH234414   1.600   5.719   5.438  0.2663  0.2222  0.5196
 4308TIP3    H134415   1.638   5.637   5.406 -1.0476 -0.6250  1.0707
 4308TIP3    H234416   1.662   5.787   5.411  1.6212 -1.0106  0.4997
 4309TIP3   OH234417   2.215   4.867  11.163 -0.2160  0.1072  0.8142
 4309TIP3    H134418   2.144   4.929  11.146 -0.4648  0.0046  1.4546
 4309TIP3    H234419   2.243   4.886  11.252  0.4468  0.0285  0.6276
 4310TIP3   OH234420   6.529   3.969   1.972  0.5211 -0.1194 -0.3274
 4310TIP3    H134421   6.488   4.045   2.013  0.6917 -0.4593  0.4913
 4310TIP3    H234422   6.494   3.894   2.021  0.5220 -0.5551 -0.9823
 4311TIP3   OH234423   3.884   2.314   2.388  0.0592 -0.5878  0.3668
 4311TIP3    H134424   3.849   2.266   2.463 -2.3212  0.2421 -0.1667
 4311TIP3    H234425   3.952   2.370   2.425 -0.6886 -0.6033  1.8006
 4312TIP3   OH234426   1.464   2.902  12.446 -0.6311 -0.0784 -0.2282
 4312TIP3    H134427   1.383   2.866  12.483  0.0110  0.0604  1.3664
 4312TIP3    H234428   1.442   2.993  12.425 -1.1573 -0.3077 -0.6889
 4313TIP3   OH234429   4.167   2.013  14.965  0.2447  0.2438 -0.0312
 4313TIP3    H134430   4.166   1.952  15.039 -0.0623 -0.2756 -0.4567
 4313TIP3    H234431   4.165   1.957  14.888  0.0921  0.7912 -0.4300
 4314TIP3   OH234432   2.359   4.912   5.010 -0.3707  0.0160 -0.0625
 4314TIP3    H134433   2.353   4.976   4.940 -0.4734  0.4455  0.3335
 4314TIP3    H234434   2.355   4.964   5.091 -3.0495 -0.6942  0.3066
 4315TIP3   OH234435   5.455   2.762  12.033  0.0381 -0.1174 -0.0975
 4315TIP3    H134436   5.505   2.726  12.106 -1.0001  1.7288  1.5629
 4315TIP3    H234437   5.373   2.792  12.072 -1.4315 -1.0029 -2.3905
 4316TIP3   OH234438   3.294   4.998  12.317 -0.5263  0.0453  0.2630
 4316TIP3    H134439   3.357   5.060  12.353 -0.3211 -2.0993  3.8016
 4316TIP3    H234440   3.213   5.047  12.310  0.7936  2.0583 -1.7294
 4317TIP3   OH234441   6.458   2.754   0.578 -0.7242 -0.1836 -0.0543
 4317TIP3    H134442   6.534   2.709   0.541 -0.9280  0.5076 -1.3586
 4317TIP3    H234443   6.383   2.704   0.546 -0.9855  1.4865 -2.1406
 4318TIP3   OH234444   3.684   2.798  16.836  0.5983 -0.2890 -0.1810
 4318TIP3    H134445   3.662   2.709  16.861  0.6972 -0.1666  0.3377
 4318TIP3    H234446   3.626   2.854  16.888  1.2918 -0.0135  0.3093
 4319TIP3   OH234447   3.292   1.261  12.227  0.2009 -0.0736  0.9220
 4319TIP3    H134448   3.303   1.339  12.172  1.2491 -0.7267  0.1918
 4319TIP3    H234449   3.197   1.246  12.227  0.0597  0.7532  0.4389
 4320TIP3   OH234450   4.542   1.862  12.600 -0.2400  0.1107  0.0835
 4320TIP3    H134451   4.540   1.767  12.607 -1.8198  0.1380  0.1237
 4320TIP3    H234452   4.459   1.891  12.637 -0.6295  1.3875 -1.7256
 4321TIP3   OH234453   4.708   2.585   5.658 -0.7907  0.0528  0.4249
 4321TIP3    H134454   4.677   2.647   5.592  0.9819 -1.2581 -1.6676
 4321TIP3    H234455   4.694   2.499   5.619  2.4448 -0.6742  0.7350
 4322TIP3   OH234456   1.366   4.314  12.237  0.3089  0.3278  0.4467
 4322TIP3    H134457   1.365   4.408  12.254  0.3120  1.1467 -3.7082
 4322TIP3    H234458   1.277   4.293  12.209  0.9578 -0.3764 -1.1375
 4323TIP3   OH234459   0.337   6.798  13.752 -0.2500  0.5340 -0.0010
 4323TIP3    H134460   0.387   6.826  13.828  0.5157 -0.7427 -0.0168
 4323TIP3    H234461   0.321   6.878  13.703  1.3637  1.0253  0.2527
 4324TIP3   OH234462   4.121   4.916   2.453 -0.0470 -0.3813 -0.4118
 4324TIP3    H134463   4.134   4.911   2.358 -1.9962  2.1794 -0.8728
 4324TIP3    H234464   4.026   4.905   2.465  0.1448 -0.3914  1.2013
 4325TIP3   OH234465   5.719   2.142  15.113  0.3186 -0.0791 -0.5184
 4325TIP3    H134466   5.737   2.215  15.171  0.2192 -0.0547 -0.5165
 4325TIP3    H234467   5.675   2.182  15.037  1.1956  0.0014 -0.9859
 4326TIP3   OH234468   5.788   2.646   1.656 -0.0126 -0.2152  0.5793
 4326TIP3    H134469   5.847   2.703   1.607  0.5686 -0.1819  1.3094
 4326TIP3    H234470   5.723   2.705   1.695 -0.0513 -0.1654  0.4381
 4327TIP3   OH234471   4.132   5.504  12.188  0.0098  0.4511  0.8370
 4327TIP3    H134472   4.188   5.572  12.150  0.8730 -0.9449 -0.4895
 4327TIP3    H234473   4.083   5.470  12.113  0.0060 -0.7562  1.3849
 4328TIP3   OH234474   5.862   1.412  11.343 -0.6736 -0.1141 -0.1020
 4328TIP3    H134475   5.892   1.385  11.430 -1.0202  1.2349  0.4467
 4328TIP3    H234476   5.820   1.334  11.307  0.5705 -1.0388  0.4447
 4329TIP3   OH234477   5.309   5.318   6.790 -0.2817 -0.0630 -0.5829
 4329TIP3    H134478   5.251   5.244   6.775  1.1653 -0.7344 -3.0614
 4329TIP3    H234479   5.397   5.284   6.774  0.7679  1.2009  2.0870
 4330TIP3   OH234480   1.595   6.690  13.439  0.6405  0.4927  0.7514
 4330TIP3    H134481   1.528   6.693  13.507  0.6263 -0.8306  0.8071
 4330TIP3    H234482   1.665   6.747  13.472 -0.6813  2.3446  0.4235
 4331TIP3   OH234483   6.672   4.342  12.088  0.2293 -0.5870  0.2572
 4331TIP3    H134484   6.616   4.267  12.108  2.0849 -1.6882  1.3744
 4331TIP3    H234485   6.611   4.410  12.059 -1.5365 -2.2712 -0.0338
 4332TIP3   OH234486   2.749   4.828   1.098  0.7394 -0.4626 -0.3186
 4332TIP3    H134487   2.690   4.766   1.141  0.7296  0.7437  1.4412
 4332TIP3    H234488   2.707   4.847   1.014 -0.1793 -1.4041 -0.0796
 4333TIP3   OH234489   1.402   0.285   1.410  0.4549  0.2271  0.0982
 4333TIP3    H134490   1.460   0.242   1.473  1.3223  1.0830 -0.1046
 4333TIP3    H234491   1.321   0.300   1.459  0.8094  0.0759  0.7385
 4334TIP3   OH234492   6.687   1.295   4.084 -0.5835 -0.5828  0.3248
 4334TIP3    H134493   6.770   1.272   4.043 -1.6559 -0.1757 -2.2379
 4334TIP3    H234494   6.708   1.313   4.175  2.0256 -1.0422 -0.1546
 4335TIP3   OH234495   4.392   1.924   2.679 -0.0663  0.0828  0.1918
 4335TIP3    H134496   4.308   1.882   2.665  0.5919 -1.4173  0.6872
 4335TIP3    H234497   4.450   1.854   2.707  1.1313  1.2622  0.7273
 4336TIP3   OH234498   6.586   1.274   4.934  0.5043 -0.2647 -0.3645
 4336TIP3    H134499   6.621   1.266   5.023  0.4373  1.8246 -0.1207
 4336TIP3    H234500   6.633   1.209   4.883  0.6399 -1.3972  1.1714
 4337TIP3   OH234501   0.313   4.271   0.063 -0.3155 -0.0188 -0.5461
 4337TIP3    H134502   0.266   4.288  -0.019  0.1525 -0.1386 -0.8429
 4337TIP3    H234503   0.403   4.296   0.044  0.1088 -1.5224 -0.5594
 4338TIP3   OH234504   3.325   4.845   0.269 -0.0993  0.1510  0.3600
 4338TIP3    H134505   3.308   4.915   0.207  0.2944 -0.4646 -0.4445
 4338TIP3    H234506   3.242   4.832   0.315  0.0044  1.5724  0.9523
 4339TIP3   OH234507   2.947   0.911   2.732  0.4388 -0.3026 -0.2750
 4339TIP3    H134508   2.981   0.823   2.713 -1.4437 -1.6580  2.3259
 4339TIP3    H234509   2.860   0.913   2.693  1.2460  1.1807 -2.0874
 4340TIP3   OH234510   3.021   1.357  12.191  0.2782  0.6937  0.3436
 4340TIP3    H134511   2.930   1.344  12.167  0.6481 -1.5733  0.0639
 4340TIP3    H234512   3.071   1.332  12.113  1.1350  2.1445  0.4056
 4341TIP3   OH234513   1.868   3.963  15.239 -0.6691 -0.5339 -0.4001
 4341TIP3    H134514   1.786   3.992  15.278 -0.4717  1.8649 -1.6467
 4341TIP3    H234515   1.925   3.945  15.314 -1.3578  0.7408  0.4425
 4342TIP3   OH234516   4.355   3.106  15.889 -0.4184 -0.3175  0.2270
 4342TIP3    H134517   4.380   3.121  15.798  1.1454 -0.0944  0.6826
 4342TIP3    H234518   4.264   3.135  15.894 -0.6062 -0.6091 -1.3244
 4343TIP3   OH234519   1.703   5.427  10.867 -0.4779 -0.0552  0.4290
 4343TIP3    H134520   1.653   5.345  10.873  0.0810 -0.5697 -1.6487
 4343TIP3    H234521   1.638   5.493  10.841  0.0241 -0.9106 -3.2551
 4344TIP3   OH234522   0.340   3.219   6.765 -0.3460  0.1648  0.0879
 4344TIP3    H134523   0.365   3.128   6.780  2.5225  1.0442  0.8714
 4344TIP3    H234524   0.312   3.251   6.851  0.5404  0.5727  0.2295
 4345TIP3   OH234525   1.469   6.752  15.807  0.3113  0.8740 -0.5602
 4345TIP3    H134526   1.548   6.789  15.847  0.3007 -1.9242  2.2227
 4345TIP3    H234527   1.494   6.663  15.782 -1.7402  0.2065 -0.3099
 4346TIP3   OH234528   3.314   3.054  12.255  0.0533 -0.1681 -0.0362
 4346TIP3    H134529   3.223   3.044  12.283 -0.1507 -1.6844 -1.1914
 4346TIP3    H234530   3.336   3.144  12.279 -1.6994  0.1741  0.3952
 4347TIP3   OH234531   3.701   4.386   3.097 -0.2760  0.2053 -0.7139
 4347TIP3    H134532   3.630   4.409   3.038 -1.0243  1.2880  0.5729
 4347TIP3    H234533   3.685   4.294   3.119 -0.2852 -0.0510 -1.7657
 4348TIP3   OH234534   0.691   1.695  11.682 -0.2485 -0.1029  0.0423
 4348TIP3    H134535   0.737   1.700  11.598 -2.2808  0.1205 -1.0698
 4348TIP3    H234536   0.760   1.707  11.747  0.9933  2.3664 -1.6457
 4349TIP3   OH234537   0.962   6.175  11.082  0.7127 -0.3548 -0.0094
 4349TIP3    H134538   0.970   6.203  10.991 -0.3815  0.7235  0.2083
 4349TIP3    H234539   1.007   6.243  11.131 -1.2751  0.6442  0.4704
 4350TIP3   OH234540   6.012   0.452  15.253 -0.2363 -0.6278  0.2761
 4350TIP3    H134541   6.019   0.439  15.159  0.6352 -0.3912  0.3005
 4350TIP3    H234542   5.970   0.373  15.286  0.8683 -1.3925 -0.1276
 4351TIP3   OH234543   2.545   2.173   4.345 -0.2551 -0.7052  0.3882
 4351TIP3    H134544   2.501   2.257   4.360  0.2614 -0.5904  1.2859
 4351TIP3    H234545   2.628   2.197   4.304 -0.3375 -0.8144  0.1579
 4352TIP3   OH234546   2.095   6.730   3.843  0.3219  0.4367 -0.0679
 4352TIP3    H134547   2.008   6.694   3.860  0.9729 -2.1969 -1.9147
 4352TIP3    H234548   2.080   6.822   3.823 -2.1126 -0.1296 -1.0025
 4353TIP3   OH234549   1.144   2.546  12.108 -0.1873  0.7535 -0.0826
 4353TIP3    H134550   1.070   2.593  12.069 -1.0185 -0.4567  0.0246
 4353TIP3    H234551   1.105   2.476  12.160  0.9232  2.1878  2.7852
 4354TIP3   OH234552   1.836   4.754  17.244 -0.3157 -0.4437  0.3631
 4354TIP3    H134553   1.850   4.699  17.167  0.0902  1.0533 -0.6512
 4354TIP3    H234554   1.923   4.781  17.271 -0.6216  1.6250 -0.5979
 4355TIP3   OH234555   5.824   3.049   4.375  0.2558 -0.0564 -0.1717
 4355TIP3    H134556   5.734   3.054   4.406  0.7312 -0.9779  1.4175
 4355TIP3    H234557   5.848   3.140   4.354 -1.2219  0.1141 -1.2026
 4356TIP3   OH234558   4.863   2.063  12.403 -0.6294 -0.3935  0.1410
 4356TIP3    H134559   4.797   2.000  12.377  1.7150 -1.2154 -4.3640
 4356TIP3    H234560   4.929   2.011  12.449 -1.3991 -0.1923  1.4895
 4357TIP3   OH234561   6.103   6.400   3.655 -0.0178  0.7962 -0.0535
 4357TIP3    H134562   6.189   6.434   3.633  0.1174  1.2624  1.1684
 4357TIP3    H234563   6.116   6.305   3.663 -0.2685  0.4992 -2.8433
 4358TIP3   OH234564   4.141   3.350   3.715 -0.0123  0.8256  0.1961
 4358TIP3    H134565   4.071   3.288   3.690 -0.3166  1.7849 -1.4158
 4358TIP3    H234566   4.096   3.421   3.759  0.1962  0.4880  0.9618
 4359TIP3   OH234567   2.162   0.160  16.300  0.3719 -0.1025 -0.0359
 4359TIP3    H134568   2.112   0.098  16.246  0.9265  0.1439 -0.8391
 4359TIP3    H234569   2.109   0.240  16.298 -0.6328 -0.7129  1.4789
 4360TIP3   OH234570   6.603   6.689   0.708  0.3658 -0.1115 -0.0309
 4360TIP3    H134571   6.509   6.705   0.721  0.0188 -1.5100 -0.7566
 4360TIP3    H234572   6.638   6.679   0.797  0.1045  1.8296  0.3189
 4361TIP3   OH234573   2.233   5.714   5.240 -0.1285 -0.6102  0.4419
 4361TIP3    H134574   2.261   5.657   5.313  0.9068  0.8611  1.2176
 4361TIP3    H234575   2.250   5.803   5.272 -1.3491  0.1199 -0.9219
 4362TIP3   OH234576   4.422   4.844  14.744 -0.0028  0.0826  0.0211
 4362TIP3    H134577   4.486   4.783  14.708  0.9610  1.1983 -0.1721
 4362TIP3    H234578   4.409   4.909  14.676 -0.4417  0.5298  0.5266
 4363TIP3   OH234579   0.161   3.375  16.684 -0.3782 -0.6633 -0.2999
 4363TIP3    H134580   0.193   3.392  16.773  1.2218 -0.5022 -0.8873
 4363TIP3    H234581   0.082   3.428  16.676 -0.8238 -1.0947  1.2077
 4364TIP3   OH234582   2.859   1.509   2.138 -0.2676 -0.2720  0.2946
 4364TIP3    H134583   2.788   1.447   2.155  0.5753 -1.2131  0.4554
 4364TIP3    H234584   2.938   1.454   2.133  1.0903  1.1528  4.1729
 4365TIP3   OH234585   3.853   3.586  10.428  0.1227  0.5931  1.2104
 4365TIP3    H134586   3.881   3.677  10.423  0.3561  0.5471  1.6162
 4365TIP3    H234587   3.934   3.535  10.416  0.2249  0.4583  2.4176
 4366TIP3   OH234588   2.433   5.207  14.720  0.2445 -0.0523 -0.0866
 4366TIP3    H134589   2.432   5.211  14.815 -0.1744 -0.9272 -0.0503
 4366TIP3    H234590   2.348   5.168  14.697 -0.1855  1.2916 -0.8678
 4367TIP3   OH234591   2.935   4.920  14.922 -0.2529 -1.1264 -0.0380
 4367TIP3    H134592   2.966   4.940  14.833  1.1682 -0.0721  0.6680
 4367TIP3    H234593   3.011   4.883  14.966 -0.4288  0.0485  1.2746
 4368TIP3   OH234594   3.486   4.934  14.021 -0.2708  0.4019 -0.1796
 4368TIP3    H134595   3.481   4.928  14.117  0.6593 -0.1693 -0.1593
 4368TIP3    H234596   3.511   5.024  14.004  0.6008  0.2294  0.1647
 4369TIP3   OH234597   1.793   0.747  10.816  0.4831 -0.6279 -0.0174
 4369TIP3    H134598   1.850   0.692  10.762 -1.0236 -0.8140 -1.4387
 4369TIP3    H234599   1.711   0.698  10.822 -0.0605  0.3629  0.6884
 4370TIP3   OH234600   4.012   6.356   0.503 -0.5435  0.3084  0.3145
 4370TIP3    H134601   4.029   6.450   0.497  0.8161 -0.0504 -2.0284
 4370TIP3    H234602   3.920   6.346   0.478 -0.4947  0.9478 -0.1170
 4371TIP3   OH234603   0.560   3.636  14.406  0.1113 -0.0634 -0.0488
 4371TIP3    H134604   0.547   3.730  14.389  2.8943  0.0272 -1.9064
 4371TIP3    H234605   0.644   3.631  14.451  1.3174 -1.8378 -2.3836
 4372TIP3   OH234606   4.003   5.268   0.616 -0.4433  0.2945 -0.2190
 4372TIP3    H134607   3.932   5.207   0.634  1.0274 -1.1174  0.9282
 4372TIP3    H234608   4.034   5.244   0.528  0.7022 -1.2345  0.5731
 4373TIP3   OH234609   1.651   0.099   3.960 -0.2836 -0.4379  0.0614
 4373TIP3    H134610   1.725   0.078   4.017 -0.0196  0.3812  0.0236
 4373TIP3    H234611   1.588   0.029   3.977 -0.5187  0.1926  1.9288
 4374TIP3   OH234612   3.679   2.679  15.408 -0.1368  0.5482  0.2628
 4374TIP3    H134613   3.610   2.721  15.458  0.6611  2.9389 -0.5708
 4374TIP3    H234614   3.657   2.585  15.410 -2.3596  1.0666  1.5283
 4375TIP3   OH234615   5.166   5.452   3.371  0.4262  0.0562 -0.7334
 4375TIP3    H134616   5.247   5.499   3.393  0.3582 -1.1083  2.2433
 4375TIP3    H234617   5.195   5.362   3.355 -0.1189 -0.0972 -0.8455
 4376TIP3   OH234618   1.984   2.922   1.230 -0.3372  0.5452 -0.2296
 4376TIP3    H134619   2.031   3.004   1.218 -0.8106  1.0130  1.0599
 4376TIP3    H234620   1.912   2.926   1.167  0.4083  0.5201 -1.1007
 4377TIP3   OH234621   3.138   1.681  13.801  0.0415 -0.3138  0.0546
 4377TIP3    H134622   3.116   1.773  13.793 -0.2276 -0.3361  0.5312
 4377TIP3    H234623   3.075   1.646  13.865 -1.2948 -1.2998 -1.7156
 4378TIP3   OH234624   1.822   4.978   5.308  0.0877  0.7351  0.0897
 4378TIP3    H134625   1.774   5.045   5.259  0.8393  0.6695 -0.7401
 4378TIP3    H234626   1.823   4.902   5.250  1.0187  0.6720  0.1842
 4379TIP3   OH234627   0.641   3.966   5.935 -0.3747 -0.7106  0.1473
 4379TIP3    H134628   0.577   3.937   6.000 -1.4966 -1.6412 -1.3631
 4379TIP3    H234629   0.656   3.889   5.881  2.5794 -0.7370  0.9068
 4380TIP3   OH234630   1.725   4.018   2.588  0.1478  0.3588 -0.2015
 4380TIP3    H134631   1.757   3.976   2.668  0.6461  0.0436 -0.5566
 4380TIP3    H234632   1.786   3.988   2.520 -0.7844 -0.0813 -0.8595
 4381TIP3   OH234633   2.454   2.146  14.446 -0.3099 -0.0304 -0.1507
 4381TIP3    H134634   2.386   2.080  14.458 -1.2451  0.5558 -1.9049
 4381TIP3    H234635   2.434   2.214  14.511  0.9391 -1.6597  1.9732
 4382TIP3   OH234636   2.826   2.252   0.746  0.0534  0.4456 -0.1330
 4382TIP3    H134637   2.853   2.317   0.682  0.5297 -1.9131 -2.4161
 4382TIP3    H234638   2.731   2.261   0.753  0.2739  2.3045  0.6462
 4383TIP3   OH234639   2.765   5.125  14.156 -0.1022  0.2664 -0.7607
 4383TIP3    H134640   2.689   5.136  14.213 -0.8593 -0.1502 -1.6725
 4383TIP3    H234641   2.757   5.195  14.092  0.6897  0.6698 -0.4326
 4384TIP3   OH234642   4.387   3.398   3.791  0.8252 -0.6828  0.1755
 4384TIP3    H134643   4.381   3.354   3.875 -0.1162  0.7622  0.8972
 4384TIP3    H234644   4.303   3.381   3.749  0.0103  1.2861  0.9309
 4385TIP3   OH234645   3.509   0.439   3.069 -0.0213  0.4972  0.7747
 4385TIP3    H134646   3.484   0.465   3.158 -0.4085 -0.8674  1.0713
 4385TIP3    H234647   3.429   0.403   3.032  0.0900  1.2540 -0.2022
 4386TIP3   OH234648   4.279   4.368  13.123 -0.6318  0.0559  0.0903
 4386TIP3    H134649   4.225   4.360  13.044  0.5580 -1.0218 -0.6226
 4386TIP3    H234650   4.340   4.439  13.103  0.0368 -0.5915 -0.1836
 4387TIP3   OH234651   3.670   2.940  17.179 -0.1677 -0.1926  0.8049
 4387TIP3    H134652   3.603   2.942  17.111  1.6346  3.3926 -1.0112
 4387TIP3    H234653   3.658   3.023  17.226  3.1116  0.7002  0.2014
 4388TIP3   OH234654   2.488   2.040  17.114 -0.4480 -0.2410  0.3181
 4388TIP3    H134655   2.570   2.058  17.161  0.6953 -1.3679 -1.2002
 4388TIP3    H234656   2.461   2.126  17.080  0.4823  0.0346  0.2578
 4389TIP3   OH234657   4.916   5.179   1.027 -0.2002 -0.0821 -0.6220
 4389TIP3    H134658   4.896   5.156   0.936 -1.6692 -3.3148  0.4241
 4389TIP3    H234659   4.935   5.095   1.069 -0.0828  1.2835  2.1996
 4390TIP3   OH234660   3.506   6.447   4.882  0.2066  0.5501 -0.2030
 4390TIP3    H134661   3.428   6.398   4.856  1.0668  0.0806 -2.0162
 4390TIP3    H234662   3.540   6.400   4.958  1.3388 -2.0831 -2.2480
 4391TIP3   OH234663   0.991   3.282   2.620 -0.1222  0.3620  0.6443
 4391TIP3    H134664   1.085   3.266   2.632  0.1602  0.4274 -1.2756
 4391TIP3    H234665   0.948   3.218   2.676  1.0659 -1.3122 -0.3218
 4392TIP3   OH234666   0.511   2.227   5.704  0.3602  0.0064 -0.0924
 4392TIP3    H134667   0.482   2.315   5.682  1.7911  0.6312  0.4672
 4392TIP3    H234668   0.517   2.227   5.800  2.1268 -0.1135 -0.1895
 4393TIP3   OH234669   6.516   2.431  14.023  0.2179  0.8771  0.2406
 4393TIP3    H134670   6.536   2.443  13.931  2.2577 -0.0673  0.5286
 4393TIP3    H234671   6.558   2.505  14.067  2.0720 -0.4281  0.7231
 4394TIP3   OH234672   3.793   2.666   5.123  0.1769  0.0046  0.3446
 4394TIP3    H134673   3.729   2.686   5.055  1.7607  1.7909 -0.6631
 4394TIP3    H234674   3.807   2.572   5.115  0.4757  0.2128 -1.9302
 4395TIP3   OH234675   6.701   5.668  17.142  0.1937  0.2978 -0.1060
 4395TIP3    H134676   6.656   5.593  17.102  2.3229 -1.9223  1.5581
 4395TIP3    H234677   6.670   5.669  17.232  1.4395  0.4089  0.3207
 4396TIP3   OH234678   0.332   5.052   2.303 -0.2457  0.5587 -0.1031
 4396TIP3    H134679   0.324   4.993   2.378 -0.0442  0.8555  0.1570
 4396TIP3    H234680   0.402   5.113   2.328 -0.2156  0.6943 -0.5084
 4397TIP3   OH234681   5.953   3.901  10.876  0.2285  0.0196 -0.9252
 4397TIP3    H134682   5.862   3.928  10.861  0.1732 -0.0889 -0.7949
 4397TIP3    H234683   5.964   3.825  10.819  0.2346  0.0268 -0.9328
 4398TIP3   OH234684   5.851   1.692   3.261 -0.0074 -0.3590 -0.2832
 4398TIP3    H134685   5.767   1.685   3.307  0.3889  0.1440  0.5283
 4398TIP3    H234686   5.831   1.746   3.184 -0.3101  0.2242  0.2020
 4399TIP3   OH234687   5.494   6.210   0.735  0.1519 -0.0161 -0.5462
 4399TIP3    H134688   5.557   6.169   0.794  0.0015  0.5414  0.0138
 4399TIP3    H234689   5.546   6.239   0.660  0.7097  1.1291  0.2589
 4400TIP3   OH234690   1.561   0.719   1.641 -0.3203 -0.4774 -0.2630
 4400TIP3    H134691   1.603   0.636   1.665  0.0012  0.1249  1.3362
 4400TIP3    H234692   1.634   0.775   1.615 -0.4067 -0.3087 -0.1407
 4401TIP3   OH234693   1.993   5.891   4.361  0.5209  0.6094 -0.1848
 4401TIP3    H134694   2.000   5.974   4.407  3.9114  1.5109 -2.1761
 4401TIP3    H234695   2.073   5.844   4.384  0.3417 -0.5963 -1.9376
 4402TIP3   OH234696   6.714   0.058  14.182  0.3162 -0.3627  0.3810
 4402TIP3    H134697   6.745   0.021  14.099  1.3498  2.4973 -0.5612
 4402TIP3    H234698   6.697   0.150  14.163  1.7313  0.6472  3.6449
 4403TIP3   OH234699   2.450   4.661  14.862 -1.0119  0.3694 -0.3981
 4403TIP3    H134700   2.436   4.625  14.775  0.2233  2.9767 -1.7243
 4403TIP3    H234701   2.545   4.675  14.867 -1.0127 -0.1585  1.5312
 4404TIP3   OH234702   4.289   6.179   5.518 -0.2845 -0.9898 -0.2383
 4404TIP3    H134703   4.317   6.230   5.442  1.3244  0.1268  1.0930
 4404TIP3    H234704   4.302   6.088   5.491  0.7076 -0.5912 -1.1556
 4405TIP3   OH234705   6.811   1.502  13.990  0.3721  0.2373 -0.1841
 4405TIP3    H134706   6.729   1.478  14.033  1.9156 -3.1197  1.0118
 4405TIP3    H234707   6.795   1.488  13.896 -0.4793 -0.1254  0.0160
 4406TIP3   OH234708   0.378   6.612   5.015 -0.3698  0.3164 -0.0188
 4406TIP3    H134709   0.333   6.669   5.078 -1.3252 -0.5161  0.0788
 4406TIP3    H234710   0.362   6.653   4.930  1.3442  1.7125  0.3142
 4407TIP3   OH234711   2.104   4.267  13.200 -0.2650  0.2389  0.8681
 4407TIP3    H134712   2.050   4.208  13.149 -0.6243  0.5540  0.8848
 4407TIP3    H234713   2.071   4.355  13.180 -0.1105  0.3960  1.2862
 4408TIP3   OH234714   4.350   3.820   3.827 -0.5770 -0.1224  0.3013
 4408TIP3    H134715   4.351   3.910   3.794 -1.3752 -0.1546  0.1810
 4408TIP3    H234716   4.359   3.765   3.749 -0.9308 -0.1600  0.2829
 4409TIP3   OH234717   3.078   2.484   1.643  0.0845  0.6307 -0.4274
 4409TIP3    H134718   2.985   2.467   1.657 -0.2007  2.4404  0.0502
 4409TIP3    H234719   3.080   2.548   1.571  0.9411  0.7636 -0.2921
 4410TIP3   OH234720   5.993   1.017  12.453  0.6132  0.1751  0.3489
 4410TIP3    H134721   5.991   1.012  12.358 -1.2565 -2.2346  0.4686
 4410TIP3    H234722   6.077   0.977  12.477  0.9471  0.5090 -0.2513
 4411TIP3   OH234723   2.451   2.463  12.533 -1.0232  0.2657 -0.5190
 4411TIP3    H134724   2.475   2.518  12.608 -2.7894 -0.4873  0.6199
 4411TIP3    H234725   2.531   2.460  12.479 -0.0755  1.7171  0.7595
 4412TIP3   OH234726   6.534   5.913  11.606  0.3489 -0.9734 -0.3482
 4412TIP3    H134727   6.516   6.003  11.633 -0.3028 -1.3524  0.4733
 4412TIP3    H234728   6.448   5.877  11.582  0.8072 -0.8655 -2.2753
 4413TIP3   OH234729   3.215   0.472   1.390  0.1332 -0.0336  0.2549
 4413TIP3    H134730   3.146   0.537   1.379 -0.0329  0.0505  1.6118
 4413TIP3    H234731   3.260   0.498   1.471  2.2090  0.3164 -0.9724
 4414TIP3   OH234732   5.354   1.349  13.457 -0.4134  0.8060 -0.2847
 4414TIP3    H134733   5.421   1.293  13.496  0.8940  2.4439 -0.1158
 4414TIP3    H234734   5.272   1.318  13.496  0.1981 -1.2963 -0.5817
 4415TIP3   OH234735   4.282   5.863  12.593  0.1515  0.1832  0.0881
 4415TIP3    H134736   4.207   5.923  12.594  0.2324  0.2735  0.5930
 4415TIP3    H234737   4.248   5.782  12.633  0.4731  0.4047  0.8213
 4416TIP3   OH234738   5.716   0.791  16.208  0.1148  0.7279 -0.0933
 4416TIP3    H134739   5.711   0.779  16.113  0.1783 -0.5305  0.0558
 4416TIP3    H234740   5.633   0.835  16.231 -0.6728 -0.5090 -0.5101
 4417TIP3   OH234741   0.396   5.783   0.608  0.2301 -0.2717 -0.5496
 4417TIP3    H134742   0.418   5.718   0.675  0.2996 -1.6886 -1.9153
 4417TIP3    H234743   0.325   5.835   0.647  2.0756  0.6777  1.6710
 4418TIP3   OH234744   4.280   0.474   3.490  0.3997 -0.0103  0.4593
 4418TIP3    H134745   4.302   0.442   3.403  0.6724  0.4971  0.3385
 4418TIP3    H234746   4.268   0.395   3.543 -2.0558 -0.3784 -0.5838
 4419TIP3   OH234747   1.128   4.330  16.701  0.4969 -0.0516 -0.1096
 4419TIP3    H134748   1.088   4.243  16.704  0.8689 -0.2781 -1.3641
 4419TIP3    H234749   1.162   4.343  16.790 -0.3230 -0.8110  0.3367
 4420TIP3   OH234750   1.144   1.222  10.993  0.4411  0.0630 -0.0526
 4420TIP3    H134751   1.209   1.152  10.991  0.1936 -0.1680 -0.0631
 4420TIP3    H234752   1.063   1.178  11.020  0.2898  0.3480 -0.0437
 4421TIP3   OH234753   0.696   3.110  12.092  0.2026 -0.1002  0.0821
 4421TIP3    H134754   0.681   3.203  12.106 -1.6038 -0.2208 -0.9985
 4421TIP3    H234755   0.685   3.097  11.998  0.8240 -1.3385  0.1648
 4422TIP3   OH234756   1.400   6.021   6.103  0.0534  0.0635  0.3629
 4422TIP3    H134757   1.380   5.973   6.183  0.3419  0.6498  0.7964
 4422TIP3    H234758   1.332   6.089   6.098 -0.9040 -0.9545 -0.7376
 4423TIP3   OH234759   4.973   2.265   0.002  0.0940 -0.0323  0.5979
 4423TIP3    H134760   4.914   2.248  -0.071  0.3339  0.0225  0.3917
 4423TIP3    H234761   5.032   2.189   0.003 -1.5365 -1.3344  2.3454
 4424TIP3   OH234762   0.208   6.542  14.885  0.5715  0.1150  0.1897
 4424TIP3    H134763   0.179   6.569  14.798 -1.9742  0.4110  1.0816
 4424TIP3    H234764   0.271   6.471  14.869 -1.7548 -1.5713 -1.8492
 4425TIP3   OH234765   5.770   2.053   2.173 -0.1434  0.1077  0.4583
 4425TIP3    H134766   5.744   1.974   2.220  0.1459  0.8188  1.8358
 4425TIP3    H234767   5.731   2.125   2.223 -0.0572  0.8637 -0.5438
 4426TIP3   OH234768   2.914   6.369  10.832 -0.6263  0.3832  0.3723
 4426TIP3    H134769   2.864   6.292  10.860 -0.8096  0.2436 -0.3089
 4426TIP3    H234770   2.944   6.346  10.743 -1.2377  1.3635 -0.0895
 4427TIP3   OH234771   0.435   2.037  12.121  0.3042  0.2426 -0.4435
 4427TIP3    H134772   0.349   2.043  12.078 -0.6046  1.4518  1.4763
 4427TIP3    H234773   0.456   1.944  12.120 -2.2537 -0.4049  1.3393
 4428TIP3   OH234774   5.198   2.904  16.323  0.5491  0.3336  0.1339
 4428TIP3    H134775   5.256   2.976  16.345  0.3090  0.6474 -0.2474
 4428TIP3    H234776   5.121   2.917  16.377 -0.0003  1.0491 -0.7979
 4429TIP3   OH234777   4.360   6.295  14.323  0.0141  0.0656  0.2720
 4429TIP3    H134778   4.423   6.367  14.323  0.0703  0.0175 -0.1424
 4429TIP3    H234779   4.414   6.216  14.316 -0.1776  0.0992 -1.6352
 4430TIP3   OH234780   5.177   4.544   5.723  0.3102  0.0858  0.1926
 4430TIP3    H134781   5.114   4.589   5.667  0.9524  1.8338  0.8524
 4430TIP3    H234782   5.145   4.559   5.812  1.4688  0.7336  0.5124
 4431TIP3   OH234783   1.333   4.924  10.359  0.2002 -0.2757 -0.4385
 4431TIP3    H134784   1.421   4.952  10.333  0.5979 -0.9559  0.1237
 4431TIP3    H234785   1.320   4.841  10.313  0.1423 -0.5260  0.0254
 4432TIP3   OH234786   0.559   1.629  15.674  0.6600 -0.4842 -0.2819
 4432TIP3    H134787   0.508   1.549  15.684 -0.0750  0.1452  1.1929
 4432TIP3    H234788   0.619   1.611  15.602  0.0338 -2.1120 -0.4058
 4433TIP3   OH234789   1.718   1.494   3.801  0.3077  0.2292  0.0504
 4433TIP3    H134790   1.783   1.435   3.762  1.2153  2.2919 -1.6803
 4433TIP3    H234791   1.659   1.516   3.729 -0.7905  0.4362  0.9881
 4434TIP3   OH234792   6.478   6.305  16.317 -0.0587  0.2111 -0.1179
 4434TIP3    H134793   6.467   6.232  16.257 -0.2079 -0.4212  0.6664
 4434TIP3    H234794   6.504   6.379  16.262  0.8029 -0.6153 -0.8234
 4435TIP3   OH234795   2.434   0.073  13.273 -0.3609  0.1034  0.3388
 4435TIP3    H134796   2.411   0.161  13.245 -0.5800  0.0800  0.4483
 4435TIP3    H234797   2.357   0.041  13.319 -1.3164 -1.1773 -2.0725
 4436TIP3   OH234798   1.441   5.964  11.936  0.0846  0.0350  0.0085
 4436TIP3    H134799   1.512   5.961  11.873 -0.9735 -0.1588 -1.2093
 4436TIP3    H234800   1.455   6.046  11.984  1.7595 -0.5671  0.5683
 4437TIP3   OH234801   2.483   0.997   1.126 -0.0628  0.3976 -0.2614
 4437TIP3    H134802   2.563   0.980   1.176 -1.6425 -1.6176  1.6693
 4437TIP3    H234803   2.426   1.045   1.185 -0.8883  0.4672 -1.0950
 4438TIP3   OH234804   4.499   6.713   4.339 -0.1137 -0.4128  0.5470
 4438TIP3    H134805   4.536   6.800   4.322  0.8200 -0.3824  2.4999
 4438TIP3    H234806   4.412   6.730   4.374 -0.3317 -0.3122 -0.0395
 4439TIP3   OH234807   4.493   3.739  13.449 -0.5448  0.2069 -0.2316
 4439TIP3    H134808   4.477   3.666  13.508 -0.4500 -0.3515 -0.9018
 4439TIP3    H234809   4.585   3.730  13.423 -0.1913  1.2428  0.6144
 4440TIP3   OH234810   0.745   1.980   3.281  0.1533  0.6425  0.1192
 4440TIP3    H134811   0.657   1.992   3.317  0.8669  0.3426  2.0414
 4440TIP3    H234812   0.770   2.066   3.248 -1.2978  0.4657 -1.4979
 4441TIP3   OH234813   2.177   0.680   1.259  0.2843  0.3760 -0.0848
 4441TIP3    H134814   2.233   0.628   1.317 -0.4329 -0.1470  0.1386
 4441TIP3    H234815   2.235   0.710   1.190  0.7646 -0.4549 -0.0405
 4442TIP3   OH234816   2.798   0.241   3.271 -0.0353 -0.3190  0.6592
 4442TIP3    H134817   2.812   0.185   3.347  0.0602 -2.1580 -0.6942
 4442TIP3    H234818   2.884   0.246   3.228  0.2309  1.8030  1.3766
 4443TIP3   OH234819   0.342   3.162   3.517 -0.2547  0.2934 -0.4472
 4443TIP3    H134820   0.269   3.183   3.458 -0.3084 -2.7068 -1.5255
 4443TIP3    H234821   0.416   3.211   3.481 -0.9984  0.8999 -1.1911
 4444TIP3   OH234822   1.499   2.913   1.000 -0.2575  0.0903  0.2110
 4444TIP3    H134823   1.521   2.828   0.963 -0.2952  0.7671 -1.4086
 4444TIP3    H234824   1.404   2.919   0.995 -0.4036 -0.4409  1.8756
 4445TIP3   OH234825   0.207   3.742   0.014  0.8316  0.0877  0.2380
 4445TIP3    H134826   0.185   3.722  -0.077 -1.7762 -1.4449  1.1545
 4445TIP3    H234827   0.297   3.712   0.024  1.0085 -0.1048 -1.7133
 4446TIP3   OH234828   2.848   1.663   2.723 -0.2388 -0.1852 -0.0435
 4446TIP3    H134829   2.836   1.729   2.655  0.7102 -0.4283 -0.4584
 4446TIP3    H234830   2.857   1.713   2.804 -0.2160  0.1657 -0.2623
 4447TIP3   OH234831   6.442   6.615  12.956 -0.0047  0.4924 -0.1899
 4447TIP3    H134832   6.436   6.523  12.931  1.8951 -0.3839  2.3738
 4447TIP3    H234833   6.492   6.656  12.885  2.5769 -1.2945  0.5381
 4448TIP3   OH234834   5.897   4.767   3.937 -0.1950  0.2609  0.7067
 4448TIP3    H134835   5.848   4.792   4.015 -0.4268  0.3950  0.5217
 4448TIP3    H234836   5.863   4.681   3.913 -0.4803  0.4385  0.4669
 4449TIP3   OH234837   4.640   3.833  12.561  0.0289  0.0365  0.3003
 4449TIP3    H134838   4.684   3.772  12.502  0.4080  2.1711 -1.6837
 4449TIP3    H234839   4.567   3.783  12.597  0.9341 -1.8927 -0.4698
 4450TIP3   OH234840   0.090   0.512  13.715  0.5393  0.8250 -0.3560
 4450TIP3    H134841  -0.004   0.497  13.725  0.1768  2.9989 -0.1931
 4450TIP3    H234842   0.104   0.601  13.749  3.0459 -0.3371  1.8255
 4451TIP3   OH234843   3.079   5.800  15.397 -0.6975 -0.2899  0.2514
 4451TIP3    H134844   3.152   5.810  15.458  0.9267 -0.5878 -1.5763
 4451TIP3    H234845   3.046   5.712  15.412 -0.4303 -0.2895  0.8251
 4452TIP3   OH234846   4.796   1.309  15.069 -0.0608  0.7962 -0.1126
 4452TIP3    H134847   4.737   1.336  14.999 -0.5011  1.5354  0.5429
 4452TIP3    H234848   4.825   1.390  15.110  0.7602  0.4003  0.1022
 4453TIP3   OH234849   1.379   1.362  13.729  0.6163  0.1078  0.1567
 4453TIP3    H134850   1.297   1.318  13.751 -0.7843  1.8608 -1.4187
 4453TIP3    H234851   1.425   1.300  13.672 -0.2959 -0.2907 -0.1554
 4454TIP3   OH234852   1.702   5.074   5.547  0.5610 -0.1848  0.4719
 4454TIP3    H134853   1.751   5.154   5.565  0.2400 -0.2056  1.4331
 4454TIP3    H234854   1.746   5.035   5.471  1.1894  0.5014  0.4868
 4455TIP3   OH234855   4.260   5.127  14.553  0.1605  0.4083 -0.5154
 4455TIP3    H134856   4.338   5.099  14.505 -0.6613 -0.8420 -1.1600
 4455TIP3    H234857   4.254   5.066  14.627 -0.0166  0.7289 -0.2607
 4456TIP3   OH234858   6.645   6.030  13.235 -0.2031 -0.2160 -0.4750
 4456TIP3    H134859   6.593   5.951  13.246  0.1427 -0.4404 -0.4291
 4456TIP3    H234860   6.675   6.026  13.144  1.8196 -1.3824  0.2111
 4457TIP3   OH234861   2.874   4.677   5.939 -0.3627  0.1238  0.4213
 4457TIP3    H134862   2.893   4.771   5.941  1.9308 -0.3182  2.2744
 4457TIP3    H234863   2.779   4.672   5.924 -0.1585  2.6366 -2.1160
 4458TIP3   OH234864   4.552   0.696   4.167 -0.3726 -0.4989  0.4892
 4458TIP3    H134865   4.562   0.626   4.232 -0.1170  0.0015  0.9988
 4458TIP3    H234866   4.583   0.658   4.085 -1.8097 -1.5297  0.4022
 4459TIP3   OH234867   3.675   1.512   1.497 -0.0289  0.0245 -0.2446
 4459TIP3    H134868   3.656   1.451   1.425 -0.3558 -0.7843  0.5083
 4459TIP3    H234869   3.632   1.593   1.472  0.3840 -0.0529 -1.2544
 4460TIP3   OH234870   4.558   3.181   2.705  0.1921 -0.0017  0.8809
 4460TIP3    H134871   4.514   3.166   2.789  1.4092 -0.6960  1.4090
 4460TIP3    H234872   4.650   3.159   2.722  1.3162  4.0534  0.5578
 4461TIP3   OH234873   5.344   5.687   7.005  0.5669  0.4810  0.1202
 4461TIP3    H134874   5.419   5.633   7.030 -0.3658 -2.2535 -2.7191
 4461TIP3    H234875   5.379   5.776   7.002  3.5569 -0.6642 -0.4755
 4462TIP3   OH234876   4.662   2.435   1.971  0.0123  0.1307 -0.1783
 4462TIP3    H134877   4.675   2.500   1.902 -1.1777 -1.5469 -2.0467
 4462TIP3    H234878   4.676   2.351   1.927 -2.1850 -1.0369  1.2755
 4463TIP3   OH234879   1.514   0.496  13.697 -0.1122 -0.2973 -0.5054
 4463TIP3    H134880   1.480   0.466  13.782  0.4692  0.0388 -0.1470
 4463TIP3    H234881   1.485   0.430  13.635  0.1988 -1.0174  0.1053
 4464TIP3   OH234882   3.190   3.514   3.925  0.0738 -0.1068 -0.3963
 4464TIP3    H134883   3.172   3.465   4.005 -0.8116 -0.2554 -0.6849
 4464TIP3    H234884   3.285   3.529   3.927  0.7862 -4.0172 -1.5569
 4465TIP3   OH234885   1.078   5.183  13.907 -0.3809 -0.6034  0.1117
 4465TIP3    H134886   1.023   5.245  13.859  0.9336 -1.1512 -2.1736
 4465TIP3    H234887   1.057   5.098  13.869  0.7236 -1.0497  0.4768
 4466TIP3   OH234888   2.911   3.519   6.201 -0.9669 -0.4149  0.5155
 4466TIP3    H134889   2.874   3.595   6.158 -1.0154 -0.2619  0.8214
 4466TIP3    H234890   2.976   3.485   6.139 -0.0619  0.6047  0.8876
 4467TIP3   OH234891   0.616   1.577  17.154 -0.9926 -0.1505  0.1782
 4467TIP3    H134892   0.525   1.553  17.166 -0.9638 -0.9522 -1.1752
 4467TIP3    H234893   0.616   1.635  17.078 -0.2514 -1.0239 -0.5027
 4468TIP3   OH234894   0.372   2.448  11.271  0.2516  0.1799  0.3950
 4468TIP3    H134895   0.390   2.472  11.180  1.3188  0.6690  0.7201
 4468TIP3    H234896   0.360   2.353  11.268 -2.6407  0.5389 -0.6864
 4469TIP3   OH234897   6.168   4.597   0.880  0.0077  0.4877 -0.8619
 4469TIP3    H134898   6.209   4.520   0.842  1.9477 -0.4979  3.0166
 4469TIP3    H234899   6.074   4.582   0.867  0.3645 -2.3085 -0.6093
 4470TIP3   OH234900   1.828   4.241  14.181  0.1034  0.1361 -0.0706
 4470TIP3    H134901   1.743   4.198  14.178 -0.0813  0.3436  1.5244
 4470TIP3    H234902   1.888   4.181  14.136 -0.8689 -0.0134 -1.1891
 4471TIP3   OH234903   1.024   0.550  13.639  0.1999  0.4115  0.4639
 4471TIP3    H134904   0.955   0.602  13.680  2.0011  3.3346 -0.0573
 4471TIP3    H234905   1.040   0.593  13.554  1.1907 -1.4747 -0.3454
 4472TIP3   OH234906   6.371   0.937  13.255  0.0523  0.7001  0.2323
 4472TIP3    H134907   6.323   0.867  13.298  0.8352  1.6190  2.7060
 4472TIP3    H234908   6.463   0.911  13.261  0.3958  2.1481  1.6642
 4473TIP3   OH234909   3.286   1.933  14.966  0.2232  0.0220 -0.0588
 4473TIP3    H134910   3.201   1.972  14.947 -1.0643 -2.7328 -0.2005
 4473TIP3    H234911   3.349   1.991  14.925 -1.7477  0.8125 -2.0455
 4474TIP3   OH234912   5.639   3.935   1.648 -0.6139  0.0913  0.4602
 4474TIP3    H134913   5.608   3.946   1.738 -0.7528  0.5702  0.3564
 4474TIP3    H234914   5.644   3.840   1.636  1.9569  0.0056  1.8417
 4475TIP3   OH234915   3.927   1.902  16.658  0.3173 -0.3849  0.0619
 4475TIP3    H134916   3.923   1.895  16.563  1.6441 -1.7958  0.0794
 4475TIP3    H234917   4.000   1.962  16.675  0.9509 -1.1893  0.2035
 4476TIP3   OH234918   1.424   3.925   2.208 -0.0580  0.0765  0.1044
 4476TIP3    H134919   1.418   3.830   2.218 -2.7028  0.3298  1.1263
 4476TIP3    H234920   1.347   3.950   2.157 -1.8297  2.1254  3.5464
 4477TIP3   OH234921   4.170   5.563  14.197 -0.0729 -0.2870 -0.0015
 4477TIP3    H134922   4.168   5.557  14.101  1.3485 -0.7414 -0.0171
 4477TIP3    H234923   4.106   5.498  14.226  0.9992 -1.6517 -0.6157
 4478TIP3   OH234924   0.052   3.181  16.384  0.5832  0.5032  0.4233
 4478TIP3    H134925   0.016   3.156  16.469  1.5750  0.8442  0.9467
 4478TIP3    H234926   0.113   3.110  16.362 -1.6730 -0.9847 -1.2915
 4479TIP3   OH234927   5.202   4.532   3.908 -0.0495  0.4501 -0.1660
 4479TIP3    H134928   5.293   4.513   3.930  0.5388  0.5950 -2.3749
 4479TIP3    H234929   5.190   4.624   3.932  1.0628  1.0739 -1.9912
 4480TIP3   OH234930   6.001   4.289   3.418 -0.0542 -0.4949 -0.1248
 4480TIP3    H134931   6.040   4.373   3.395 -1.3477 -0.0444 -0.6737
 4480TIP3    H234932   6.072   4.242   3.462  0.2433  1.4112  1.4913
 4481TIP3   OH234933   3.252   2.761   4.099 -0.3525 -0.4120  0.2766
 4481TIP3    H134934   3.289   2.840   4.138  0.0477 -0.7963  0.6739
 4481TIP3    H234935   3.326   2.700   4.094 -0.2382 -0.1627 -1.6454
 4482TIP3   OH234936   1.241   2.503   2.603 -0.2133 -0.7514  0.0457
 4482TIP3    H134937   1.272   2.576   2.658 -0.8497  0.9520 -1.7789
 4482TIP3    H234938   1.194   2.446   2.663 -1.3743  1.3457  1.2026
 4483TIP3   OH234939   6.346   2.069  12.312  0.3302 -0.3686 -0.0938
 4483TIP3    H134940   6.292   2.097  12.238  1.4189 -0.1908 -0.8305
 4483TIP3    H234941   6.436   2.084  12.283  0.8013 -1.3127  0.8584
 4484TIP3   OH234942   2.592   0.576   2.653 -0.2221  0.1242  0.0000
 4484TIP3    H134943   2.580   0.523   2.574  0.6265  0.2288 -0.1967
 4484TIP3    H234944   2.622   0.513   2.719  0.8471  0.3641 -0.2505
 4485TIP3   OH234945   5.010   1.250   1.641  0.4360 -0.5914 -0.2614
 4485TIP3    H134946   4.954   1.187   1.687 -1.4622  0.5251 -0.9752
 4485TIP3    H234947   5.052   1.301   1.710  0.0240 -0.9843  0.2775
 4486TIP3   OH234948   5.894   2.699  14.164 -0.4319 -0.6464  0.7707
 4486TIP3    H134949   5.875   2.665  14.252 -3.9738 -1.6065 -0.2832
 4486TIP3    H234950   5.860   2.788  14.165  1.6152  0.1638  1.0341
 4487TIP3   OH234951   5.662   1.782  11.955 -0.2435  0.1111  0.2367
 4487TIP3    H134952   5.591   1.785  12.018  0.0003 -0.8399  0.5705
 4487TIP3    H234953   5.637   1.845  11.887  0.4802  2.6650  2.2773
 4488TIP3   OH234954   0.467   5.094   5.750 -0.1915 -0.1491  0.0490
 4488TIP3    H134955   0.439   5.014   5.705 -0.5076  1.1374 -2.1059
 4488TIP3    H234956   0.551   5.071   5.790 -1.2873 -2.1699  1.2523
 4489TIP3   OH234957   0.551   1.215   5.734 -0.1521 -0.0404 -0.3301
 4489TIP3    H134958   0.469   1.203   5.782 -0.7170  1.1731 -0.9905
 4489TIP3    H234959   0.535   1.289   5.675  0.0641 -2.3023 -3.3787
 4490TIP3   OH234960   3.040   5.160  11.438  0.3657  0.5354  0.0605
 4490TIP3    H134961   3.066   5.108  11.514 -1.1746  2.6722  2.1333
 4490TIP3    H234962   3.097   5.237  11.441 -1.6411  2.0534  0.8178
 4491TIP3   OH234963   1.024   4.053  10.604  0.3460 -0.2382 -0.1571
 4491TIP3    H134964   1.080   3.976  10.610 -0.1903 -0.6360 -0.1691
 4491TIP3    H234965   1.033   4.095  10.689  0.7544 -0.2335 -0.2018
 4492TIP3   OH234966   3.101   5.213  13.594  0.0283 -0.2754  0.5902
 4492TIP3    H134967   3.140   5.257  13.519 -0.1847  0.2601  0.7887
 4492TIP3    H234968   3.173   5.200  13.655  0.0365  0.0421  0.6456
 4493TIP3   OH234969   6.212   3.834   4.987 -0.2194  0.3954  0.2030
 4493TIP3    H134970   6.292   3.793   4.955 -0.2702  0.8742 -0.5444
 4493TIP3    H234971   6.196   3.793   5.072  0.1762 -0.5359 -0.1705
 4494TIP3   OH234972   0.330   5.311  15.583  0.7062 -0.0548  0.1496
 4494TIP3    H134973   0.406   5.359  15.552  0.9838 -0.2850  0.4702
 4494TIP3    H234974   0.335   5.317  15.679  0.5234 -0.3834  0.1824
 4495TIP3   OH234975   1.226   5.802   1.388  0.3758  0.3760 -0.7127
 4495TIP3    H134976   1.233   5.881   1.333  0.9332  0.0358 -1.1367
 4495TIP3    H234977   1.186   5.737   1.331  0.7666  0.0799 -0.6524
 4496TIP3   OH234978   4.344   4.652  13.796 -0.2589 -0.2033  0.0509
 4496TIP3    H134979   4.314   4.571  13.754  0.8229  0.2841 -1.6733
 4496TIP3    H234980   4.319   4.641  13.888 -2.1318 -1.5336 -0.5756
 4497TIP3   OH234981   6.412   4.904   1.725 -0.4196  0.1686  0.3360
 4497TIP3    H134982   6.419   4.810   1.710  2.3920  0.5660 -1.1769
 4497TIP3    H234983   6.468   4.921   1.800 -1.8202  0.4956  1.3223
 4498TIP3   OH234984   5.719   5.243   0.892 -0.7748  0.2209  0.3421
 4498TIP3    H134985   5.652   5.248   0.959  0.1202 -1.2144  1.3594
 4498TIP3    H234986   5.779   5.315   0.913 -0.0823 -0.6961  1.5428
 4499TIP3   OH234987   2.539   2.604  12.726 -0.1136  0.1528 -0.3949
 4499TIP3    H134988   2.597   2.542  12.770 -0.4289 -0.9458 -1.4986
 4499TIP3    H234989   2.471   2.623  12.791 -0.2636 -1.0126 -0.1872
 4500TIP3   OH234990   1.486   3.880   4.211 -1.0882  0.5792 -0.3325
 4500TIP3    H134991   1.531   3.827   4.146 -0.7688  1.7478 -1.0810
 4500TIP3    H234992   1.521   3.850   4.295 -0.8467 -0.3231 -0.7543
 4501TIP3   OH234993   3.491   2.878  12.378 -0.4999 -0.1996 -0.4339
 4501TIP3    H134994   3.431   2.943  12.343 -1.3521 -0.9877 -0.4603
 4501TIP3    H234995   3.530   2.837  12.300 -0.7030 -0.3927 -0.4357
 4502TIP3   OH234996   2.247   2.675   5.975  0.5751  0.1507  0.4104
 4502TIP3    H134997   2.175   2.692   6.035  0.6180 -1.7484  1.0265
 4502TIP3    H234998   2.326   2.678   6.030  0.7049 -0.6222  0.2628
 4503TIP3   OH234999   1.770   1.364  12.397 -0.1892 -0.1132  0.6310
 4503TIP3    H135000   1.735   1.410  12.320  1.0743  1.0989  0.7649
 4503TIP3    H235001   1.771   1.272  12.371  1.2707  0.4050 -1.2298
 4504TIP3   OH235002   0.995   0.287  13.305 -0.2425  0.1174  0.4256
 4504TIP3    H135003   1.080   0.330  13.318  1.6427 -2.8524 -1.3477
 4504TIP3    H235004   0.980   0.291  13.211 -1.3459 -0.6897  0.5577
 4505TIP3   OH235005   2.442   5.546  11.475  0.0200  0.3853 -0.9728
 4505TIP3    H135006   2.499   5.583  11.542  0.8306 -0.8635 -0.9637
 4505TIP3    H235007   2.494   5.476  11.435 -1.3854 -0.5514 -1.1857
 4506TIP3   OH235008   4.096   3.814  16.444  0.9874 -0.1028  0.1261
 4506TIP3    H135009   4.134   3.849  16.363  0.1269  0.7701  0.0984
 4506TIP3    H235010   4.166   3.825  16.509  0.7242  1.6949  0.1258
 4507TIP3   OH235011   0.286   4.159   5.221 -0.0771 -0.0673 -0.2761
 4507TIP3    H135012   0.375   4.193   5.215  0.2870 -0.9050  0.4317
 4507TIP3    H235013   0.279   4.123   5.309 -1.2795  0.4326 -0.1476
 4508TIP3   OH235014   3.801   6.417  14.765  0.6528 -0.1829 -0.3602
 4508TIP3    H135015   3.843   6.502  14.756 -0.4595  0.2564 -1.6032
 4508TIP3    H235016   3.762   6.400  14.679 -0.8769 -1.0094  0.4671
 4509TIP3   OH235017   5.212   5.757   2.572  0.0744 -0.1266 -0.0339
 4509TIP3    H135018   5.261   5.838   2.561 -1.8751  1.0393 -0.3512
 4509TIP3    H235019   5.245   5.719   2.654  2.4174 -0.0537 -0.9264
 4510TIP3   OH235020   0.946   4.772   3.854 -0.4787  0.1119 -0.1516
 4510TIP3    H135021   0.957   4.778   3.949 -0.0940 -0.4000 -0.1619
 4510TIP3    H235022   0.914   4.858   3.828  0.7673  0.7207  0.2667
 4511TIP3   OH235023   5.321   3.397   2.053  0.0242  0.3554  0.3190
 4511TIP3    H135024   5.227   3.409   2.062 -0.0598  0.3733 -0.5783
 4511TIP3    H235025   5.357   3.486   2.053 -0.0623  0.3938 -0.4264
 4512TIP3   OH235026   1.885   0.766   3.339 -0.4043 -0.3282 -0.2443
 4512TIP3    H135027   1.802   0.790   3.380 -0.5529 -1.3486  0.0532
 4512TIP3    H235028   1.952   0.803   3.397 -0.6503  0.8315 -0.6931
 4513TIP3   OH235029   0.504   1.756   4.964 -0.0044 -0.2977  0.8152
 4513TIP3    H135030   0.553   1.697   4.907 -0.4286  0.6518 -0.5630
 4513TIP3    H235031   0.568   1.783   5.031  1.6418  1.6250 -1.4598
 4514TIP3   OH235032   1.953   2.903   2.322  0.2110  0.4194 -0.3804
 4514TIP3    H135033   1.985   2.817   2.294  0.1551  0.4318 -0.4827
 4514TIP3    H235034   1.979   2.962   2.251 -0.1029  0.4172 -0.4984
 4515TIP3   OH235035   0.524   3.692   3.693  0.0398 -0.0497  0.8617
 4515TIP3    H135036   0.603   3.741   3.669 -0.2287  1.3172  2.5951
 4515TIP3    H235037   0.557   3.610   3.731  0.5807 -0.0573  0.3826
 4516TIP3   OH235038   6.097   6.651  15.348 -0.1806  0.4155  0.4542
 4516TIP3    H135039   6.036   6.655  15.275 -0.6387 -0.6849  0.7623
 4516TIP3    H235040   6.111   6.742  15.373  0.6264  0.8760 -1.5287
 4517TIP3   OH235041   2.332   5.515  13.329  0.1435 -0.1589 -0.0452
 4517TIP3    H135042   2.424   5.499  13.349  0.3673  1.2911  0.0992
 4517TIP3    H235043   2.293   5.427  13.326  0.9903 -0.6613  2.3735
 4518TIP3   OH235044   6.294   5.223   0.534  0.4925  0.3514  0.3150
 4518TIP3    H135045   6.214   5.227   0.481  1.6185 -1.3803 -1.5980
 4518TIP3    H235046   6.273   5.160   0.603  0.3239 -0.4739 -0.4655
 4519TIP3   OH235047   3.557   1.570  12.996 -0.2887 -0.1535 -0.0855
 4519TIP3    H135048   3.556   1.603  12.906 -3.4844  0.0178 -0.0560
 4519TIP3    H235049   3.485   1.508  13.000  1.9301 -2.7245  1.5021
 4520TIP3   OH235050   3.139   6.220  11.122 -0.3565  0.7504 -0.0413
 4520TIP3    H135051   3.152   6.128  11.100 -0.9165  0.6237  0.1475
 4520TIP3    H235052   3.139   6.265  11.037 -0.1534  0.5643 -0.1385
 4521TIP3   OH235053   3.895   4.469  15.251  0.3232 -0.6104  0.0926
 4521TIP3    H135054   3.846   4.397  15.290 -2.2780  0.0770 -1.7668
 4521TIP3    H235055   3.830   4.536  15.234  2.4157  1.4963  0.1714
 4522TIP3   OH235056   2.303   0.078   4.233  0.4686  0.0675 -0.1533
 4522TIP3    H135057   2.381   0.039   4.192  0.9051  0.9823 -0.1946
 4522TIP3    H235058   2.321   0.071   4.327 -0.0177 -0.9675 -0.1232
 4523TIP3   OH235059   4.577   2.732  15.077  0.0192  0.6152  0.2591
 4523TIP3    H135060   4.499   2.781  15.053  0.0577  0.4420 -0.2240
 4523TIP3    H235061   4.556   2.692  15.161 -0.4080  0.5770  0.1306
 4524TIP3   OH235062   3.695   0.626   6.417  0.3534  0.0043  0.4185
 4524TIP3    H135063   3.656   0.695   6.471 -1.5736 -1.5568  1.0533
 4524TIP3    H235064   3.631   0.611   6.347  0.9281 -0.9292  0.0879
 4525TIP3   OH235065   0.137   5.282   4.562  0.7126 -0.4143  0.7234
 4525TIP3    H135066   0.186   5.263   4.482  1.1315  1.2478  0.5572
 4525TIP3    H235067   0.203   5.288   4.631  0.8739  2.3203  0.4116
 4526TIP3   OH235068   5.016   4.993  14.232 -0.3349  0.0464 -0.1765
 4526TIP3    H135069   4.951   5.054  14.197 -0.6071 -0.1019  0.0676
 4526TIP3    H235070   5.046   5.033  14.314  1.6990  1.3306 -1.5104
 4527TIP3   OH235071   1.243   3.782  11.981 -0.7709  0.0185  0.3184
 4527TIP3    H135072   1.311   3.715  11.991  0.2967  1.0637  0.0638
 4527TIP3    H235073   1.164   3.732  11.960  0.2892 -1.0901 -1.1453
 4528TIP3   OH235074   5.468   5.401  15.356  0.4866  0.0309  0.5246
 4528TIP3    H135075   5.536   5.388  15.290  1.5952 -0.7961  1.7956
 4528TIP3    H235076   5.428   5.315  15.365  0.4443  0.1048  1.0414
 4529TIP3   OH235077   5.268   2.778  16.090 -0.5503  0.8968  0.0741
 4529TIP3    H135078   5.243   2.686  16.098 -1.2593  1.0756  0.0069
 4529TIP3    H235079   5.262   2.812  16.179  2.0617  0.3176  0.5198
 4530TIP3   OH235080   6.075   5.217   3.088  0.3077  0.0150 -0.0306
 4530TIP3    H135081   5.989   5.229   3.127  0.0351 -1.3533 -0.1764
 4530TIP3    H235082   6.134   5.270   3.142 -0.3611 -0.3499  1.0790
 4531TIP3   OH235083   3.153   0.610   5.542  0.1552  0.0603 -0.0800
 4531TIP3    H135084   3.179   0.523   5.511 -0.4451 -0.0119 -0.3945
 4531TIP3    H235085   3.067   0.624   5.502 -0.3028  0.2746  0.9861
 4532TIP3   OH235086   0.820   1.069   5.065  0.5667  0.3157 -0.5934
 4532TIP3    H135087   0.770   0.991   5.041 -0.0171  0.6951 -0.6221
 4532TIP3    H235088   0.852   1.051   5.153  0.0775  0.2221 -0.4338
 4533TIP3   OH235089   3.719   5.143   5.155  0.0751 -0.2837  0.0984
 4533TIP3    H135090   3.778   5.086   5.105  0.3820 -0.4844  0.6763
 4533TIP3    H235091   3.777   5.205   5.199 -0.3088  0.8875 -1.0325
 4534TIP3   OH235092   6.211   5.252   0.084  0.4890  0.0540  0.3023
 4534TIP3    H135093   6.250   5.330   0.124  0.6275  1.2361 -2.0694
 4534TIP3    H235094   6.123   5.279   0.060  0.2600 -0.7722  0.2193
 4535TIP3   OH235095   4.179   5.862  15.586  0.4003  0.5558 -0.4740
 4535TIP3    H135096   4.109   5.914  15.547 -0.8443  0.4506  1.5527
 4535TIP3    H235097   4.260   5.901  15.552 -0.5943  1.4041 -1.9298
 4536TIP3   OH235098   1.904   3.871   0.829 -0.0398 -0.2812 -0.0257
 4536TIP3    H135099   1.959   3.916   0.893 -0.0176  0.4832 -0.5739
 4536TIP3    H235100   1.816   3.906   0.843 -0.4371 -1.6350  0.9722
 4537TIP3   OH235101   3.407   5.928  12.346 -0.0821  0.0237  0.3096
 4537TIP3    H135102   3.366   5.934  12.432 -2.6135  1.5209 -0.9358
 4537TIP3    H235103   3.383   6.009  12.302  2.0217 -0.2699 -1.4661
 4538TIP3   OH235104   5.499   2.639   3.536 -0.1267 -0.3389 -0.5773
 4538TIP3    H135105   5.448   2.639   3.617  0.2694  0.8834 -0.3159
 4538TIP3    H235106   5.589   2.625   3.564  0.4446  3.1857 -0.4835
 4539TIP3   OH235107   3.366   0.123  16.892  0.4456  0.1882 -0.4307
 4539TIP3    H135108   3.457   0.112  16.865  1.4396  0.4296  2.6867
 4539TIP3    H235109   3.341   0.036  16.923  1.0852  1.1797  2.9656
 4540TIP3   OH235110   3.606   6.792   1.931 -0.5597  0.0341  0.2147
 4540TIP3    H135111   3.587   6.885   1.915 -1.0649 -0.2581 -0.9002
 4540TIP3    H235112   3.629   6.757   1.845 -1.9123 -1.2440  0.3682
 4541TIP3   OH235113   2.035   1.809   3.842  0.3535 -0.0952 -0.1539
 4541TIP3    H135114   2.057   1.747   3.773  0.1922  0.0507 -0.3374
 4541TIP3    H235115   1.945   1.788   3.866  0.6867 -0.6941  0.6024
 4542TIP3   OH235116   0.032   2.813   4.893  0.6949  0.0215  0.7764
 4542TIP3    H135117  -0.011   2.818   4.808  2.0835 -0.6161  0.0160
 4542TIP3    H235118  -0.015   2.744   4.940 -0.6973  1.0457  0.8978
 4543TIP3   OH235119   3.425   2.532   5.957 -0.1151  0.0011 -0.4159
 4543TIP3    H135120   3.428   2.613   5.907 -1.1302 -1.0087 -2.1733
 4543TIP3    H235121   3.336   2.530   5.995 -0.0343 -0.1978 -0.2315
 4544TIP3   OH235122   0.577   4.085   2.257 -0.1544  0.2725 -0.7237
 4544TIP3    H135123   0.581   4.155   2.191  1.4103  0.1970 -0.7291
 4544TIP3    H235124   0.630   4.119   2.330  0.7477 -0.9571 -0.7894
 4545TIP3   OH235125   4.168   4.851   4.384 -0.1906  0.1407  0.7337
 4545TIP3    H135126   4.075   4.830   4.393 -0.6180  1.4918 -0.2968
 4545TIP3    H235127   4.209   4.814   4.462 -1.5220 -0.8656  0.9740
 4546TIP3   OH235128   0.187   4.467   1.633 -0.2099  0.3543  0.6270
 4546TIP3    H135129   0.115   4.415   1.668  0.4760  0.7985  2.7577
 4546TIP3    H235130   0.256   4.460   1.698  1.7216 -0.1169 -1.4178
 4547TIP3   OH235131   0.773   5.322   5.971 -0.5499  0.2424 -0.2062
 4547TIP3    H135132   0.692   5.347   6.015 -1.4165 -1.1955 -0.9194
 4547TIP3    H235133   0.834   5.299   6.041 -1.1715  0.1541  0.3044
 4548TIP3   OH235134   0.922   3.117   1.510 -0.0774  0.2079 -0.6843
 4548TIP3    H135135   0.926   3.166   1.427  0.3295  0.0813 -0.7402
 4548TIP3    H235136   0.941   3.026   1.485  2.2777  0.5235 -0.1396
 4549TIP3   OH235137   3.790   4.435   1.302 -0.4278 -0.3084  0.4565
 4549TIP3    H135138   3.730   4.480   1.361 -0.3313 -0.7863  0.9216
 4549TIP3    H235139   3.733   4.391   1.239 -0.5007  1.3173 -0.6465
 4550TIP3   OH235140   1.543   3.185  11.922 -0.3241  0.0250 -0.1316
 4550TIP3    H135141   1.601   3.179  11.846  0.6245  1.4166  0.4511
 4550TIP3    H235142   1.456   3.169  11.887  0.1493  0.2247 -1.4412
 4551TIP3   OH235143   4.254   0.303  12.624  0.6493  0.0024 -0.3732
 4551TIP3    H135144   4.250   0.233  12.690  0.9849 -1.9174 -2.3509
 4551TIP3    H235145   4.242   0.383  12.675 -0.5546 -1.5169  1.8473
 4552TIP3   OH235146   0.318   0.972   1.722 -0.2513 -0.6101  0.2132
 4552TIP3    H135147   0.282   1.056   1.692 -0.6609 -0.2473  1.6673
 4552TIP3    H235148   0.409   0.992   1.744  0.2395 -1.0238 -1.3450
 4553TIP3   OH235149   3.756   1.597   0.176 -0.5988 -0.1523 -0.5923
 4553TIP3    H135150   3.791   1.672   0.224  1.7677 -0.6691 -1.4612
 4553TIP3    H235151   3.775   1.522   0.233  2.8100 -0.8513 -2.5472
 4554TIP3   OH235152   4.575   1.408   1.861 -0.2805  0.3466 -0.4296
 4554TIP3    H135153   4.481   1.406   1.882 -0.3852  1.6873 -0.7760
 4554TIP3    H235154   4.587   1.332   1.804 -0.7710 -0.9631  1.1398
 4555TIP3   OH235155   5.229   1.319  11.329  0.4591 -0.1134  0.3733
 4555TIP3    H135156   5.177   1.355  11.257  1.1113 -0.4127 -0.2507
 4555TIP3    H235157   5.184   1.349  11.408 -0.4801 -0.1068 -0.1581
 4556TIP3   OH235158   4.600   2.156  17.178 -0.2736  0.4524 -0.4586
 4556TIP3    H135159   4.605   2.131  17.086 -1.3654 -1.0327 -0.1228
 4556TIP3    H235160   4.614   2.250  17.178  1.4868  0.2154 -1.9781
 4557TIP3   OH235161   5.230   2.451  13.171 -0.0764  0.2678 -0.2070
 4557TIP3    H135162   5.253   2.524  13.227 -0.6021 -0.4697  0.9851
 4557TIP3    H235163   5.270   2.375  13.212  0.0760 -0.1907 -1.1820
 4558TIP3   OH235164   5.404   1.048   1.797  0.4833 -0.1347 -0.6558
 4558TIP3    H135165   5.321   1.001   1.798  0.4118 -0.0006  1.2957
 4558TIP3    H235166   5.379   1.141   1.798  0.6589 -0.0604 -1.8142
 4559TIP3   OH235167   2.973   1.705   5.253 -0.2938  0.2981 -0.6259
 4559TIP3    H135168   2.927   1.787   5.237 -0.0610  0.4732 -0.3896
 4559TIP3    H235169   2.942   1.676   5.339  0.1673  0.5017 -0.3904
 4560TIP3   OH235170   5.571   4.605   2.193  0.0923  0.0872  0.6011
 4560TIP3    H135171   5.581   4.694   2.161  1.5444 -0.0722  0.5571
 4560TIP3    H235172   5.532   4.558   2.120 -1.4955  0.8722  0.9376
 4561TIP3   OH235173   4.500   1.144  14.467 -0.9142  0.1369  0.1632
 4561TIP3    H135174   4.528   1.086  14.396 -0.5720  1.7075 -1.0063
 4561TIP3    H235175   4.413   1.174  14.441 -1.4238 -0.4594  1.1486
 4562TIP3   OH235176   3.377   4.783  12.176  0.5899 -0.3289 -0.1401
 4562TIP3    H135177   3.435   4.727  12.227 -1.0963 -0.9539  1.1646
 4562TIP3    H235178   3.382   4.868  12.219 -2.2159 -1.3106  2.2819
 4563TIP3   OH235179   4.690   5.827   1.590  0.1287 -0.0057  0.1417
 4563TIP3    H135180   4.650   5.913   1.599  0.0648 -0.0989  0.7564
 4563TIP3    H235181   4.626   5.775   1.541 -0.1181  0.1021  0.3527
 4564TIP3   OH235182   5.714   1.183   3.741  0.2541 -0.2771 -0.2292
 4564TIP3    H135183   5.799   1.223   3.721  0.0192 -0.1206 -0.9192
 4564TIP3    H235184   5.654   1.219   3.676  0.0783 -1.8706 -0.9687
 4565TIP3   OH235185   6.776   3.913   4.219 -0.2367  0.4827  0.1164
 4565TIP3    H135186   6.776   3.922   4.314 -0.6166  0.0198  0.1579
 4565TIP3    H235187   6.684   3.909   4.195 -0.1194 -0.5119 -0.1688
 4566TIP3   OH235188   4.119   2.225  14.800 -0.2545 -0.0336 -0.3827
 4566TIP3    H135189   4.142   2.159  14.865  0.4854  0.7347  0.1410
 4566TIP3    H235190   4.044   2.271  14.838  1.6988  2.0527  1.0933
 4567TIP3   OH235191   1.653   4.740  16.674 -0.7165 -0.0437  0.2035
 4567TIP3    H135192   1.640   4.652  16.639 -2.6902  0.6549 -0.8807
 4567TIP3    H235193   1.720   4.778  16.616 -0.0266 -0.7332  0.5307
 4568TIP3   OH235194   3.826   5.848   6.373  0.2502 -0.2046  0.1901
 4568TIP3    H135195   3.862   5.805   6.451 -1.4448 -0.2000  0.9883
 4568TIP3    H235196   3.749   5.894   6.405 -1.5585 -1.7622 -1.8425
 4569TIP3   OH235197   3.572   5.364  12.375 -0.3239  0.5136 -0.0237
 4569TIP3    H135198   3.499   5.326  12.425 -0.0461 -0.2209 -0.1603
 4569TIP3    H235199   3.591   5.298  12.308  2.4767 -0.7161  1.9039
 4570TIP3   OH235200   5.370   2.435  14.435  0.0588 -0.0048 -0.0501
 4570TIP3    H135201   5.294   2.398  14.480  0.0269 -0.2445 -0.3002
 4570TIP3    H235202   5.443   2.420  14.495  0.2408 -1.4364 -0.6070
 4571TIP3   OH235203   5.216   1.680   4.507 -0.8093 -0.1515 -0.1021
 4571TIP3    H135204   5.189   1.651   4.420 -0.6159  1.3457 -0.6916
 4571TIP3    H235205   5.301   1.722   4.492  0.3473 -1.9776  1.1968
 4572TIP3   OH235206   2.474   4.544   0.273  0.4042  0.3420 -0.6959
 4572TIP3    H135207   2.437   4.467   0.230  0.0473 -0.6990  1.3860
 4572TIP3    H235208   2.556   4.513   0.312  0.6109  1.1871 -0.4419
 4573TIP3   OH235209   3.790   4.608   0.693  0.1012 -0.1760  0.2012
 4573TIP3    H135210   3.803   4.526   0.740  1.5391  0.3197  0.6981
 4573TIP3    H235211   3.877   4.648   0.690  0.0120 -0.0814 -2.6645
 4574TIP3   OH235212   4.233   1.616   2.417  0.6879  0.0099  0.2075
 4574TIP3    H135213   4.255   1.644   2.506  0.1127  3.1926 -0.5793
 4574TIP3    H235214   4.146   1.577   2.426 -0.5408  2.7441  0.6766
 4575TIP3   OH235215   2.098   0.054   4.696 -0.0050  0.0353  0.1526
 4575TIP3    H135216   2.180   0.005   4.692  0.9839  1.7063 -0.0068
 4575TIP3    H235217   2.076   0.057   4.789  1.0427  1.1229  0.3703
 4576TIP3   OH235218   5.600   0.581  16.327 -0.0478  0.1000  0.2971
 4576TIP3    H135219   5.632   0.658  16.280  1.7498 -1.3153 -0.8408
 4576TIP3    H235220   5.546   0.534  16.264 -0.0311 -0.2889  0.5691
 4577TIP3   OH235221   0.944   2.002  11.688 -0.3260 -0.0077  0.2375
 4577TIP3    H135222   1.026   1.962  11.715  0.8582  1.1785 -1.4933
 4577TIP3    H235223   0.962   2.037  11.600 -2.3485  1.2067  0.2706
 4578TIP3   OH235224   2.508   6.134  10.468  0.2474  0.0619  0.6809
 4578TIP3    H135225   2.432   6.189  10.450  0.8131  0.9698  1.0565
 4578TIP3    H235226   2.476   6.044  10.455 -1.3311  0.3325  2.4508
 4579TIP3   OH235227   0.253   1.714  16.208 -0.5061  0.4233 -0.0175
 4579TIP3    H135228   0.160   1.737  16.197 -0.5839 -0.2763 -0.9011
 4579TIP3    H235229   0.299   1.771  16.146 -0.3411  0.7225  0.3759
 4580TIP3   OH235230   2.409   3.982  14.696 -0.2383 -0.3755  0.1027
 4580TIP3    H135231   2.362   3.901  14.675 -2.3370  1.3716 -2.1590
 4580TIP3    H235232   2.501   3.958  14.689 -0.8237 -2.5989 -0.4340
 4581TIP3   OH235233   1.657   0.408   2.889  0.1604  0.1457  0.4936
 4581TIP3    H135234   1.579   0.410   2.944  0.0377  2.8057  0.2918
 4581TIP3    H235235   1.631   0.452   2.808  1.6307  0.3489  0.1087
 4582TIP3   OH235236   4.887   3.281  14.746 -0.4560 -0.0708  0.1201
 4582TIP3    H135237   4.961   3.342  14.750 -1.0245  0.5629  1.0423
 4582TIP3    H235238   4.885   3.240  14.832 -0.5652 -0.8347 -0.2414
 4583TIP3   OH235239   4.588   0.147   4.303 -0.1337 -0.5776 -0.3213
 4583TIP3    H135240   4.585   0.189   4.217  0.1572 -0.0163 -0.0602
 4583TIP3    H235241   4.530   0.201   4.358 -4.2186 -3.6379 -1.3358
 4584TIP3   OH235242   3.665   1.762   5.383 -0.1348  0.0981 -0.0261
 4584TIP3    H135243   3.653   1.668   5.397  0.2143  0.1984  1.0150
 4584TIP3    H235244   3.758   1.772   5.365 -0.1006  0.2890  0.2546
 4585TIP3   OH235245   3.455   0.386  15.599  0.5572  0.6264  0.0774
 4585TIP3    H135246   3.479   0.311  15.545 -0.1693  0.3673  0.1077
 4585TIP3    H235247   3.370   0.362  15.636  0.8847  0.9492  1.0506
 4586TIP3   OH235248   0.889   3.825   2.619  0.0484  0.2078 -0.4960
 4586TIP3    H135249   0.907   3.796   2.529 -2.0467 -0.1006 -0.8454
 4586TIP3    H235250   0.964   3.794   2.669  0.4698 -1.0725 -1.8627
 4587TIP3   OH235251   5.843   2.988  11.444 -0.6084 -0.3831  0.1463
 4587TIP3    H135252   5.836   2.910  11.499 -1.7320  0.6064  1.4687
 4587TIP3    H235253   5.770   3.044  11.473  1.0933  1.8186  0.3614
 4588TIP3   OH235254   5.399   4.466   2.040  0.2261  0.3366  0.7302
 4588TIP3    H135255   5.305   4.459   2.023  0.4894 -0.4119 -0.5308
 4588TIP3    H235256   5.434   4.505   1.960  1.2651 -1.4243  0.3062
 4589TIP3   OH235257   4.065   6.445   2.918  0.1706  0.0369 -0.1637
 4589TIP3    H135258   4.118   6.370   2.889 -0.7653 -0.2161 -1.2256
 4589TIP3    H235259   4.095   6.517   2.863 -1.4331 -0.3864 -1.6252
 4590TIP3   OH235260   1.760   0.473   3.144 -0.0219 -0.3687 -0.1504
 4590TIP3    H135261   1.741   0.423   3.065  1.6267 -0.8619 -0.2471
 4590TIP3    H235262   1.813   0.414   3.197 -0.0413  0.4274  0.7703
 4591TIP3   OH235263   6.778   5.250   2.648 -0.1114 -0.4797 -1.1744
 4591TIP3    H135264   6.693   5.275   2.613 -0.5474 -0.1375  0.1176
 4591TIP3    H235265   6.840   5.310   2.607 -0.7480  0.5783 -0.5895
 4592TIP3   OH235266   3.308   5.963  13.641 -0.5862 -0.2501  0.0660
 4592TIP3    H135267   3.325   6.048  13.682 -1.8856 -0.0935  0.3166
 4592TIP3    H235268   3.258   5.914  13.707  1.0858 -1.6147  0.3415
 4593TIP3   OH235269   4.180   3.608   0.910  0.1581  0.4362  0.4860
 4593TIP3    H135270   4.259   3.561   0.887 -1.2206 -1.3006 -0.8928
 4593TIP3    H235271   4.110   3.561   0.864 -1.4920  2.7649  0.5019
 4594TIP3   OH235272   0.553   4.527   0.764 -0.0667 -0.7895  0.5982
 4594TIP3    H135273   0.584   4.438   0.750  2.0196  0.1889 -1.3417
 4594TIP3    H235274   0.621   4.569   0.816 -0.9618 -0.2745  1.3684
 4595TIP3   OH235275   6.408   6.794   3.520  0.2798  0.5014 -1.0256
 4595TIP3    H135276   6.469   6.807   3.448  2.8321 -1.0674  0.7528
 4595TIP3    H235277   6.463   6.791   3.598 -2.2421  0.6135  0.8317
 4596TIP3   OH235278   5.316   0.194   5.311  0.1210  0.0695  0.1442
 4596TIP3    H135279   5.261   0.240   5.374  0.2667  0.9612 -0.3713
 4596TIP3    H235280   5.386   0.255   5.290  1.8339 -1.3889  1.4597
 4597TIP3   OH235281   0.976   3.237  13.456 -0.0950 -0.1317 -0.1484
 4597TIP3    H135282   0.928   3.244  13.539  0.9910  1.2095  0.3880
 4597TIP3    H235283   1.062   3.204  13.481  0.7389  1.6683 -0.5247
 4598TIP3   OH235284   3.518   5.212   5.509  0.0570  0.4558 -0.3236
 4598TIP3    H135285   3.426   5.205   5.533  0.5788  2.2021  2.3788
 4598TIP3    H235286   3.539   5.128   5.469 -2.4063 -0.3765  0.0695
 4599TIP3   OH235287   0.607   2.906   2.096  0.4166  0.3770  0.5284
 4599TIP3    H135288   0.560   2.959   2.031  0.5212 -0.1385  0.0259
 4599TIP3    H235289   0.676   2.964   2.128  0.8459  0.3906 -0.3893
 4600TIP3   OH235290   2.734   2.320   0.240 -0.2931 -0.4440  0.1908
 4600TIP3    H135291   2.818   2.292   0.203 -0.3112  0.4213 -0.5149
 4600TIP3    H235292   2.719   2.407   0.203 -0.9605 -0.1222  1.2003
 4601TIP3   OH235293   3.988   2.202   5.465 -0.0245 -0.1585 -0.2921
 4601TIP3    H135294   3.932   2.270   5.427  0.7888 -0.2721 -1.7331
 4601TIP3    H235295   3.927   2.131   5.486 -0.5696  0.1164 -0.9050
 4602TIP3   OH235296   0.728   6.067  16.851  0.3999 -0.1730  0.3876
 4602TIP3    H135297   0.684   5.989  16.818  0.1918 -0.2553  0.8415
 4602TIP3    H235298   0.804   6.034  16.899  0.3675 -0.0963  0.4952
 4603TIP3   OH235299   5.504   3.865  12.545 -0.3422  0.4286 -0.4681
 4603TIP3    H135300   5.489   3.891  12.636 -3.1244 -0.5873 -0.5631
 4603TIP3    H235301   5.539   3.943  12.502  0.8081  0.9620  1.4301
 4604TIP3   OH235302   1.105   2.118  17.158  0.6610  0.0288 -0.4908
 4604TIP3    H135303   1.084   2.060  17.231  1.8127 -0.2340 -0.3515
 4604TIP3    H235304   1.064   2.202  17.181 -0.2352 -0.4787 -0.2564
 4605TIP3   OH235305   5.166   6.504   3.864  0.8293 -0.0298  0.5371
 4605TIP3    H135306   5.186   6.590   3.828  1.0455  0.5902  2.0931
 4605TIP3    H235307   5.231   6.491   3.933 -1.7502  0.4068  3.1720
 4606TIP3   OH235308   6.185   1.998  11.038  0.3922 -0.6583 -0.3974
 4606TIP3    H135309   6.264   1.950  11.064  0.4031 -0.8980 -0.8540
 4606TIP3    H235310   6.127   1.930  11.003 -0.7271 -0.7378  1.5843
 4607TIP3   OH235311   5.788   2.629  12.689  0.0565  0.2591 -0.2102
 4607TIP3    H135312   5.852   2.567  12.657 -2.3304 -2.2836 -0.2485
 4607TIP3    H235313   5.818   2.652  12.777  0.7285 -1.3393 -0.0154
 4608TIP3   OH235314   2.012   5.200  15.156 -0.4453 -0.1927 -0.4326
 4608TIP3    H135315   1.938   5.160  15.201 -1.6851 -0.9369 -3.0472
 4608TIP3    H235316   2.079   5.132  15.154 -0.3783 -0.1554  0.2266
 4609TIP3   OH235317   0.474   0.848  12.546 -0.5458  0.6382 -0.2775
 4609TIP3    H135318   0.523   0.928  12.529  0.4257 -0.3529 -2.2459
 4609TIP3    H235319   0.520   0.808  12.621 -0.2198  1.2344 -0.1540
 4610TIP3   OH235320   1.154   6.339  11.465 -0.5276  0.6367  0.4645
 4610TIP3    H135321   1.133   6.425  11.502  1.0398  0.6977  1.2475
 4610TIP3    H235322   1.085   6.281  11.499 -0.2605  1.1140  1.8589
 4611TIP3   OH235323   4.598   5.697  10.967  0.2231 -0.1539  0.1727
 4611TIP3    H135324   4.689   5.686  10.995  0.5606  0.9100 -0.4981
 4611TIP3    H235325   4.587   5.791  10.957  0.2959 -0.4549 -3.7014
 4612TIP3   OH235326   6.157   4.220   4.358 -0.2766  0.0001 -0.7088
 4612TIP3    H135327   6.194   4.294   4.311 -1.1328 -0.8729 -2.8244
 4612TIP3    H235328   6.065   4.243   4.370  0.2114  0.8057  1.7821
 4613TIP3   OH235329   1.087   2.679  15.154  0.1817 -0.6007 -0.9167
 4613TIP3    H135330   1.012   2.737  15.154  0.4964 -0.1804 -2.1725
 4613TIP3    H235331   1.128   2.692  15.069  1.4481 -1.1202 -0.4085
 4614TIP3   OH235332   0.139   5.084  13.908  0.3382 -0.0072 -0.1722
 4614TIP3    H135333   0.216   5.133  13.935  0.2330  0.9199 -1.5004
 4614TIP3    H235334   0.112   5.125  13.826 -1.9521  0.1009  0.5878
 4615TIP3   OH235335   1.470   4.833  11.328 -0.0651 -0.3452 -1.0078
 4615TIP3    H135336   1.390   4.796  11.292 -0.2346 -0.3153 -0.6555
 4615TIP3    H235337   1.442   4.910  11.378  0.1998 -0.2259 -1.0397
 4616TIP3   OH235338   2.182   4.533   1.165  0.2212 -0.1375 -0.5545
 4616TIP3    H135339   2.108   4.477   1.143  0.5329 -0.6991 -0.1820
 4616TIP3    H235340   2.242   4.523   1.091  1.3683 -2.1966  0.5840
 4617TIP3   OH235341   2.744   3.705  13.563  0.2763  0.0481 -0.5792
 4617TIP3    H135342   2.726   3.684  13.654  0.4931  3.9464  0.4500
 4617TIP3    H235343   2.677   3.769  13.539  0.6722 -0.3570 -2.9475
 4618TIP3   OH235344   1.665   1.252  11.312  0.0667  0.4472  0.9075
 4618TIP3    H135345   1.659   1.216  11.400 -1.9741 -1.4486  0.0477
 4618TIP3    H235346   1.574   1.267  11.285  0.6262  0.5328 -1.0697
 4619TIP3   OH235347   6.473   6.772  13.969  0.3116 -0.2709 -0.5876
 4619TIP3    H135348   6.453   6.865  13.980  1.9334  0.0199 -0.0705
 4619TIP3    H235349   6.398   6.727  14.009  0.7240  0.8063  1.4695
 4620TIP3   OH235350   4.037   1.824  14.482 -0.2994 -0.1394  0.1466
 4620TIP3    H135351   4.007   1.737  14.455 -0.6542  0.3177 -0.9465
 4620TIP3    H235352   3.959   1.867  14.517 -0.3995  0.2010 -0.5017
 4621TIP3   OH235353   6.067   0.935   0.766 -0.1083 -0.6706 -0.9541
 4621TIP3    H135354   6.050   1.029   0.765  1.0299 -0.4017  1.6178
 4621TIP3    H235355   5.983   0.896   0.788  0.6034  0.1442  3.5873
 4622TIP3   OH235356   0.236   5.698   2.982 -0.6244  0.2548 -0.2028
 4622TIP3    H135357   0.173   5.756   2.939  0.0634  1.6316  0.6332
 4622TIP3    H235358   0.320   5.744   2.976  0.2119 -1.3097 -0.8047
 4623TIP3   OH235359   5.650   3.692   3.118 -0.5334 -0.2060 -0.0986
 4623TIP3    H135360   5.681   3.736   3.039 -2.6807 -1.0222 -1.4319
 4623TIP3    H235361   5.624   3.764   3.177  0.2878  0.3872 -0.4577
 4624TIP3   OH235362   2.068   6.549  11.517 -0.0596  0.1386 -1.0122
 4624TIP3    H135363   2.109   6.635  11.520  1.2895 -0.5243 -0.1758
 4624TIP3    H235364   2.124   6.497  11.459  0.6779 -0.9551  0.6502
 4625TIP3   OH235365   0.881   1.012   3.917 -0.0790 -0.0769 -0.9228
 4625TIP3    H135366   0.837   0.936   3.955 -0.3043  0.2199 -0.5901
 4625TIP3    H235367   0.810   1.070   3.890  0.1165  0.5712 -0.0463
 4626TIP3   OH235368   4.916   3.718   1.681 -0.2392  0.6901 -0.1836
 4626TIP3    H135369   5.010   3.726   1.669 -0.3535 -0.1824 -1.8000
 4626TIP3    H235370   4.906   3.663   1.759  0.5889  0.5420 -0.1822
 4627TIP3   OH235371   2.278   1.036  11.295  0.1174  0.2145 -0.1120
 4627TIP3    H135372   2.284   1.039  11.200  0.9612  0.9605 -0.0366
 4627TIP3    H235373   2.366   1.057  11.326  0.1453 -1.2027  0.8178
 4628TIP3   OH235374   1.247   0.604  14.219 -0.2608 -0.5819 -0.1852
 4628TIP3    H135375   1.216   0.668  14.283  0.3986  0.2305 -0.6751
 4628TIP3    H235376   1.170   0.549  14.201 -0.5561 -0.5646  0.9923
 4629TIP3   OH235377   1.629   1.253   5.085 -0.1821  0.3101 -0.3297
 4629TIP3    H135378   1.538   1.253   5.113 -0.3926  0.5907 -1.0060
 4629TIP3    H235379   1.679   1.243   5.167 -0.8000  0.5240  0.0795
 4630TIP3   OH235380   4.978   2.863  13.436 -0.6585 -1.0568 -0.6952
 4630TIP3    H135381   5.025   2.873  13.519 -1.7027 -0.2260 -0.1849
 4630TIP3    H235382   5.034   2.905  13.371  0.1090 -1.6036 -0.3869
 4631TIP3   OH235383   2.351   4.705  17.065 -0.0404  0.1848  0.1917
 4631TIP3    H135384   2.352   4.788  17.113 -0.1120  0.0157  0.4862
 4631TIP3    H235385   2.359   4.638  17.133 -1.5426 -0.1110  0.0860
 4632TIP3   OH235386   3.716   4.272  16.779 -1.1497  0.1165  0.1329
 4632TIP3    H135387   3.666   4.350  16.801 -0.6561  1.2443 -2.5449
 4632TIP3    H235388   3.796   4.305  16.739  0.4750 -1.7344  1.7431
 4633TIP3   OH235389   3.670   3.997   1.984  0.6658 -0.0445 -0.5770
 4633TIP3    H135390   3.605   3.928   1.973  0.4353 -0.3253  2.1901
 4633TIP3    H235391   3.629   4.075   1.948  0.7789 -1.2176 -3.3838
 4634TIP3   OH235392   0.785   4.883   1.392 -0.1075  0.2468 -0.2074
 4634TIP3    H135393   0.778   4.864   1.298  0.7955  1.2472 -0.4902
 4634TIP3    H235394   0.714   4.944   1.409 -0.2530  0.0887 -0.2395
 4635TIP3   OH235395   6.234   5.449  11.343 -0.7475 -0.0359 -0.1803
 4635TIP3    H135396   6.309   5.504  11.366 -1.2967  0.4864  0.3505
 4635TIP3    H235397   6.211   5.405  11.425 -0.3320 -1.0376 -0.5917
 4636TIP3   OH235398   3.330   5.686  14.625  0.4578 -0.6144 -0.3333
 4636TIP3    H135399   3.261   5.620  14.628 -0.7267  0.5575 -1.0530
 4636TIP3    H235400   3.348   5.707  14.717  0.2314 -1.3160 -0.1297
 4637TIP3   OH235401   2.679   5.486   3.206  0.4412  0.4675  0.3555
 4637TIP3    H135402   2.735   5.481   3.128 -0.3808 -2.3104 -0.1108
 4637TIP3    H235403   2.624   5.562   3.192  0.3116 -0.0055 -1.7910
 4638TIP3   OH235404   2.302   2.938  15.159 -0.0988  0.1747 -0.5002
 4638TIP3    H135405   2.316   2.850  15.194  0.3952 -0.5762 -2.5502
 4638TIP3    H235406   2.311   2.928  15.065 -2.1556  2.0425 -0.9253
 4639TIP3   OH235407   3.980   5.750  12.268 -0.1816 -0.1543  0.0484
 4639TIP3    H135408   4.035   5.793  12.202 -0.1248  2.3623  1.6686
 4639TIP3    H235409   3.965   5.662  12.233  0.1436  0.9772 -3.1548
 4640TIP3   OH235410   2.611   2.663  13.137  0.1526  0.2331  0.1755
 4640TIP3    H135411   2.681   2.623  13.188 -1.5148 -1.5273  1.1364
 4640TIP3    H235412   2.595   2.747  13.181  0.1224 -0.3650  1.3254
 4641TIP3   OH235413   3.568   1.031  16.757  0.2298 -0.3396 -0.0561
 4641TIP3    H135414   3.639   0.966  16.760  1.0460  0.5350 -0.3964
 4641TIP3    H235415   3.550   1.043  16.664  1.4937  1.4421 -0.0949
 4642TIP3   OH235416   5.469   2.483   5.453 -0.2992  0.4866 -0.3739
 4642TIP3    H135417   5.535   2.550   5.434 -0.2829  0.2851 -1.0493
 4642TIP3    H235418   5.389   2.515   5.410 -0.1885 -0.1111 -1.0429
 4643TIP3   OH235419   6.197   0.050   6.213 -0.2542 -0.0762 -0.0142
 4643TIP3    H135420   6.237  -0.031   6.244 -3.0179 -1.4293  0.2064
 4643TIP3    H235421   6.194   0.106   6.290 -1.0884 -0.9327  0.5914
 4644TIP3   OH235422   1.866   2.167   0.422  0.1658 -0.6321 -0.3994
 4644TIP3    H135423   1.824   2.253   0.414  0.9100 -0.1047  1.1123
 4644TIP3    H235424   1.812   2.109   0.369 -1.0880  0.5131 -0.4097
 4645TIP3   OH235425   4.513   6.533   3.450 -0.1363  0.2053 -0.0786
 4645TIP3    H135426   4.585   6.549   3.512  0.0585 -1.6435  0.1887
 4645TIP3    H235427   4.522   6.441   3.426  0.2882  1.0829 -3.5544
 4646TIP3   OH235428   0.596   3.208  15.365  0.3424 -0.4005  0.2516
 4646TIP3    H135429   0.504   3.196  15.391  0.6136 -0.0687  1.3840
 4646TIP3    H235430   0.635   3.121  15.376  0.0841 -0.6262 -0.5789
 4647TIP3   OH235431   3.136   4.279   2.490 -0.0412  0.3786 -0.0099
 4647TIP3    H135432   3.151   4.366   2.453  0.2679  0.4808  0.3406
 4647TIP3    H235433   3.223   4.250   2.518  0.0611 -0.5869 -1.2904
 4648TIP3   OH235434   1.392   1.242  11.180  0.2354  0.1740  0.2930
 4648TIP3    H135435   1.424   1.192  11.105  0.5728  0.7383  0.0664
 4648TIP3    H235436   1.375   1.175  11.247  0.1238 -0.3094 -0.2096
 4649TIP3   OH235437   6.013   1.311  12.458 -0.1937 -0.5157 -0.3002
 4649TIP3    H135438   6.000   1.216  12.462 -1.7654 -0.3325 -0.9594
 4649TIP3    H235439   6.023   1.338  12.550 -2.8237 -0.9166  0.1486
 4650TIP3   OH235440   1.713   1.376   2.748  0.2743  0.5423 -0.1677
 4650TIP3    H135441   1.681   1.315   2.682 -1.2003  1.4169 -0.2909
 4650TIP3    H235442   1.728   1.322   2.825 -1.0419  0.0168 -0.2660
 4651TIP3   OH235443   3.685   0.987   1.797  0.1022  0.1954  0.6615
 4651TIP3    H135444   3.627   1.034   1.737  0.5664  0.3911  0.3637
 4651TIP3    H235445   3.725   0.919   1.743  1.5061  1.1859  0.4344
 4652TIP3   OH235446   0.402   2.128  13.093  0.2630  0.7586  0.2309
 4652TIP3    H135447   0.378   2.037  13.075  0.0462  0.6199  1.1764
 4652TIP3    H235448   0.486   2.140  13.048 -0.7884  0.7710 -1.7633
 4653TIP3   OH235449   2.408   1.649   6.057  0.0650 -0.6361 -0.1612
 4653TIP3    H135450   2.478   1.602   6.012  0.5959  0.2174 -0.2400
 4653TIP3    H235451   2.444   1.670   6.143  0.3331  0.8047 -0.6097
 4654TIP3   OH235452   2.303   2.009   2.925 -0.0096 -0.8045 -0.3785
 4654TIP3    H135453   2.350   1.946   2.980 -0.5378 -0.5918  0.3321
 4654TIP3    H235454   2.338   2.094   2.951 -0.6288 -0.6616  0.0115
 4655TIP3   OH235455   4.211   4.468   4.520  0.0994 -0.0129 -0.0306
 4655TIP3    H135456   4.204   4.540   4.583  1.7375  0.6202 -0.5457
 4655TIP3    H235457   4.305   4.458   4.506 -0.2044 -0.9851 -1.4275
 4656TIP3   OH235458   4.411   0.645   6.482  0.3676 -0.0488  0.6691
 4656TIP3    H135459   4.363   0.631   6.564 -0.9790  0.4768 -0.0205
 4656TIP3    H235460   4.496   0.677   6.510 -0.3273  0.8122  1.8569
 4657TIP3   OH235461   4.121   0.177  11.571  0.0313  0.4595 -0.3397
 4657TIP3    H135462   4.194   0.169  11.509 -0.9218 -0.8618 -1.3226
 4657TIP3    H235463   4.049   0.214  11.519 -0.0764  1.5461  0.5645
 4658TIP3   OH235464   1.365   5.929  12.233  0.7020  0.0371  0.0409
 4658TIP3    H135465   1.436   5.871  12.262  0.5319  0.3601  1.1381
 4658TIP3    H235466   1.375   5.934  12.138  0.7464 -1.7668 -0.0749
 4659TIP3   OH235467   5.711   5.706  13.162 -0.3936 -0.3177  0.0291
 4659TIP3    H135468   5.729   5.792  13.198 -0.1024 -0.3535 -0.0317
 4659TIP3    H235469   5.713   5.718  13.067 -3.2738  0.2315 -0.0367
 4660TIP3   OH235470   1.417   3.058  12.708 -0.0322  0.3964 -0.0752
 4660TIP3    H135471   1.430   2.983  12.651 -0.2958  0.5552 -0.3472
 4660TIP3    H235472   1.325   3.054  12.734  0.2954 -0.1573  1.0301
 4661TIP3   OH235473   3.521   5.395   0.369 -0.3432 -0.1328  0.7235
 4661TIP3    H135474   3.572   5.390   0.450  0.5148  0.8388  0.2608
 4661TIP3    H235475   3.518   5.304   0.337  2.9904  0.0381 -0.3503
 4662TIP3   OH235476   0.033   0.088   0.262  0.5051 -0.5614  0.3844
 4662TIP3    H135477  -0.046   0.065   0.214  0.0479  1.0723  0.3147
 4662TIP3    H235478   0.083   0.007   0.266 -0.6839 -1.3609 -0.4957
 4663TIP3   OH235479   3.399   0.149  15.351  0.2225  0.0670 -0.1486
 4663TIP3    H135480   3.463   0.099  15.403  2.0344  0.4225 -1.9820
 4663TIP3    H235481   3.445   0.230  15.327 -1.4187  0.9816 -0.3053
 4664TIP3   OH235482   4.212   4.392   1.130  0.0039  0.2584  0.6732
 4664TIP3    H135483   4.298   4.375   1.092 -0.6799 -1.6013 -0.0946
 4664TIP3    H235484   4.225   4.385   1.225  0.3628 -1.7911  0.5023
 4665TIP3   OH235485   3.678   5.393  16.971  0.2225  0.1020 -0.1525
 4665TIP3    H135486   3.705   5.391  17.063  0.2020 -1.9240 -0.1527
 4665TIP3    H235487   3.623   5.471  16.963  2.3255  1.7211  0.9289
 4666TIP3   OH235488   2.261   0.798  12.040  0.5804 -0.2091  0.4256
 4666TIP3    H135489   2.224   0.709  12.037  0.8962 -0.4070  1.9404
 4666TIP3    H235490   2.232   0.832  12.125  0.6956  1.0405 -0.0371
 4667TIP3   OH235491   4.507   1.057  13.477  0.0342  0.0929 -0.1310
 4667TIP3    H135492   4.412   1.047  13.483 -0.0418  0.9432  0.1759
 4667TIP3    H235493   4.521   1.112  13.400  0.2084  0.8931  0.4631
 4668TIP3   OH235494   5.693   2.659   5.388 -0.3788  0.7002 -0.1647
 4668TIP3    H135495   5.696   2.755   5.383  1.6952  0.7198  0.6002
 4668TIP3    H235496   5.768   2.630   5.336 -2.4224 -0.6501 -2.4594
 4669TIP3   OH235497   1.988   3.273   1.423 -0.1207 -0.0344  0.1533
 4669TIP3    H135498   1.939   3.193   1.442 -1.6503  1.0272  0.7509
 4669TIP3    H235499   2.079   3.251   1.443 -0.6513 -1.3548  1.1759
 4670TIP3   OH235500   5.651   3.557   4.417 -0.2246 -0.3140  0.1472
 4670TIP3    H135501   5.623   3.585   4.330  0.2009 -3.2921 -1.0134
 4670TIP3    H235502   5.603   3.475   4.433 -1.2794  0.8299  3.2857
 4671TIP3   OH235503   4.637   0.354   0.677 -0.0684 -0.1936 -0.0531
 4671TIP3    H135504   4.582   0.332   0.602 -0.1208 -0.5807  0.0968
 4671TIP3    H235505   4.707   0.289   0.675 -0.3946 -0.5705  0.5819
 4672TIP3   OH235506   0.668   4.647   2.660  0.3666  0.0711  0.2627
 4672TIP3    H135507   0.751   4.619   2.698  1.2847  1.2319 -0.7995
 4672TIP3    H235508   0.694   4.707   2.589 -1.2880 -1.5235 -1.7469
 4673TIP3   OH235509   3.440   3.511  14.520  0.1724  0.5548 -0.4874
 4673TIP3    H135510   3.441   3.599  14.482  0.7965  0.7185 -0.0928
 4673TIP3    H235511   3.422   3.525  14.613  0.3635  0.2652 -0.4082
 4674TIP3   OH235512   6.157   6.541   5.128  0.1208 -0.0012  0.0607
 4674TIP3    H135513   6.074   6.579   5.157  0.5222 -1.0578  2.7330
 4674TIP3    H235514   6.224   6.592   5.173  0.8630 -0.4185 -0.5508
 4675TIP3   OH235515   4.245   2.339   6.350  0.4663 -0.5474  0.1831
 4675TIP3    H135516   4.204   2.256   6.325 -0.3492 -0.1423  0.1430
 4675TIP3    H235517   4.172   2.400   6.359  1.2516  0.8315 -2.2930
 4676TIP3   OH235518   6.689   1.543  14.557 -0.2168 -0.3403  0.1684
 4676TIP3    H135519   6.711   1.614  14.617 -2.3947  0.4482  0.0686
 4676TIP3    H235520   6.641   1.480  14.610  0.5163 -1.1087 -0.0645
 4677TIP3   OH235521   3.446   0.592  12.946  0.3164  0.1811  0.0290
 4677TIP3    H135522   3.476   0.524  13.006  1.9165  0.9254  0.1291
 4677TIP3    H235523   3.515   0.596  12.879 -0.7479  0.3384 -1.0680
 4678TIP3   OH235524   4.379   6.617   0.755 -0.0765 -0.0691 -0.5844
 4678TIP3    H135525   4.384   6.697   0.807  0.0072 -0.7121  0.4209
 4678TIP3    H235526   4.338   6.644   0.673 -1.8785  0.6268  0.5084
 4679TIP3   OH235527   5.640   4.763  11.639  0.1002  0.6197  0.1325
 4679TIP3    H135528   5.683   4.749  11.723 -0.5887 -0.3138  0.3391
 4679TIP3    H235529   5.555   4.801  11.662 -0.7717 -1.1946 -0.0278
 4680TIP3   OH235530   4.676   5.301   1.082  0.1643 -0.3329 -0.6935
 4680TIP3    H135531   4.681   5.389   1.044 -0.1846  0.1544  0.3779
 4680TIP3    H235532   4.766   5.269   1.080  0.6146  0.7970  0.6501
 4681TIP3   OH235533   4.389   3.894  11.322 -0.3804 -0.0933 -0.2840
 4681TIP3    H135534   4.459   3.863  11.380  0.2791 -0.1872 -1.1084
 4681TIP3    H235535   4.329   3.941  11.380  0.9587  0.9984  0.2811
 4682TIP3   OH235536   4.508   5.756  12.491  0.8795 -0.4118 -0.1559
 4682TIP3    H135537   4.421   5.786  12.516  0.9402  1.8089 -2.4927
 4682TIP3    H235538   4.555   5.835  12.465  2.8037 -1.8751 -1.3004
 4683TIP3   OH235539   5.628   0.735  10.684 -0.4304 -0.3361  0.5889
 4683TIP3    H135540   5.678   0.749  10.765  0.3173  1.6203 -0.1732
 4683TIP3    H235541   5.643   0.643  10.662  1.1510 -0.3049  1.4807
 4684TIP3   OH235542   0.375   6.198   3.451  0.1281 -0.4622 -0.2630
 4684TIP3    H135543   0.350   6.106   3.440  3.8139 -1.7840  1.5314
 4684TIP3    H235544   0.416   6.222   3.367 -1.3737 -0.2393 -0.9452
 4685TIP3   OH235545   1.279   2.793  16.715  0.6316 -0.3422  0.1551
 4685TIP3    H135546   1.339   2.855  16.673 -1.5032  1.2548 -0.6569
 4685TIP3    H235547   1.192   2.819  16.683 -0.3289 -3.7972 -0.2550
 4686TIP3   OH235548   1.324   5.196  15.362 -0.1019  0.1352 -0.1777
 4686TIP3    H135549   1.359   5.166  15.446  1.7243  0.5300 -0.7681
 4686TIP3    H235550   1.261   5.129  15.336  1.1300 -1.2388  0.3326
 4687TIP3   OH235551   4.834   2.149   2.494 -0.5644  0.2652  0.3703
 4687TIP3    H135552   4.767   2.218   2.495  0.0941  0.9321 -0.7667
 4687TIP3    H235553   4.862   2.144   2.403  1.1315  0.1840  0.8908
 4688TIP3   OH235554   0.934   4.542  14.600 -0.5437  0.0558 -0.0978
 4688TIP3    H135555   0.957   4.464  14.649 -1.9976  0.0904  0.6705
 4688TIP3    H235556   0.867   4.513  14.538 -0.4382  0.5127 -0.4331
 4689TIP3   OH235557   5.199   6.357  12.401  0.0281  0.2781  0.2602
 4689TIP3    H135558   5.175   6.296  12.471 -3.0584  0.4596 -0.5397
 4689TIP3    H235559   5.199   6.303  12.322 -0.0844  0.7820 -0.0847
 4690TIP3   OH235560   5.224   3.647  15.244  0.3461 -0.2874  0.2207
 4690TIP3    H135561   5.274   3.643  15.162  0.1446  0.6710  0.0443
 4690TIP3    H235562   5.271   3.711  15.298 -0.5883  0.5186  0.1091
 4691TIP3   OH235563   4.476   2.495  16.912 -0.0435 -0.2933 -0.0982
 4691TIP3    H135564   4.525   2.459  16.837 -1.3402 -0.2824 -0.9702
 4691TIP3    H235565   4.388   2.511  16.877 -0.8336 -0.8464  1.5967
 4692TIP3   OH235566   2.334   2.581   0.732 -0.3981 -0.2357  0.0106
 4692TIP3    H135567   2.324   2.513   0.799  0.6686  2.8166  3.4261
 4692TIP3    H235568   2.248   2.622   0.727 -0.3506 -0.1571 -0.1561
 4693TIP3   OH235569   5.127   3.514   0.913  0.7593 -0.1389 -0.1169
 4693TIP3    H135570   5.057   3.579   0.926  0.8758 -0.1904  0.8435
 4693TIP3    H235571   5.087   3.446   0.859  0.4879  0.5013 -0.7301
 4694TIP3   OH235572   5.904   2.743  12.097 -0.8205 -0.1786  0.1474
 4694TIP3    H135573   5.873   2.726  12.186  0.7008 -0.4999  0.6190
 4694TIP3    H235574   5.908   2.657  12.056  1.4071 -0.3680  0.7379
 4695TIP3   OH235575   3.627   3.205  11.892  0.0237  0.0137  0.0238
 4695TIP3    H135576   3.606   3.293  11.924 -0.3633 -0.1367  0.1975
 4695TIP3    H235577   3.593   3.204  11.802  1.1573  0.4528 -0.4139
 4696TIP3   OH235578   5.044   5.660   6.476  0.3081  0.6274  0.3399
 4696TIP3    H135579   4.958   5.675   6.516 -1.8704 -1.0596 -3.4033
 4696TIP3    H235580   5.054   5.730   6.412  1.6174  0.6891  0.6034
 4697TIP3   OH235581   4.853   5.653  15.877  0.5019  0.1901 -0.2823
 4697TIP3    H135582   4.769   5.693  15.853  0.2116  0.0843  0.5521
 4697TIP3    H235583   4.833   5.598  15.952  1.1782 -0.4250 -0.5434
 4698TIP3   OH235584   4.441   5.291  11.960  0.7032 -0.2763 -0.1755
 4698TIP3    H135585   4.519   5.296  12.015  1.0758 -1.4563 -0.5794
 4698TIP3    H235586   4.442   5.371  11.908  1.5328 -0.1968 -0.0334
 4699TIP3   OH235587   2.958   3.930   5.166 -0.1439 -0.6255 -0.2410
 4699TIP3    H135588   2.921   3.989   5.100  2.7689  0.0024 -1.4319
 4699TIP3    H235589   2.960   3.981   5.246 -2.9832 -1.1207  0.1916
 4700TIP3   OH235590   0.208   0.834   4.269  0.1474  0.1106  0.1136
 4700TIP3    H135591   0.295   0.799   4.290  0.0831 -0.7840 -1.0565
 4700TIP3    H235592   0.204   0.919   4.313  1.6434  0.1962  0.0796
 4701TIP3   OH235593   5.173   0.891   1.821 -0.1038  0.2764 -0.0707
 4701TIP3    H135594   5.127   0.898   1.738 -0.6973  1.9800  0.3753
 4701TIP3    H235595   5.106   0.908   1.887  0.4700 -0.5508  0.7282
 4702TIP3   OH235596   1.637   4.977  16.251  0.7403 -0.6926 -0.2920
 4702TIP3    H135597   1.657   4.913  16.320  0.1895 -2.2052 -1.4947
 4702TIP3    H235598   1.552   4.948  16.217  1.0668 -0.0300 -1.6839
 4703TIP3   OH235599   3.131   2.083   5.688  0.8265  0.5408 -0.3373
 4703TIP3    H135600   3.057   2.023   5.695  0.6395  0.7082 -0.8622
 4703TIP3    H235601   3.200   2.030   5.646  2.0701 -0.5753  2.9760
 4704TIP3   OH235602   5.637   0.391  14.419  0.4133 -0.0871 -0.3797
 4704TIP3    H135603   5.614   0.417  14.329  2.0976  1.4657 -0.3819
 4704TIP3    H235604   5.681   0.468  14.455 -0.9525 -0.4041  2.0661
 4705TIP3   OH235605   2.393   6.371   1.515 -0.3619  0.1921  0.0597
 4705TIP3    H135606   2.399   6.329   1.600 -1.6465  0.0906  0.1110
 4705TIP3    H235607   2.439   6.312   1.455  1.4438  0.7693  0.8500
 4706TIP3   OH235608   1.617   2.491  12.037 -0.7573  0.7478  0.1926
 4706TIP3    H135609   1.689   2.458  12.090 -1.0751 -0.0939  0.1122
 4706TIP3    H235610   1.638   2.583  12.021  0.3180  0.4908  0.1349
 4707TIP3   OH235611   4.329   0.276   1.467 -0.8439 -0.6349 -0.2010
 4707TIP3    H135612   4.288   0.192   1.484  1.2522 -1.2732  1.9039
 4707TIP3    H235613   4.401   0.281   1.529 -0.2070  2.2096 -1.0861
 4708TIP3   OH235614   3.658   1.992  11.708 -0.2334  0.5726  0.4982
 4708TIP3    H135615   3.673   1.910  11.755 -2.1139 -0.0163  0.0857
 4708TIP3    H235616   3.723   1.991  11.638 -0.0012 -0.3936  0.7156
 4709TIP3   OH235617   2.083   0.805   2.453  0.4628  0.0424 -0.0747
 4709TIP3    H135618   1.992   0.804   2.481  0.6393  2.2125  0.6423
 4709TIP3    H235619   2.126   0.743   2.512 -0.4576 -0.6552 -0.1249
 4710TIP3   OH235620   2.752   1.272  12.126  0.2163  0.3520  0.1762
 4710TIP3    H135621   2.722   1.193  12.082 -1.6172 -0.4192  2.6575
 4710TIP3    H235622   2.699   1.342  12.088  0.6769  0.1426 -0.8588
 4711TIP3   OH235623   1.364   0.087   2.648  0.3366  0.2768 -0.1747
 4711TIP3    H135624   1.419   0.087   2.725  1.6506 -0.0528 -1.0964
 4711TIP3    H235625   1.354  -0.006   2.625  1.5946  0.4596 -1.5368
 4712TIP3   OH235626   2.486   2.613  13.879 -0.0891 -0.1496 -0.3602
 4712TIP3    H135627   2.393   2.600  13.860 -0.6136  2.9878 -0.2374
 4712TIP3    H235628   2.517   2.669  13.808  2.0035 -2.0521 -1.0012
 4713TIP3   OH235629   2.168   1.995  14.673  0.4867 -0.3961 -0.5483
 4713TIP3    H135630   2.222   1.943  14.613  0.7629  0.2288 -0.8494
 4713TIP3    H235631   2.223   2.070  14.695  0.0498 -0.1804 -0.1986
 4714TIP3   OH235632   4.288   4.899  15.657  0.3960  0.1423 -0.2747
 4714TIP3    H135633   4.342   4.946  15.594  0.3704  0.5379 -0.0063
 4714TIP3    H235634   4.205   4.947  15.659 -0.1499 -0.7463 -1.0391
 4715TIP3   OH235635   0.570   6.330   0.516  0.3639  0.0984  0.4523
 4715TIP3    H135636   0.551   6.237   0.528  0.0447  0.2982  1.5685
 4715TIP3    H235637   0.584   6.340   0.422 -0.8607 -0.8378  0.1548
 4716TIP3   OH235638   0.440   3.043  11.871 -0.4949 -0.6470 -0.0383
 4716TIP3    H135639   0.358   2.998  11.893 -1.8120  0.3984 -2.5282
 4716TIP3    H235640   0.479   2.988  11.803  0.4685 -0.6991  0.5551
 4717TIP3   OH235641   0.097   6.432   0.939  0.3203 -0.0627 -0.0907
 4717TIP3    H135642   0.143   6.357   0.902  2.2409  0.8410  0.3961
 4717TIP3    H235643   0.153   6.507   0.920 -0.3535  0.9017  1.5624
 4718TIP3   OH235644   2.848   6.622   5.420 -0.2459  0.0811  0.0597
 4718TIP3    H135645   2.804   6.592   5.499 -0.2722 -0.9918 -0.3582
 4718TIP3    H235646   2.941   6.616   5.440 -0.2165 -1.6946 -0.5233
 4719TIP3   OH235647   6.286   0.443  12.056 -0.0794  0.2974 -0.2269
 4719TIP3    H135648   6.202   0.434  12.012 -0.5936  0.4126  0.7038
 4719TIP3    H235649   6.300   0.358  12.098  1.1053 -0.2991 -1.8073
 4720TIP3   OH235650   0.867   6.595  12.667  0.4650 -0.3406 -0.4094
 4720TIP3    H135651   0.947   6.623  12.624  0.7159  0.1059  0.3389
 4720TIP3    H235652   0.802   6.661  12.642  0.9923  0.8098  1.1408
 4721TIP3   OH235653   4.748   5.988   6.363  0.3476 -0.4232  0.2071
 4721TIP3    H135654   4.723   6.029   6.445  0.1955 -1.2626  0.5867
 4721TIP3    H235655   4.822   6.040   6.331  0.3866 -0.0845  0.8587
 4722TIP3   OH235656   0.351   0.529  13.017 -0.2927  0.2028  0.5283
 4722TIP3    H135657   0.381   0.438  13.020  1.4508  0.7703  1.5766
 4722TIP3    H235658   0.264   0.527  13.057 -1.0317 -1.2609 -1.0829
 4723TIP3   OH235659   5.936   2.400   2.822 -0.1236 -0.3674  0.5020
 4723TIP3    H135660   6.028   2.427   2.827  0.0723 -0.9882  0.3263
 4723TIP3    H235661   5.898   2.430   2.905 -0.3287  1.9229 -0.3857
 4724TIP3   OH235662   2.362   5.701   2.310  0.0400  0.0162 -0.2913
 4724TIP3    H135663   2.385   5.792   2.329  0.4193 -0.0873 -0.2297
 4724TIP3    H235664   2.372   5.656   2.394  0.7158 -0.2486 -0.5076
 4725TIP3   OH235665   3.899   2.752   2.904  0.0770 -0.0442 -0.1249
 4725TIP3    H135666   3.964   2.685   2.882  1.0860  0.8106  0.2496
 4725TIP3    H235667   3.949   2.832   2.914 -0.8353  0.3006  1.7868
 4726TIP3   OH235668   3.279   2.461  12.823 -0.3490  0.0339 -0.0807
 4726TIP3    H135669   3.327   2.489  12.901  0.5572  0.9098 -0.9347
 4726TIP3    H235670   3.269   2.541  12.772 -0.7175 -0.5853 -0.9771
 4727TIP3   OH235671   0.440   1.696  13.462 -0.1361 -0.5511  0.0119
 4727TIP3    H135672   0.389   1.685  13.542  1.1921  0.7641  1.0550
 4727TIP3    H235673   0.426   1.787  13.436  0.6207 -0.5564 -0.4235
 4728TIP3   OH235674   0.836   1.296   4.895  0.2367 -0.0716  0.5829
 4728TIP3    H135675   0.825   1.250   4.812  1.6158  0.3267  0.1614
 4728TIP3    H235676   0.788   1.244   4.959  1.2087 -1.7410 -0.0183
 4729TIP3   OH235677   0.735   4.920  16.648 -0.2265  0.0431  0.0862
 4729TIP3    H135678   0.681   4.929  16.726  3.0060  0.2144  2.4274
 4729TIP3    H235679   0.772   4.832  16.654  1.5125  0.7258 -0.2395
 4730TIP3   OH235680   1.183   6.585  15.928  0.0157 -0.5098  0.1036
 4730TIP3    H135681   1.165   6.615  15.839 -0.6440 -3.0116 -0.6412
 4730TIP3    H235682   1.173   6.663  15.982 -1.0318  0.7302 -1.8291
 4731TIP3   OH235683   4.848   4.677  11.812  0.7222 -0.0361 -0.2177
 4731TIP3    H135684   4.890   4.761  11.797 -0.3470  1.1172  2.8083
 4731TIP3    H235685   4.754   4.696  11.811  0.4862 -0.9604  1.4599
 4732TIP3   OH235686   6.267   4.058   2.343  0.0234  0.5827  0.2363
 4732TIP3    H135687   6.358   4.075   2.367 -0.1891  2.8081 -0.4068
 4732TIP3    H235688   6.228   4.145   2.336 -2.3001 -0.3883  1.0358
 4733TIP3   OH235689   3.976   2.377  12.027  0.2204  0.2843 -0.1150
 4733TIP3    H135690   4.061   2.347  11.997 -0.5170 -1.6490 -0.3614
 4733TIP3    H235691   3.993   2.417  12.113  1.3799  0.0679 -0.2366
 4734TIP3   OH235692   6.559   3.633   6.227 -0.6321  0.2791  0.6328
 4734TIP3    H135693   6.521   3.545   6.237 -0.3220  0.0234 -0.3274
 4734TIP3    H235694   6.653   3.620   6.241 -0.4481  0.2600 -0.5978
 4735TIP3   OH235695   3.776   3.208  15.260  0.8409 -0.4615  0.4252
 4735TIP3    H135696   3.868   3.237  15.256  0.6996 -0.1018 -0.2548
 4735TIP3    H235697   3.730   3.280  15.304  1.2343 -1.5461  2.7216
 4736TIP3   OH235698   6.807   3.170   5.485 -0.7042  0.0381  0.2969
 4736TIP3    H135699   6.832   3.202   5.398 -1.3907  0.0518  0.1053
 4736TIP3    H235700   6.867   3.215   5.545  0.8828 -1.2338 -0.3072
 4737TIP3   OH235701   3.828   1.540   2.732  0.2503 -0.4848  0.1518
 4737TIP3    H135702   3.780   1.491   2.665  0.2576  0.3901 -0.5040
 4737TIP3    H235703   3.785   1.517   2.814  0.3964 -1.7619 -0.1172
 4738TIP3   OH235704   4.179   1.338  12.234  0.4845  0.3800  0.8846
 4738TIP3    H135705   4.196   1.379  12.149 -0.4992  0.8032  0.8910
 4738TIP3    H235706   4.264   1.301  12.260  0.7241  0.0054 -0.4053
 4739TIP3   OH235707   4.002   1.450   5.810  0.1164 -0.0163  0.0349
 4739TIP3    H135708   3.974   1.466   5.720  0.7832 -0.4676 -0.2618
 4739TIP3    H235709   3.927   1.408   5.852 -0.0850 -0.0990 -0.4077
 4740TIP3   OH235710   1.855   6.736   4.665  0.2837  1.1637  0.1720
 4740TIP3    H135711   1.948   6.756   4.653  0.6374 -0.7402 -0.4347
 4740TIP3    H235712   1.851   6.689   4.748 -0.1789  1.4321  0.3049
 4741TIP3   OH235713   0.813   1.082  14.787 -0.4109  0.2211 -0.0878
 4741TIP3    H135714   0.888   1.141  14.795 -0.6463  1.0630 -3.4124
 4741TIP3    H235715   0.743   1.137  14.749 -1.1403 -1.7442 -1.6805
 4742TIP3   OH235716   5.983   5.633  13.629  0.1361  0.6465 -0.0185
 4742TIP3    H135717   5.931   5.554  13.613 -0.6728  1.2222 -0.2822
 4742TIP3    H235718   6.005   5.666  13.542  0.2100  0.8725  0.0848
 4743TIP3   OH235719   6.403   2.853   2.275  0.3738  0.3610 -0.6633
 4743TIP3    H135720   6.353   2.862   2.357 -1.1406  0.2969 -1.5632
 4743TIP3    H235721   6.400   2.939   2.235  0.7719  0.2887 -0.8525
 4744TIP3   OH235722   4.371   2.796   2.052 -0.3492 -0.2913 -0.5815
 4744TIP3    H135723   4.355   2.885   2.085  1.2397  0.1121 -0.8579
 4744TIP3    H235724   4.321   2.740   2.111 -0.1399  0.6783  0.5572
 4745TIP3   OH235725   2.155   1.152  13.182 -0.4885 -0.5580  0.4912
 4745TIP3    H135726   2.175   1.111  13.098  0.3280 -0.5243  0.6608
 4745TIP3    H235727   2.179   1.086  13.247 -0.9223 -0.5049  0.7060
 4746TIP3   OH235728   3.135   6.618   5.451 -0.1886 -0.3084  0.5929
 4746TIP3    H135729   3.189   6.626   5.372 -0.1000  1.6368  0.8151
 4746TIP3    H235730   3.187   6.659   5.519 -2.1447  2.1220  0.7015
 4747TIP3   OH235731   3.320   1.322  11.426  0.1646 -0.1649  0.3739
 4747TIP3    H135732   3.308   1.297  11.335  3.0892 -0.0968 -0.0639
 4747TIP3    H235733   3.278   1.407  11.433  1.6287  0.7432 -1.4416
 4748TIP3   OH235734   1.749   2.577   1.796  0.0134 -0.5569 -0.1698
 4748TIP3    H135735   1.693   2.522   1.850  2.5690 -1.0190  2.1326
 4748TIP3    H235736   1.838   2.559   1.828  1.2017  2.3534 -1.6734
 4749TIP3   OH235737   3.830   6.035  14.325 -0.3244 -0.6602  0.4595
 4749TIP3    H135738   3.746   6.005  14.291  0.0229 -1.0945 -0.0249
 4749TIP3    H235739   3.893   5.968  14.298  0.0970 -0.6066  1.2690
 4750TIP3   OH235740   1.982   3.764  13.822 -0.2405 -0.1928  0.0558
 4750TIP3    H135741   2.072   3.788  13.845 -0.4478 -0.4516  1.1739
 4750TIP3    H235742   1.989   3.674  13.791 -0.2354 -0.5103  0.9706
 4751TIP3   OH235743   0.640   0.426   1.051 -0.0835  0.1075  0.0387
 4751TIP3    H135744   0.659   0.494   1.116  1.3648 -1.9101  1.8057
 4751TIP3    H235745   0.687   0.455   0.973  0.6306  1.0866  0.8016
 4752TIP3   OH235746   0.310   0.227  12.688 -0.0890 -0.3555 -0.0979
 4752TIP3    H135747   0.355   0.282  12.624  1.3543  0.1834  1.3217
 4752TIP3    H235748   0.287   0.288  12.759  1.7400 -1.5995  1.6040
 4753TIP3   OH235749   2.333   0.426   2.923 -0.0848 -0.4276 -0.3128
 4753TIP3    H135750   2.304   0.516   2.907  0.4696 -0.4428 -1.4769
 4753TIP3    H235751   2.391   0.433   2.998 -1.2534 -0.0473  0.5674
 4754TIP3   OH235752   6.507   3.724  11.096  0.5637  0.0495 -0.0242
 4754TIP3    H135753   6.444   3.701  11.164  0.2836  0.1710 -0.2412
 4754TIP3    H235754   6.455   3.764  11.027  0.9260  0.4642 -0.0611
 4755TIP3   OH235755   4.181   5.734   1.340  0.0875 -0.7439 -0.0599
 4755TIP3    H135756   4.179   5.734   1.436 -0.2810 -1.3493 -0.0635
 4755TIP3    H235757   4.102   5.781   1.314  0.4607 -0.1135 -0.0678
 4756TIP3   OH235758   4.762   6.175   1.058 -0.3438  0.2037  0.0185
 4756TIP3    H135759   4.822   6.249   1.062 -0.9043  0.7285 -1.1135
 4756TIP3    H235760   4.817   6.100   1.035 -0.1306  0.7071 -1.1462
 4757TIP3   OH235761   3.745   3.999  16.829 -0.0722  0.4634  0.5546
 4757TIP3    H135762   3.746   4.090  16.800  0.1735 -0.0244 -1.0424
 4757TIP3    H235763   3.725   3.949  16.750  2.0948 -1.0460  0.9079
 4758TIP3   OH235764   5.172   0.059   5.696 -0.5662  0.4781  0.8042
 4758TIP3    H135765   5.145   0.079   5.786 -0.1390 -3.9689  2.0246
 4758TIP3    H235766   5.244  -0.004   5.706 -0.9367 -0.5697 -2.6686
 4759TIP3   OH235767   5.891   5.974  11.384  0.3300  0.0884  0.0430
 4759TIP3    H135768   5.925   5.995  11.297  1.0711 -0.5442  0.1770
 4759TIP3    H235769   5.797   5.990  11.377  0.2114 -1.1284 -1.2409
 4760TIP3   OH235770   1.476   4.255   0.011  0.1958  0.1290  0.2091
 4760TIP3    H135771   1.530   4.190   0.056 -1.3113 -0.7278  0.8220
 4760TIP3    H235772   1.425   4.205  -0.052 -1.4084  0.5946  1.0962
 4761TIP3   OH235773   2.766   2.466   4.426  0.3073  0.1342 -0.0270
 4761TIP3    H135774   2.700   2.448   4.493  0.9951 -3.0431 -0.1188
 4761TIP3    H235775   2.820   2.535   4.464  0.5846 -1.4784  2.6741
 4762TIP3   OH235776   0.434   0.202   5.543  0.3435 -0.1898  0.5190
 4762TIP3    H135777   0.422   0.291   5.509 -1.4817 -0.8977 -0.8112
 4762TIP3    H235778   0.378   0.198   5.621  0.3067 -0.2018  0.4922
 4763TIP3   OH235779   0.199   2.858  11.477 -0.3308  0.4791  0.1423
 4763TIP3    H135780   0.176   2.789  11.414  0.6976 -0.3827  0.6923
 4763TIP3    H235781   0.295   2.862  11.474 -0.4071  2.5035 -0.5128
 4764TIP3   OH235782   3.939   6.512  11.770  0.6801 -0.0121  0.2177
 4764TIP3    H135783   3.873   6.443  11.779  0.2707  0.2468 -0.7209
 4764TIP3    H235784   3.956   6.540  11.859 -1.6104  0.9578  0.3844
 4765TIP3   OH235785   2.202   4.359   4.980  0.0118 -0.9143  0.3203
 4765TIP3    H135786   2.157   4.337   5.061 -0.6322  0.2092  0.2731
 4765TIP3    H235787   2.289   4.387   5.007  0.1487 -1.5495  0.5379
 4766TIP3   OH235788   1.798   6.222  11.680 -0.1569 -0.1398  0.3403
 4766TIP3    H135789   1.769   6.231  11.589 -0.8063 -0.4343  0.5131
 4766TIP3    H235790   1.871   6.162  11.676 -0.2471 -0.2287  0.0214
 4767TIP3   OH235791   0.769   1.913   4.854 -0.3195 -0.1523  0.2980
 4767TIP3    H135792   0.823   1.958   4.919 -0.2674 -1.1373  0.9421
 4767TIP3    H235793   0.685   1.960   4.856 -0.2081  0.0239  0.8453
 4768TIP3   OH235794   4.612   1.555  16.981  0.2492  0.2979 -0.8897
 4768TIP3    H135795   4.556   1.571  16.905 -0.2251  1.2582 -0.3534
 4768TIP3    H235796   4.598   1.631  17.038  0.2608 -0.6306  0.3752
 4769TIP3   OH235797   3.565   5.909   0.906 -0.1227  0.0696 -0.1651
 4769TIP3    H135798   3.515   5.827   0.905 -2.9351  1.7263 -0.6474
 4769TIP3    H235799   3.579   5.929   0.813  2.1538 -0.7484 -0.0354
 4770TIP3   OH235800   5.551   1.876   5.287  0.4432  0.2060  0.1943
 4770TIP3    H135801   5.474   1.931   5.269 -0.2875 -0.8847 -0.0842
 4770TIP3    H235802   5.514   1.798   5.328  1.3101 -0.7373 -0.7998
 4771TIP3   OH235803   3.144   6.060  14.558  0.0601  0.2275 -0.1459
 4771TIP3    H135804   3.097   5.984  14.594 -0.5113  1.1499  1.0977
 4771TIP3    H235805   3.206   6.084  14.627  1.0931  0.1527 -1.0311
 4772TIP3   OH235806   4.477   6.370   4.662  0.2713  0.4519 -0.0797
 4772TIP3    H135807   4.492   6.465   4.658 -0.2261  0.5285 -0.1795
 4772TIP3    H235808   4.389   6.362   4.698  1.0914 -0.0145  1.9083
 4773TIP3   OH235809   6.285   0.352  11.059 -0.5799 -0.2677 -0.4736
 4773TIP3    H135810   6.247   0.283  11.114 -0.9443  0.0987 -0.2563
 4773TIP3    H235811   6.366   0.377  11.103 -0.7971 -0.0773 -0.1828
 4774TIP3   OH235812   1.470   0.132  13.925 -0.2962 -0.0367  0.1972
 4774TIP3    H135813   1.530   0.082  13.870  0.9374 -0.7899  2.1566
 4774TIP3    H235814   1.437   0.201  13.868  2.4164  0.3745 -0.9590
 4775TIP3   OH235815   4.361   2.951  11.790  0.3214 -0.0330  0.4134
 4775TIP3    H135816   4.267   2.969  11.787 -0.1563 -2.3116  0.6499
 4775TIP3    H235817   4.388   2.980  11.877 -0.4198 -0.4444  0.7873
 4776TIP3   OH235818   5.304   5.351  12.326  0.4090  0.2886  0.9093
 4776TIP3    H135819   5.366   5.279  12.325 -2.2771 -2.1066 -1.4056
 4776TIP3    H235820   5.264   5.347  12.413  1.6427  0.1935  1.4703
 4777TIP3   OH235821   4.958   4.567  13.368  0.0884  0.2810 -0.3542
 4777TIP3    H135822   4.968   4.571  13.273 -0.5906  3.2019 -0.3474
 4777TIP3    H235823   5.029   4.510  13.397 -0.6523 -1.9637 -2.7158
 4778TIP3   OH235824   1.049   5.388   1.235  0.4127 -0.2046  0.5426
 4778TIP3    H135825   1.135   5.359   1.268 -0.5959 -1.0247  2.5733
 4778TIP3    H235826   1.017   5.314   1.183  0.7029 -0.1155  0.2366
 4779TIP3   OH235827   5.888   2.199  14.106  0.4312  0.7239  0.2531
 4779TIP3    H135828   5.816   2.262  14.098 -0.9679 -0.8274  0.4147
 4779TIP3    H235829   5.948   2.240  14.168 -0.4189  1.9460  0.2865
 4780TIP3   OH235830   0.618   3.066  16.989  0.5589  0.3168  0.4261
 4780TIP3    H135831   0.538   3.117  16.976 -1.0710 -2.1953  0.1793
 4780TIP3    H235832   0.675   3.090  16.916 -1.0544  0.1802 -0.9079
 4781TIP3   OH235833   0.751   3.372  12.973  0.1290  0.2460 -0.6329
 4781TIP3    H135834   0.699   3.452  12.980  0.6726  0.4074  1.7545
 4781TIP3    H235835   0.713   3.313  13.039  0.4646 -1.0760 -1.5914
 4782TIP3   OH235836   3.954   1.614  11.401 -0.0213  0.7548 -0.1453
 4782TIP3    H135837   3.896   1.631  11.475 -0.0405 -0.5531  0.1429
 4782TIP3    H235838   4.041   1.635  11.434  0.0615 -0.5763  0.5017
 4783TIP3   OH235839   1.129   0.785   3.382  0.0966  0.1686  0.6585
 4783TIP3    H135840   1.199   0.842   3.415  1.1047 -1.4424  1.3246
 4783TIP3    H235841   1.172   0.727   3.320 -1.1973  1.0256 -1.0708
 4784TIP3   OH235842   0.741   2.527  11.790  0.0700 -0.4484 -0.7488
 4784TIP3    H135843   0.737   2.448  11.844  1.1581 -0.5200 -0.7669
 4784TIP3    H235844   0.696   2.594  11.841  1.0710 -0.5197  0.2215
 4785TIP3   OH235845   3.526   1.891  16.935 -0.4703  0.2693 -0.1610
 4785TIP3    H135846   3.473   1.966  16.963  1.2673  0.8089  1.7879
 4785TIP3    H235847   3.523   1.830  17.009 -1.6721 -1.5188 -1.6439
 4786TIP3   OH235848   4.741   3.652  17.090  0.4480 -0.3089 -0.2685
 4786TIP3    H135849   4.692   3.684  17.166 -0.1876  0.0884 -0.8400
 4786TIP3    H235850   4.776   3.567  17.118  0.6894  0.0831  0.6645
 4787TIP3   OH235851   6.760   0.637   1.580  0.5256  0.1126 -0.0314
 4787TIP3    H135852   6.824   0.601   1.643  0.8959  1.2402  0.2487
 4787TIP3    H235853   6.742   0.564   1.521  1.5191 -0.4449  0.3286
 4788TIP3   OH235854   3.578   0.358   5.776  0.2923  0.2383  0.4131
 4788TIP3    H135855   3.606   0.389   5.862 -0.9588  0.7747  0.6431
 4788TIP3    H235856   3.659   0.351   5.726  0.7613  2.5444  0.7841
 4789TIP3   OH235857   5.054   5.761  15.364 -0.5013 -0.2865 -0.6048
 4789TIP3    H135858   5.075   5.804  15.447 -0.1076 -3.7964  1.1955
 4789TIP3    H235859   5.138   5.756  15.318  0.0299 -1.8455  0.5142
 4790TIP3   OH235860   0.064   2.917   5.660 -0.2788 -0.2844 -0.3093
 4790TIP3    H135861   0.026   2.851   5.603 -0.1401  0.2433 -1.0163
 4790TIP3    H235862   0.006   2.993   5.650 -0.9790 -0.6002  1.2107
 4791TIP3   OH235863   3.103   0.064   3.674 -0.9213 -0.0660 -0.2747
 4791TIP3    H135864   3.097   0.064   3.770 -1.1691  0.5615 -0.2851
 4791TIP3    H235865   3.195   0.045   3.656 -1.6513 -4.3140 -0.0065
 4792TIP3   OH235866   4.938   2.761  14.065  0.4915 -0.0089 -0.1251
 4792TIP3    H135867   4.876   2.711  14.117  0.0380  0.8317  0.1402
 4792TIP3    H235868   5.008   2.698  14.045 -0.1308 -0.7828  0.0966
 4793TIP3   OH235869   1.560   1.228   3.068 -0.6726  1.0595 -0.6450
 4793TIP3    H135870   1.516   1.222   3.153 -1.3083  3.3159 -0.7912
 4793TIP3    H235871   1.490   1.246   3.006 -0.3168 -1.3353 -1.8153
 4794TIP3   OH235872   6.070   3.324  15.357 -0.1205  0.6711 -0.3641
 4794TIP3    H135873   5.978   3.305  15.377 -0.0847  0.3568 -0.4969
 4794TIP3    H235874   6.107   3.351  15.441 -0.1243 -0.0442 -0.1264
 4795TIP3   OH235875   4.370   5.297   4.447 -0.5294 -0.2798  0.2764
 4795TIP3    H135876   4.385   5.211   4.408  0.6177  0.1206 -0.1767
 4795TIP3    H235877   4.334   5.349   4.375 -0.6045 -0.1987  0.3736
 4796TIP3   OH235878   0.203   0.721   0.891 -0.3093 -0.1892 -0.2863
 4796TIP3    H135879   0.170   0.677   0.813 -0.9416  2.2770 -1.4622
 4796TIP3    H235880   0.296   0.732   0.874 -0.6377  1.3264 -1.2270
 4797TIP3   OH235881   1.102   4.950  13.273 -0.0738  0.3882 -0.0213
 4797TIP3    H135882   1.048   4.999  13.211 -0.1955  0.6512  0.2912
 4797TIP3    H235883   1.040   4.918  13.339  0.3923  2.4091  1.4657
 4798TIP3   OH235884   0.238   0.032   1.395  0.0516 -0.6495  0.2619
 4798TIP3    H135885   0.241   0.101   1.328  1.4899 -0.8800  0.0780
 4798TIP3    H235886   0.212  -0.047   1.347  0.2806 -0.6426  0.1254
 4799TIP3   OH235887   0.918   5.755   1.837  0.2987 -0.4828 -0.2109
 4799TIP3    H135888   0.956   5.816   1.774  0.8232 -0.6642 -0.0793
 4799TIP3    H235889   0.898   5.676   1.786 -0.1969 -0.2716 -0.3424
 4800TIP3   OH235890   0.151   4.547   0.951  0.3576  0.0483 -0.4359
 4800TIP3    H135891   0.168   4.480   1.017  1.6574 -0.1283 -0.9254
 4800TIP3    H235892   0.071   4.518   0.907 -1.2183  0.7808  1.8083
 4801TIP3   OH235893   3.178   2.849  13.227 -0.3045  0.3534  0.1212
 4801TIP3    H135894   3.185   2.762  13.188 -2.0829  0.5909 -0.7790
 4801TIP3    H235895   3.104   2.841  13.288 -0.5209  1.2505 -0.0212
 4802TIP3   OH235896   0.252   4.694   4.333 -0.4541 -0.1326  0.1273
 4802TIP3    H135897   0.172   4.643   4.315 -0.8176 -0.2464  1.9433
 4802TIP3    H235898   0.323   4.636   4.306 -1.0046  0.3124 -2.3150
 4803TIP3   OH235899   3.603   1.453   4.731  0.0059  0.0937  0.0375
 4803TIP3    H135900   3.648   1.504   4.663  0.0788  2.3058  1.7231
 4803TIP3    H235901   3.669   1.390   4.760  0.7594  0.7417 -0.2370
 4804TIP3   OH235902   4.690   6.516   5.503  0.2547 -0.3100 -0.1212
 4804TIP3    H135903   4.661   6.604   5.479 -1.3206 -0.4861  1.0823
 4804TIP3    H235904   4.741   6.529   5.583  0.7050 -0.4070 -0.3883
 4805TIP3   OH235905   1.940   4.971  16.859 -0.5029  0.1200 -0.3806
 4805TIP3    H135906   1.924   4.980  16.765 -0.8783 -0.7460 -0.4021
 4805TIP3    H235907   1.994   4.893  16.868  2.1430  1.9232 -0.1191
 4806TIP3   OH235908   0.806   1.974  16.243 -0.3827  0.1316 -0.3307
 4806TIP3    H135909   0.739   1.911  16.219 -0.4625  0.1754 -0.2213
 4806TIP3    H235910   0.849   1.997  16.161  1.0449 -1.6436 -0.1283
 4807TIP3   OH235911   5.996   1.534   6.815 -0.1440  0.0981  0.3280
 4807TIP3    H135912   5.914   1.507   6.855 -1.5369  1.6687 -1.3550
 4807TIP3    H235913   5.983   1.627   6.794  2.3989  0.6102  0.8731
 4808TIP3   OH235914   2.604   1.108  13.536  0.3015 -0.2425 -0.4952
 4808TIP3    H135915   2.526   1.123  13.483  0.0698  1.6456  0.3606
 4808TIP3    H235916   2.571   1.092  13.624  0.8918  0.8513 -0.0695
 4809TIP3   OH235917   2.845   6.061   0.234 -0.5358 -0.1203  0.0994
 4809TIP3    H135918   2.858   5.971   0.263  1.7696 -0.2413 -1.1684
 4809TIP3    H235919   2.843   6.055   0.138 -0.9838  1.1012  0.0207
 4810TIP3   OH235920   0.066   5.744  16.347 -0.4826 -0.5860  1.1638
 4810TIP3    H135921   0.122   5.667  16.350  0.7771  0.3281  1.4370
 4810TIP3    H235922   0.005   5.733  16.419 -0.9994 -1.8472  0.5366
 4811TIP3   OH235923   0.189   5.097   2.555 -0.3790  0.0814  0.1594
 4811TIP3    H135924   0.213   5.188   2.539 -0.6648 -0.1792 -1.9152
 4811TIP3    H235925   0.094   5.098   2.559 -0.2989  0.2032  2.3970
 4812TIP3   OH235926   4.555   5.880   0.992 -0.0544 -0.3065 -0.1543
 4812TIP3    H135927   4.474   5.929   1.004  0.6592  0.1805  3.0702
 4812TIP3    H235928   4.606   5.898   1.070  3.6497  0.2105 -2.5775
 4813TIP3   OH235929   6.787   4.408  10.546 -0.7031 -0.1616  0.0217
 4813TIP3    H135930   6.813   4.464  10.473 -2.4694 -2.0435 -2.1417
 4813TIP3    H235931   6.866   4.358  10.568  0.8038  2.8752  1.7846
 4814TIP3   OH235932   4.634   2.794   2.886  0.3797  0.1253  1.0314
 4814TIP3    H135933   4.587   2.801   2.802  0.5624  1.7013  1.0564
 4814TIP3    H235934   4.572   2.748   2.943  0.1299 -0.6846  0.1355
 4815TIP3   OH235935   6.589   5.251   2.045 -0.4624  0.3498 -0.2675
 4815TIP3    H135936   6.578   5.269   2.138 -1.3832 -0.0821 -0.2847
 4815TIP3    H235937   6.510   5.202   2.021 -1.6214  2.8782 -1.8675
 4816TIP3   OH235938   2.886   1.598   4.112  0.5900  0.0269  0.2009
 4816TIP3    H135939   2.877   1.556   4.027 -0.5366 -2.2733  1.4003
 4816TIP3    H235940   2.865   1.690   4.097  0.6650 -0.3094 -2.0293
 4817TIP3   OH235941   3.444   5.494   2.881  0.0512  0.5800 -0.4104
 4817TIP3    H135942   3.479   5.582   2.866  0.7807  0.0496 -1.9324
 4817TIP3    H235943   3.392   5.502   2.961  0.8788  2.1747 -0.0124
 4818TIP3   OH235944   2.173   0.666  13.920  0.0184 -0.1215  0.5293
 4818TIP3    H135945   2.233   0.629  13.855 -1.3911 -0.8733 -0.3746
 4818TIP3    H235946   2.226   0.729  13.968  0.7581  1.5576 -2.3300
 4819TIP3   OH235947   3.389   3.781  14.402 -0.4021  0.1697 -0.2687
 4819TIP3    H135948   3.387   3.851  14.467 -2.0246 -0.2009  0.1022
 4819TIP3    H235949   3.373   3.824  14.319  3.1284  0.8659 -0.6933
 4820TIP3   OH235950   0.086   3.343   1.458 -0.2794 -0.1883 -0.6545
 4820TIP3    H135951   0.060   3.253   1.440 -1.0285  0.0433 -0.7303
 4820TIP3    H235952   0.028   3.397   1.403  0.6780  0.3086 -1.2014
 4821TIP3   OH235953   2.348   3.874  11.265  0.0084 -0.3044  0.1366
 4821TIP3    H135954   2.294   3.871  11.344 -0.1592 -1.5927 -0.0156
 4821TIP3    H235955   2.411   3.803  11.277 -0.2620 -0.7473 -1.0579
 4822TIP3   OH235956   3.314   5.969   1.060 -0.0361  0.2501  0.4465
 4822TIP3    H135957   3.393   5.937   1.016 -0.0233  1.1940 -0.2391
 4822TIP3    H235958   3.267   6.017   0.992 -1.0060  0.0463  0.9615
 4823TIP3   OH235959   0.914   1.913   1.027  0.5263  0.2261  0.4649
 4823TIP3    H135960   0.860   1.892   1.103 -0.5986  0.0251 -0.3726
 4823TIP3    H235961   0.893   1.846   0.963  2.3545 -0.3037  0.3792
 4824TIP3   OH235962   1.578   1.214   0.340 -0.3243  0.2878  0.3353
 4824TIP3    H135963   1.580   1.266   0.420 -1.2626  1.0390 -0.1170
 4824TIP3    H235964   1.668   1.217   0.307 -0.1834  0.9213  0.7710
 4825TIP3   OH235965   2.045   4.090  14.793  0.2260 -0.3184  0.2985
 4825TIP3    H135966   2.084   4.144  14.862 -0.1414  0.1122  0.1756
 4825TIP3    H235967   2.107   4.096  14.720  0.2713 -0.2006  0.3464
 4826TIP3   OH235968   6.387   5.842   1.092  0.1601  0.5841 -0.5616
 4826TIP3    H135969   6.382   5.839   1.188  0.4976 -0.4728 -0.5714
 4826TIP3    H235970   6.302   5.874   1.064 -0.7829 -1.4092 -0.0152
 4827TIP3   OH235971   6.063   6.463  15.755 -0.1806  0.2016  0.3830
 4827TIP3    H135972   6.041   6.491  15.843  0.0649  1.1619  0.1429
 4827TIP3    H235973   6.003   6.391  15.736  1.2081 -1.4773  2.1483
 4828TIP3   OH235974   0.344   1.542  14.513  0.4063 -0.6848  0.0528
 4828TIP3    H135975   0.415   1.480  14.495  0.0026 -0.7696 -1.2908
 4828TIP3    H235976   0.269   1.506  14.465  0.0749  0.6488 -0.4318
 4829TIP3   OH235977   5.879   6.415  12.301 -0.4462 -0.1880 -0.6840
 4829TIP3    H135978   5.889   6.379  12.389 -2.3217  0.0152 -0.3610
 4829TIP3    H235979   5.795   6.379  12.270  1.8195 -3.1294 -3.7659
 4830TIP3   OH235980   4.404   4.806  13.594 -0.2798 -0.0683  0.0781
 4830TIP3    H135981   4.364   4.753  13.663 -1.5858  0.1559 -0.4904
 4830TIP3    H235982   4.360   4.891  13.600 -0.0240  0.1221 -0.6749
 4831TIP3   OH235983   6.576   5.726   3.271  0.6864  0.0369 -0.1459
 4831TIP3    H135984   6.614   5.712   3.357  1.6751  2.6919 -0.1083
 4831TIP3    H235985   6.626   5.670   3.212 -0.4327 -2.3018  1.0737
 4832TIP3   OH235986   0.941   4.610   3.538 -0.1636  0.3930 -0.5572
 4832TIP3    H135987   0.992   4.569   3.468  1.2079 -1.0752  1.2415
 4832TIP3    H235988   1.004   4.624   3.608 -1.9957 -0.4619  1.3263
 4833TIP3   OH235989   4.072   6.559  16.944  0.1020 -0.5045 -0.2371
 4833TIP3    H135990   3.986   6.598  16.929 -0.4689 -0.4100  2.8238
 4833TIP3    H235991   4.132   6.610  16.891 -1.6982 -0.4557 -2.2851
 4834TIP3   OH235992   2.776   6.449  16.797  0.2991  0.4884  0.5721
 4834TIP3    H135993   2.688   6.466  16.832  0.1484  0.4534  0.2140
 4834TIP3    H235994   2.792   6.356  16.814 -1.5412 -0.6495 -3.2934
 4835TIP3   OH235995   3.130   6.599   1.532 -0.1568  0.1700 -0.2021
 4835TIP3    H135996   3.073   6.666   1.494 -0.9441 -0.8810 -0.9209
 4835TIP3    H235997   3.099   6.517   1.494  1.3402 -0.5115  0.0176
 4836TIP3   OH235998   1.650   6.051  15.975 -0.4520  0.1542 -0.1554
 4836TIP3    H135999   1.673   5.961  15.997 -0.3876 -0.1877 -1.5600
 4836TIP3    H236000   1.717   6.104  16.018  0.3875 -0.5653 -0.5601
 4837TIP3   OH236001   6.717   0.782   4.394  0.5862  0.8584  0.0755
 4837TIP3    H136002   6.783   0.737   4.446 -0.1409  0.3499  0.5651
 4837TIP3    H236003   6.735   0.875   4.409  0.0183  0.7182  1.7104
 4838TIP3   OH236004   3.055   1.853  11.563  0.1139  0.3986  0.2804
 4838TIP3    H136005   3.130   1.814  11.606 -0.2767 -0.3694  0.2818
 4838TIP3    H236006   3.031   1.928  11.617  2.0009  1.7504 -0.7166
 4839TIP3   OH236007   2.156   3.889  15.662 -0.3060  0.2884  0.0748
 4839TIP3    H136008   2.202   3.819  15.615  0.7325  1.7143 -1.0906
 4839TIP3    H236009   2.191   3.884  15.751  0.6778  0.1053 -0.3086
 4840TIP3   OH236010   1.257   1.619   1.830  0.6157 -0.3318  0.2142
 4840TIP3    H136011   1.262   1.543   1.773 -0.4029 -0.3571  0.1627
 4840TIP3    H236012   1.287   1.692   1.776  3.0804 -0.9232  0.7180
 4841TIP3   OH236013   6.445   3.283  12.200  0.1391  0.1133  0.4248
 4841TIP3    H136014   6.381   3.263  12.132  0.3404  2.3679 -0.4941
 4841TIP3    H236015   6.465   3.199  12.241 -0.4490 -1.1910 -1.9006
 4842TIP3   OH236016   0.571   3.848   4.121 -0.0228  0.3437  0.0604
 4842TIP3    H136017   0.537   3.809   4.202 -2.1831  0.1077 -0.9190
 4842TIP3    H236018   0.534   3.793   4.051  0.7616  1.3199 -1.1398
 4843TIP3   OH236019   6.049   1.968   4.014 -0.7267  0.4152  0.0107
 4843TIP3    H136020   6.141   1.990   4.026 -1.1965  2.0802  0.6388
 4843TIP3    H236021   6.028   1.995   3.925 -0.3016 -1.1375 -0.5864
 4844TIP3   OH236022   6.327   2.146   0.637 -0.3990 -0.1073  0.3901
 4844TIP3    H136023   6.243   2.108   0.612  0.6829 -0.3237 -3.2143
 4844TIP3    H236024   6.388   2.072   0.637  0.5080  0.6162 -0.7091
 4845TIP3   OH236025   0.704   1.271   1.071  0.2776 -0.2047 -0.3491
 4845TIP3    H136026   0.703   1.184   1.031  2.9554 -0.0275 -0.9149
 4845TIP3    H236027   0.701   1.331   0.996 -2.9525  0.2507  0.0856
 4846TIP3   OH236028   4.305   0.304   4.378 -0.2290 -0.1682 -0.0111
 4846TIP3    H136029   4.215   0.290   4.408 -0.8722  2.7793 -0.4395
 4846TIP3    H236030   4.320   0.234   4.315 -2.3215 -0.5444 -0.1427
 4847TIP3   OH236031   2.756   2.577   0.140  0.1354 -0.0135  0.4553
 4847TIP3    H136032   2.670   2.617   0.154  0.2505  0.2144  0.5209
 4847TIP3    H236033   2.811   2.649   0.108  0.0324 -0.3985 -0.5943
 4848TIP3   OH236034   4.796   4.752  14.565  0.0637 -0.3612  0.0613
 4848TIP3    H136035   4.868   4.690  14.551  0.9508  0.1917  2.0476
 4848TIP3    H236036   4.840   4.836  14.577 -0.7681 -0.3606  3.4336
 4849TIP3   OH236037   0.614   5.474   2.376 -0.1604 -0.5390  0.6796
 4849TIP3    H136038   0.572   5.400   2.419 -0.5739  0.5794  2.2694
 4849TIP3    H236039   0.578   5.474   2.287  0.5176 -2.7443  0.3762
 4850TIP3   OH236040   5.610   0.037  12.009  0.5780 -0.4172 -0.6011
 4850TIP3    H136041   5.647  -0.046  12.040  0.5606 -1.3797 -3.0302
 4850TIP3    H236042   5.520   0.036  12.039  0.2828 -1.7786 -1.4715
 4851TIP3   OH236043   0.696   5.832   0.779  0.3197  0.4295  0.1296
 4851TIP3    H136044   0.773   5.867   0.734  2.5203 -0.3412  3.1176
 4851TIP3    H236045   0.703   5.737   0.771 -1.3524  0.3882 -1.1491
 4852TIP3   OH236046   1.083   3.392   6.589  0.4041 -0.2657 -0.4164
 4852TIP3    H136047   1.021   3.457   6.555  1.5927  1.0767 -0.0361
 4852TIP3    H236048   1.122   3.353   6.511  0.0824 -0.1646 -0.6311
 4853TIP3   OH236049   5.588   6.513  16.741 -0.5907 -0.0983 -0.6045
 4853TIP3    H136050   5.653   6.557  16.797 -1.1581 -0.1104  0.0639
 4853TIP3    H236051   5.590   6.561  16.659 -0.9124  0.9275 -0.0145
 4854TIP3   OH236052   4.686   3.798  11.756  0.5900 -0.2487 -0.0202
 4854TIP3    H136053   4.748   3.760  11.818  0.5971  0.8797  0.6793
 4854TIP3    H236054   4.604   3.750  11.771  0.9463 -0.8658 -0.0538
 4855TIP3   OH236055   5.409   0.722   5.158 -0.4546 -0.5915 -0.2519
 4855TIP3    H136056   5.479   0.713   5.223 -0.1853 -0.2884 -0.4941
 4855TIP3    H236057   5.333   0.680   5.197  0.3629 -2.5580 -0.7318
 4856TIP3   OH236058   5.745   6.227   1.673  0.1015  0.2359 -0.3108
 4856TIP3    H136059   5.690   6.163   1.628  1.2442 -0.4083 -0.7978
 4856TIP3    H236060   5.824   6.233   1.620  1.0116  0.2746  1.0137
 4857TIP3   OH236061   0.708   4.268   2.927 -0.2510 -0.0219  0.4580
 4857TIP3    H136062   0.749   4.198   2.876 -1.4879  0.3646 -1.1291
 4857TIP3    H236063   0.659   4.223   2.996 -1.3005 -0.7646 -0.7499
 4858TIP3   OH236064   4.249   1.597  16.646 -0.2319  0.3788  0.6952
 4858TIP3    H136065   4.199   1.522  16.615 -0.4994  0.2906  1.3447
 4858TIP3    H236066   4.188   1.647  16.700 -0.0131  0.9892  0.3831
 4859TIP3   OH236067   5.303   6.075  12.969 -0.3969 -0.2209  0.3643
 4859TIP3    H136068   5.272   6.003  12.915 -0.8871  0.1077  0.2148
 4859TIP3    H236069   5.364   6.034  13.031  2.9752 -0.0905 -2.7303
 4860TIP3   OH236070   1.383   3.481  16.624 -0.2014 -0.1790 -0.3113
 4860TIP3    H136071   1.398   3.473  16.530 -1.1940  0.3918 -0.5268
 4860TIP3    H236072   1.349   3.395  16.650  1.6449 -0.8810 -0.1489
 4861TIP3   OH236073   0.270   6.134   1.954 -0.3278 -0.1716  0.1701
 4861TIP3    H136074   0.315   6.189   2.017 -0.9399  1.9494 -1.1961
 4861TIP3    H236075   0.178   6.157   1.962 -0.6154 -1.1008 -0.3316
 4862TIP3   OH236076   1.407   0.381  15.209  0.2118 -0.1148 -0.2335
 4862TIP3    H136077   1.475   0.438  15.245  0.4781 -0.1211 -0.7182
 4862TIP3    H236078   1.359   0.437  15.147  1.4735 -0.8342 -1.8956
 4863TIP3   OH236079   0.579   6.218  16.004  0.1454  0.0908  0.8929
 4863TIP3    H136080   0.611   6.303  15.974 -2.7345  0.2893 -1.9560
 4863TIP3    H236081   0.601   6.158  15.932 -1.4935 -0.7100  1.0361
 4864TIP3   OH236082   3.975   5.278   2.909 -0.0345  0.2387 -0.4748
 4864TIP3    H136083   3.929   5.215   2.964 -2.7011  1.1140 -1.5953
 4864TIP3    H236084   3.941   5.364   2.936  0.9824  0.9331 -1.3296
 4865TIP3   OH236085   5.312   2.008   5.771  0.5090  0.1001  0.0006
 4865TIP3    H136086   5.344   1.932   5.820 -0.3884 -1.3081 -1.5052
 4865TIP3    H236087   5.295   2.075   5.837  1.5161 -0.9491  1.3416
 4866TIP3   OH236088   5.559   4.720   0.681  0.5495  0.1799 -0.0160
 4866TIP3    H136089   5.628   4.719   0.615  0.3539  1.3716 -0.2551
 4866TIP3    H236090   5.564   4.634   0.722  0.6968 -0.5717 -1.5566
 4867TIP3   OH236091   4.670   5.618  13.373 -0.5189  0.1548  0.2958
 4867TIP3    H136092   4.625   5.612  13.457  0.7785  0.4867  1.0228
 4867TIP3    H236093   4.740   5.682  13.387  0.3415 -0.5330 -0.7507
 4868TIP3   OH236094   2.409   1.746  11.915  0.2344 -0.1218 -0.2090
 4868TIP3    H136095   2.385   1.762  11.824  0.2861  0.9162 -0.0467
 4868TIP3    H236096   2.466   1.820  11.938  0.7639 -0.7314  0.4620
 4869TIP3   OH236097   4.114   3.546  15.973 -0.2232 -0.5627 -0.1818
 4869TIP3    H136098   4.171   3.515  15.903 -1.4295 -3.0588 -0.1190
 4869TIP3    H236099   4.160   3.525  16.054 -1.1137 -2.4235 -0.1358
 4870TIP3   OH236100   0.723   1.085   2.760  0.0000 -0.7167  0.4694
 4870TIP3    H136101   0.762   1.004   2.725 -1.9287 -1.0230 -1.1254
 4870TIP3    H236102   0.795   1.130   2.803  2.1159 -1.2704 -2.3114
 4871TIP3   OH236103   0.713   1.318  17.114  0.6059  0.3811 -0.2015
 4871TIP3    H136104   0.714   1.273  17.199  2.7397 -0.0926 -0.4424
 4871TIP3    H236105   0.705   1.410  17.137 -2.3349  0.0469  0.3518
 4872TIP3   OH236106   4.632   2.931   0.013  0.1779 -0.2697  0.5829
 4872TIP3    H136107   4.591   2.846  -0.004  0.0589  0.2743 -2.0649
 4872TIP3    H236108   4.566   2.980   0.061 -0.8556 -0.7186 -0.3505
 4873TIP3   OH236109   2.342   2.121  12.182  0.1220 -0.1015  0.5715
 4873TIP3    H136110   2.431   2.087  12.187 -0.1879 -1.3998 -1.7785
 4873TIP3    H236111   2.346   2.206  12.226  2.8418  0.5186 -0.7664
 4874TIP3   OH236112   5.650   0.214  12.716 -0.0855 -0.2504 -0.1963
 4874TIP3    H136113   5.566   0.252  12.741 -0.4457  0.0987 -1.8852
 4874TIP3    H236114   5.700   0.211  12.797 -2.4909 -2.4580  1.3136
 4875TIP3   OH236115   3.345   1.690  16.668  0.1022 -0.1497 -0.2849
 4875TIP3    H136116   3.433   1.670  16.699 -0.5330  1.0597  2.4390
 4875TIP3    H236117   3.293   1.613  16.693  0.3066 -0.7341 -1.6241
 4876TIP3   OH236118   0.676   5.844   5.641  0.3361 -0.4358  0.1152
 4876TIP3    H136119   0.626   5.918   5.672 -1.1525 -1.2295 -0.3471
 4876TIP3    H236120   0.692   5.863   5.548 -0.8022 -1.0783 -0.2271
 4877TIP3   OH236121   6.485   2.260  12.709  0.2017 -0.2926 -0.2173
 4877TIP3    H136122   6.423   2.318  12.664  1.1691  0.2213 -0.9059
 4877TIP3    H236123   6.477   2.176  12.664  0.2236 -0.1389 -0.5114
 4878TIP3   OH236124   3.350   3.569  12.190 -0.3241 -0.4510  0.1732
 4878TIP3    H136125   3.334   3.620  12.269  1.0936 -0.6983  0.6250
 4878TIP3    H236126   3.364   3.635  12.121  0.9087 -0.2180  0.6330
 4879TIP3   OH236127   0.982   4.221  14.640 -0.8254  0.2022  0.1356
 4879TIP3    H136128   1.057   4.179  14.683 -1.8487 -2.1655 -0.3257
 4879TIP3    H236129   1.010   4.232  14.549 -1.2237 -1.2111 -0.1709
 4880TIP3   OH236130   4.865   4.482   2.772  0.1161 -0.2155 -0.2355
 4880TIP3    H136131   4.831   4.562   2.733  0.4226 -0.0209 -0.0990
 4880TIP3    H236132   4.806   4.464   2.846  0.6001  0.3925  0.3028
 4881TIP3   OH236133   3.442   4.084  16.747 -0.6972  0.6235  0.2720
 4881TIP3    H136134   3.530   4.118  16.762  0.7385 -1.8150 -2.0322
 4881TIP3    H236135   3.434   4.079  16.651 -2.1919 -1.8551  0.4687
 4882TIP3   OH236136   1.547   2.101  13.689  0.0157 -0.6160 -0.2077
 4882TIP3    H136137   1.548   2.182  13.740 -0.8319 -0.0164 -1.1024
 4882TIP3    H236138   1.489   2.043  13.737  0.7190 -0.7344  0.5031
 4883TIP3   OH236139   0.756   4.354  11.890 -0.5799  0.9623  0.1878
 4883TIP3    H136140   0.844   4.315  11.892  0.5448  3.2864 -1.5649
 4883TIP3    H236141   0.698   4.283  11.917  1.2341 -2.3861 -4.0549
 4884TIP3   OH236142   4.231   4.370   4.043 -0.6236 -0.8470 -0.0365
 4884TIP3    H136143   4.237   4.281   4.077 -0.4079 -0.5278  0.7654
 4884TIP3    H236144   4.178   4.417   4.108  0.2207 -0.1084  0.1203
 4885TIP3   OH236145   4.848   0.384   2.784 -0.4364 -0.1559  0.1845
 4885TIP3    H136146   4.911   0.314   2.801  1.6121  1.3563 -0.8468
 4885TIP3    H236147   4.852   0.396   2.689 -1.4634  0.7072  0.2499
 4886TIP3   OH236148   3.612   1.097   4.467 -0.4523 -0.0521 -0.1450
 4886TIP3    H136149   3.646   1.026   4.413 -0.0147 -1.0052  1.3312
 4886TIP3    H236150   3.584   1.053   4.548  0.8184  1.5967  1.2234
 4887TIP3   OH236151   5.621   3.438  15.164  0.3514 -0.1419 -0.0971
 4887TIP3    H136152   5.700   3.489  15.146 -0.3070  2.6755  4.3146
 4887TIP3    H236153   5.550   3.492  15.129 -0.0236 -0.1975  0.5839
 4888TIP3   OH236154   3.815   6.659  16.981  0.4743  0.2785  0.3728
 4888TIP3    H136155   3.858   6.727  17.033 -2.0469  1.4697  0.9828
 4888TIP3    H236156   3.733   6.700  16.952 -0.3179 -1.9613 -0.6397
 4889TIP3   OH236157   5.765   2.007  16.569  0.4104  0.1573 -0.0326
 4889TIP3    H136158   5.708   2.079  16.541  0.4660  0.5927  0.9640
 4889TIP3    H236159   5.708   1.951  16.622  0.3478 -0.5832 -0.8683
 4890TIP3   OH236160   5.473   4.927  13.787  0.6837 -0.1290  0.2347
 4890TIP3    H136161   5.396   4.969  13.749  1.4541  2.1604  1.1328
 4890TIP3    H236162   5.464   4.940  13.881  2.1385  0.1354  0.3496
 4891TIP3   OH236163   2.044   3.123  12.036 -0.2202  0.2919  0.0408
 4891TIP3    H136164   1.962   3.076  12.053 -0.0043 -0.5114 -1.1061
 4891TIP3    H236165   2.022   3.215  12.053 -1.2334  0.0324  0.1734
 4892TIP3   OH236166   0.955   1.272   1.903 -0.0478  0.7134 -0.0553
 4892TIP3    H136167   0.871   1.234   1.929 -0.0118  0.0105 -0.9253
 4892TIP3    H236168   0.961   1.354   1.951 -0.2250 -0.2964  1.7138
 4893TIP3   OH236169   3.193   1.437  16.747 -0.2753 -0.2155  0.1621
 4893TIP3    H136170   3.144   1.471  16.672 -1.9562 -0.5742  1.0604
 4893TIP3    H236171   3.260   1.381  16.709  0.5799  1.6733 -1.1781
 4894TIP3   OH236172   5.839   5.841   0.775  0.0528  0.1244 -0.0317
 4894TIP3    H136173   5.856   5.860   0.867 -0.5689  1.0379 -0.1008
 4894TIP3    H236174   5.924   5.813   0.740  0.5853  1.0848  0.4970
 4895TIP3   OH236175   4.541   5.883  15.106 -0.0448 -0.0682 -0.3651
 4895TIP3    H136176   4.497   5.924  15.181  1.0491  0.0552  0.2250
 4895TIP3    H236177   4.549   5.791  15.130  0.5883  0.0284 -0.1759
 4896TIP3   OH236178   3.260   3.350   1.665  0.2885 -0.6741 -0.2429
 4896TIP3    H136179   3.285   3.387   1.750 -1.2036  0.8668 -0.4364
 4896TIP3    H236180   3.283   3.418   1.602 -0.3947 -0.9992 -0.8489
 4897TIP3   OH236181   3.839   0.968  13.812  0.5611 -0.8322 -0.2191
 4897TIP3    H136182   3.924   1.010  13.803  1.7030 -2.7431  1.2131
 4897TIP3    H236183   3.854   0.878  13.783 -0.8495 -1.3248  0.5383
 4898TIP3   OH236184   2.696   4.409   0.819 -0.4436 -0.1167 -0.5177
 4898TIP3    H136185   2.631   4.423   0.750 -0.8593  1.6169  0.2072
 4898TIP3    H236186   2.647   4.415   0.901  0.6834  1.7899  0.0543
 4899TIP3   OH236187   5.271   0.796  12.822  0.1204  0.6269 -0.5826
 4899TIP3    H136188   5.316   0.837  12.897 -0.0810 -0.8347  0.3517
 4899TIP3    H236189   5.335   0.733  12.788  0.9586  2.6270 -2.8757
 4900TIP3   OH236190   0.808   1.052   0.302 -0.1622  0.4140 -0.3988
 4900TIP3    H136191   0.820   1.143   0.273 -1.9178  0.5216 -0.8179
 4900TIP3    H236192   0.755   1.012   0.234 -2.5285  0.0701  1.5898
 4901TIP3   OH236193   5.674   0.177   1.652  1.0835  0.0249  0.2650
 4901TIP3    H136194   5.582   0.194   1.632  0.5276  0.3633  2.9135
 4901TIP3    H236195   5.706   0.128   1.577 -1.1362  0.3028 -0.9148
 4902TIP3   OH236196   6.610   3.221   0.519 -0.1758 -0.5819 -0.3055
 4902TIP3    H136197   6.621   3.160   0.592  1.2969 -0.8397 -0.7429
 4902TIP3    H236198   6.677   3.196   0.456  0.1234  1.1718 -0.7075
 4903TIP3   OH236199   2.023   2.259  16.977 -0.0472 -0.2283 -0.0516
 4903TIP3    H136200   2.112   2.283  16.949  0.2930 -1.0193  0.3593
 4903TIP3    H236201   1.967   2.297  16.910  0.6552 -0.4566 -0.7856
 4904TIP3   OH236202   5.880   3.496   3.722 -1.2659 -0.0929  0.0353
 4904TIP3    H136203   5.834   3.481   3.804 -0.1702  1.4032  0.9357
 4904TIP3    H236204   5.812   3.486   3.655 -2.9010  1.9775  1.3355
 4905TIP3   OH236205   6.467   0.207   1.258  0.1251 -0.3051 -0.0572
 4905TIP3    H136206   6.515   0.277   1.214  1.3810  0.3607  2.3051
 4905TIP3    H236207   6.535   0.150   1.294 -0.8783 -1.4950 -0.0127
 4906TIP3   OH236208   1.291   4.047   5.941  0.2671 -0.4556 -0.0287
 4906TIP3    H136209   1.324   4.124   5.988  1.9787 -0.0844 -1.7790
 4906TIP3    H236210   1.263   3.987   6.010 -3.3395  2.6051  1.3811
 4907TIP3   OH236211   3.961   1.436   2.200 -0.2472 -0.5993  0.0148
 4907TIP3    H136212   4.014   1.391   2.134 -0.8662 -0.8385 -0.3190
 4907TIP3    H236213   3.871   1.428   2.168 -0.4039  0.5101  0.1714
 4908TIP3   OH236214   1.228   3.611   2.395  0.1357 -0.2276 -0.3403
 4908TIP3    H136215   1.185   3.535   2.435  0.5528 -0.7386 -0.8538
 4908TIP3    H236216   1.243   3.671   2.468 -1.8751  0.1728 -0.2199
 4909TIP3   OH236217   4.197   3.297   4.737 -0.0313 -0.2936 -0.0010
 4909TIP3    H136218   4.246   3.272   4.815 -1.1242  0.4934  0.9417
 4909TIP3    H236219   4.119   3.242   4.738 -0.5890  0.4877  0.0634
 4910TIP3   OH236220   5.790   1.410  15.593 -0.0592  0.4980 -0.4896
 4910TIP3    H136221   5.834   1.485  15.635 -1.1649  0.8641  0.0175
 4910TIP3    H236222   5.719   1.450  15.542 -1.2377 -0.2759  0.5274
 4911TIP3   OH236223   3.187   0.046   2.451 -0.4955 -0.1003  0.2340
 4911TIP3    H136224   3.261   0.098   2.420 -0.2013  0.2342  1.4760
 4911TIP3    H236225   3.170   0.078   2.539 -1.5798 -0.7610  0.2759
 4912TIP3   OH236226   5.277   3.794   4.071  0.1162  0.4099 -0.2082
 4912TIP3    H136227   5.296   3.705   4.100 -3.8635 -0.0244  1.4643
 4912TIP3    H236228   5.331   3.849   4.127 -1.4988 -0.7821  2.6306
 4913TIP3   OH236229   0.908   2.698  13.886 -0.1653 -0.1120  0.3463
 4913TIP3    H136230   0.915   2.638  13.961  0.4308 -0.2937  0.1465
 4913TIP3    H236231   0.824   2.742  13.899 -0.9286 -1.4754  0.1422
 4914TIP3   OH236232   1.480   2.680   3.818 -0.3804  0.1287 -0.2442
 4914TIP3    H136233   1.514   2.591   3.815  0.5734  0.4583  0.3883
 4914TIP3    H236234   1.391   2.671   3.850 -0.1588 -0.5616  0.1819
 4915TIP3   OH236235   2.378   4.222  12.932 -0.1008  0.0085  0.4578
 4915TIP3    H136236   2.472   4.211  12.939 -0.2854 -1.2865  1.1053
 4915TIP3    H236237   2.352   4.264  13.014 -0.0902  0.3967  0.2656
 4916TIP3   OH236238   4.601   0.645  15.642 -0.0917 -0.0623 -0.3237
 4916TIP3    H136239   4.516   0.662  15.682  1.1276  1.2309  1.8123
 4916TIP3    H236240   4.651   0.601  15.711  0.7567 -1.4442 -1.7864
 4917TIP3   OH236241   0.234   5.363  15.853  0.1283  0.3093 -0.0173
 4917TIP3    H136242   0.302   5.362  15.921 -1.1630  2.7036  1.3896
 4917TIP3    H236243   0.212   5.456  15.843 -0.1383 -0.0777 -3.3169
 4918TIP3   OH236244   4.014   6.119  11.198  0.1449 -0.2835  0.1834
 4918TIP3    H136245   4.029   6.165  11.281  1.5990  0.3970 -0.4420
 4918TIP3    H236246   4.086   6.147  11.141 -1.1343 -0.2978 -1.4963
 4919TIP3   OH236247   2.210   0.928  13.330  0.6415 -0.1494 -0.3762
 4919TIP3    H136248   2.130   0.901  13.373  1.2208 -0.9986  0.1785
 4919TIP3    H236249   2.236   0.853  13.277  0.9786  0.1831 -0.6876
 4920TIP3   OH236250   5.324   0.783   6.772  0.1543 -0.0263  0.1202
 4920TIP3    H136251   5.313   0.844   6.845 -1.1107 -1.1712  0.9199
 4920TIP3    H236252   5.414   0.752   6.780  1.0871  2.3819 -0.8164
 4921TIP3   OH236253   2.755   0.995   3.061  0.0093 -0.3035  0.5074
 4921TIP3    H136254   2.684   1.036   3.012 -0.3975  0.9628  2.1161
 4921TIP3    H236255   2.736   0.901   3.056 -1.9683  0.0338  1.1779
 4922TIP3   OH236256   5.956   5.824   4.975  0.3500 -0.4616  0.5993
 4922TIP3    H136257   5.947   5.918   4.988  0.7414 -0.1321 -1.3145
 4922TIP3    H236258   5.865   5.793   4.970  0.2015  0.0670 -0.2820
 4923TIP3   OH236259   2.600   0.180   1.872  0.0215 -0.1460 -0.4733
 4923TIP3    H136260   2.682   0.229   1.873 -0.4778  0.6793  0.9200
 4923TIP3    H236261   2.612   0.114   1.804  1.0590  1.3012 -1.7346
 4924TIP3   OH236262   1.637   2.497   0.622  0.2120  0.3694 -0.3762
 4924TIP3    H136263   1.550   2.534   0.609 -0.0942  0.1374  0.8977
 4924TIP3    H236264   1.631   2.451   0.707  1.7470  0.9006  0.0368
 4925TIP3   OH236265   6.197   3.134   4.841 -0.0056 -0.6000 -0.0806
 4925TIP3    H136266   6.136   3.199   4.807  0.3283 -0.6999 -0.9118
 4925TIP3    H236267   6.172   3.053   4.797 -0.0487 -0.8963  0.5014
 4926TIP3   OH236268   6.603   2.257   0.547 -0.5315  0.2941 -1.3789
 4926TIP3    H136269   6.518   2.218   0.568 -0.6882  1.3448 -0.0276
 4926TIP3    H236270   6.641   2.197   0.482 -1.3395 -1.3776 -0.3438
 4927TIP3   OH236271   5.172   6.383   2.087  0.1325  0.3404 -0.9557
 4927TIP3    H136272   5.245   6.327   2.061  0.1772  0.1519 -0.4268
 4927TIP3    H236273   5.137   6.342   2.167 -0.9777  0.0458 -1.5783
 4928TIP3   OH236274   5.994   1.301   4.058  0.0342 -0.0615  0.3707
 4928TIP3    H136275   5.968   1.376   4.004 -0.6017 -0.7251 -0.2804
 4928TIP3    H236276   5.931   1.300   4.130 -1.2493 -1.1582 -0.7362
 4929TIP3   OH236277   2.884   2.734   1.143  0.4867 -0.2847  0.3577
 4929TIP3    H136278   2.921   2.820   1.126  2.3257 -0.6689  2.2581
 4929TIP3    H236279   2.923   2.677   1.077 -0.4633  0.2631 -0.6800
 4930TIP3   OH236280   6.360   0.869  12.027 -0.0346  0.2605 -0.3324
 4930TIP3    H136281   6.306   0.809  11.977  1.2843  0.5073 -2.0725
 4930TIP3    H236282   6.432   0.815  12.061 -0.2356  0.3450  0.2288
 4931TIP3   OH236283   5.597   1.115  13.020 -0.5122 -0.1142 -0.2537
 4931TIP3    H136284   5.586   1.201  12.980 -0.7159  0.6894  1.5152
 4931TIP3    H236285   5.669   1.126  13.082 -0.7025 -1.1600  0.1650
 4932TIP3   OH236286   3.763   5.848   2.721  0.8741  0.9591  0.1612
 4932TIP3    H136287   3.763   5.862   2.815  2.1008  0.8340  0.1876
 4932TIP3    H236288   3.671   5.844   2.697  0.5113 -2.3438  1.8530
 4933TIP3   OH236289   0.682   4.244   0.470 -0.2259 -0.3117  0.2671
 4933TIP3    H136290   0.737   4.290   0.406  2.3650 -2.7754  0.5996
 4933TIP3    H236291   0.687   4.297   0.549  2.0601 -0.7098  0.4153
 4934TIP3   OH236292   6.513   3.549  15.594  0.6522  0.1152  0.2441
 4934TIP3    H136293   6.439   3.573  15.649  0.0883 -0.5162 -0.2336
 4934TIP3    H236294   6.532   3.459  15.617 -0.8972 -0.8402 -2.0207
 4935TIP3   OH236295   1.966   2.670  17.291  0.5029  0.2810  0.1935
 4935TIP3    H136296   1.942   2.641  17.379  1.7666  1.7391  1.0295
 4935TIP3    H236297   1.891   2.646  17.237  0.4104 -2.1832  1.3275
 4936TIP3   OH236298   0.152   0.100  16.104  0.5845 -0.2793  0.8959
 4936TIP3    H136299   0.081   0.079  16.043  1.7529 -0.1939 -0.5082
 4936TIP3    H236300   0.208   0.022  16.104 -0.1385 -0.8498  2.9627
 4937TIP3   OH236301   2.032   1.251   0.987  0.4248  0.0334 -0.5045
 4937TIP3    H136302   2.067   1.179   0.935  2.2919  0.7272 -0.2518
 4937TIP3    H236303   2.075   1.242   1.073  0.0092  0.9210 -0.1891
 4938TIP3   OH236304   3.432   3.640  11.332 -0.5171 -0.0692 -0.7362
 4938TIP3    H136305   3.409   3.731  11.314 -0.2291  0.3766  1.0287
 4938TIP3    H236306   3.363   3.589  11.290 -2.5173  1.0942  1.0559
 4939TIP3   OH236307   5.801   4.256   1.370  0.3129 -0.2113  0.1368
 4939TIP3    H136308   5.740   4.187   1.394  0.2657 -0.2962 -0.2259
 4939TIP3    H236309   5.846   4.223   1.292 -0.1299  0.4067 -0.3947
 4940TIP3   OH236310   5.257   6.325  17.120 -0.0378 -0.2833  0.2706
 4940TIP3    H136311   5.193   6.394  17.135  0.3378  0.5963 -2.0288
 4940TIP3    H236312   5.333   6.370  17.082  0.4606 -1.8728 -0.6534
 4941TIP3   OH236313   5.212   2.410  17.172 -0.4193 -0.1868  0.1796
 4941TIP3    H136314   5.232   2.491  17.219 -0.6230  0.1902 -0.3744
 4941TIP3    H236315   5.121   2.391  17.195  0.4659 -1.7932  2.5343
 4942TIP3   OH236316   5.216   5.148   4.214 -0.1611  0.3226 -0.8216
 4942TIP3    H136317   5.291   5.139   4.273 -0.0248  1.3412 -0.8305
 4942TIP3    H236318   5.210   5.063   4.170  0.7200  0.0868 -0.5076
 4943TIP3   OH236319   5.904   1.088   4.742  0.5543 -0.8413 -0.3690
 4943TIP3    H136320   5.841   1.145   4.786  1.3329 -0.8748  0.8100
 4943TIP3    H236321   5.856   1.007   4.727  0.4261 -0.9983  0.8590
 4944TIP3   OH236322   2.154   4.201   4.577 -0.2001  0.3264 -0.1893
 4944TIP3    H136323   2.080   4.192   4.517  0.0134 -0.0432 -0.4051
 4944TIP3    H236324   2.116   4.195   4.664 -0.4563  0.3822 -0.2971
 4945TIP3   OH236325   6.710   6.173  11.133  0.5546  0.3859 -0.0387
 4945TIP3    H136326   6.782   6.194  11.192  0.9439  0.7638 -0.6466
 4945TIP3    H236327   6.656   6.111  11.182  0.9000  0.6636  0.6964
 4946TIP3   OH236328   5.212   1.061   0.397 -0.4386 -0.6355 -0.2010
 4946TIP3    H136329   5.304   1.053   0.421 -0.6660  1.8022  1.7339
 4946TIP3    H236330   5.211   1.122   0.323 -0.4529 -1.3117 -0.7664
 4947TIP3   OH236331   2.103   0.737   0.932  0.0537 -0.2192  0.2070
 4947TIP3    H136332   2.102   0.799   1.004  3.4148 -1.4530  1.3971
 4947TIP3    H236333   2.174   0.766   0.876 -0.7468 -0.8820 -1.1965
 4948TIP3   OH236334   4.689   5.610   2.855 -0.1657  0.0152  0.1932
 4948TIP3    H136335   4.743   5.577   2.783 -0.4192  1.1842 -0.5468
 4948TIP3    H236336   4.618   5.658   2.811 -0.5375  0.4014  1.2144
 4949TIP3   OH236337   6.686   6.269  12.879 -0.1042  0.4772 -0.4960
 4949TIP3    H136338   6.599   6.308  12.890 -0.8635 -1.2494 -0.2050
 4949TIP3    H236339   6.746   6.334  12.915 -1.2583  1.7390 -0.8056
 4950TIP3   OH236340   5.130   3.745  16.808 -0.0803  0.3836 -0.3052
 4950TIP3    H136341   5.041   3.778  16.807 -0.2017  0.0541 -0.3541
 4950TIP3    H236342   5.146   3.721  16.900  0.6722  2.3773  0.1256
 4951TIP3   OH236343   5.267   5.868  12.758  0.3726  0.0928  0.8774
 4951TIP3    H136344   5.220   5.795  12.717 -1.0985  1.4138  0.1727
 4951TIP3    H236345   5.336   5.890  12.695  0.3576 -0.2061  0.7528
 4952TIP3   OH236346   4.007   3.707   6.908 -0.2110  0.2029  0.1160
 4952TIP3    H136347   3.931   3.756   6.875  0.4776  0.2634 -1.4440
 4952TIP3    H236348   3.970   3.630   6.950 -1.1785  0.7107  0.2151
 4953TIP3   OH236349   1.680   0.576  14.078 -0.0872 -0.0697  0.7044
 4953TIP3    H136350   1.606   0.608  14.027  1.6290 -1.4313 -2.8287
 4953TIP3    H236351   1.652   0.491  14.111 -0.2665 -0.4394 -0.3662
 4954TIP3   OH236352   5.163   4.223   1.216  0.1032 -0.7810  0.1645
 4954TIP3    H136353   5.188   4.243   1.306 -0.5913 -2.3331  0.7188
 4954TIP3    H236354   5.232   4.164   1.184  0.1527 -0.5316 -0.1879
 4955TIP3   OH236355   3.366   0.718   1.035 -0.0833  0.4242 -0.0784
 4955TIP3    H136356   3.282   0.678   1.015  0.3760 -0.6546  0.1127
 4955TIP3    H236357   3.357   0.749   1.125 -0.0789 -0.2093  0.1404
 4956TIP3   OH236358   5.734   4.170  16.847  0.0246  0.6259 -0.0124
 4956TIP3    H136359   5.743   4.075  16.837  0.3696  0.7134 -0.5244
 4956TIP3    H236360   5.679   4.181  16.924 -1.3103 -0.0183 -0.8712
 4957TIP3   OH236361   2.379   4.230   6.036  0.5804  0.5192  0.0013
 4957TIP3    H136362   2.420   4.296   6.092  0.9186  0.5451 -0.2784
 4957TIP3    H236363   2.340   4.280   5.964  1.8535  0.3262 -0.8461
 4958TIP3   OH236364   1.621   3.320   5.816  0.3551  0.4849 -0.0517
 4958TIP3    H136365   1.668   3.244   5.783  1.3341  0.9771  0.1885
 4958TIP3    H236366   1.660   3.338   5.901  0.1712  1.2853 -0.1301
 4959TIP3   OH236367   5.258   5.246   6.132 -0.1142  0.6155 -0.0525
 4959TIP3    H136368   5.323   5.219   6.067 -1.7585 -0.2213 -1.3915
 4959TIP3    H236369   5.308   5.297   6.196  1.3130  2.8237 -2.7984
 4960TIP3   OH236370   2.201   2.354  17.224  0.2407  0.5240 -0.0137
 4960TIP3    H136371   2.174   2.423  17.164  0.1413  0.0321 -0.5380
 4960TIP3    H236372   2.213   2.277  17.168 -1.2495 -0.3173  0.7993
 4961TIP3   OH236373   0.921   3.463   3.660 -0.0575 -1.0192 -0.2653
 4961TIP3    H136374   1.014   3.464   3.640 -0.0627  1.6995 -0.3296
 4961TIP3    H236375   0.910   3.390   3.721  2.2030 -1.0043  0.1743
 4962TIP3   OH236376   0.551   4.465   2.399 -0.5306 -0.3433 -0.9157
 4962TIP3    H136377   0.566   4.541   2.343  1.0925 -0.1223 -0.2108
 4962TIP3    H236378   0.518   4.503   2.481 -1.5194 -0.5604 -1.2016
 4963TIP3   OH236379   4.873   2.995  12.400  0.1790  0.1680 -0.1243
 4963TIP3    H136380   4.904   2.964  12.315  0.9580  0.5761  0.0057
 4963TIP3    H236381   4.793   2.945  12.416  1.4211 -1.7928  0.0958
 4964TIP3   OH236382   6.744   0.689   2.217 -0.6002 -0.0527 -0.3922
 4964TIP3    H136383   6.805   0.748   2.174 -1.0382 -1.0478 -2.4332
 4964TIP3    H236384   6.794   0.650   2.289  0.6937  0.2642 -1.1076
 4965TIP3   OH236385   3.837   1.280  11.985  0.6379  0.5077 -0.2748
 4965TIP3    H136386   3.914   1.244  12.028  1.2856  0.9574 -1.0315
 4965TIP3    H236387   3.781   1.205  11.968  1.6909 -0.0603 -1.2702
 4966TIP3   OH236388   2.110   3.716   5.544 -0.4806 -0.0553  0.1303
 4966TIP3    H136389   2.126   3.789   5.603  0.2675 -0.4262  0.3952
 4966TIP3    H236390   2.078   3.646   5.601 -0.4564 -0.1807 -0.0094
 4967TIP3   OH236391   1.800   4.165  16.584 -0.2657  0.5938  0.2506
 4967TIP3    H136392   1.733   4.196  16.523 -1.5237 -0.2603  1.1503
 4967TIP3    H236393   1.838   4.089  16.542  0.3456  1.2490 -0.3919
 4968TIP3   OH236394   6.307   3.722   5.227 -0.0497 -0.0037 -0.0500
 4968TIP3    H136395   6.281   3.663   5.297  1.0264 -1.8843 -1.1962
 4968TIP3    H236396   6.402   3.715   5.222  0.0022  1.0210 -0.9138
 4969TIP3   OH236397   5.478   6.475   1.528 -0.5549 -0.1645  0.8725
 4969TIP3    H136398   5.538   6.547   1.549  2.6848 -2.7881  1.0763
 4969TIP3    H236399   5.397   6.497   1.573  0.2364  3.5019  0.6499
 4970TIP3   OH236400   3.919   6.423   1.363 -0.2669 -0.0451 -0.5993
 4970TIP3    H136401   3.923   6.332   1.392  0.0207 -0.3259 -1.5085
 4970TIP3    H236402   4.010   6.450   1.356 -0.3371  1.0007  1.7266
 4971TIP3   OH236403   1.997   2.754  12.726 -0.6006 -0.1530  0.3789
 4971TIP3    H136404   2.045   2.687  12.677  2.0264 -0.6682  3.4883
 4971TIP3    H236405   2.017   2.836  12.681  0.8868 -0.7506 -0.0809
 4972TIP3   OH236406   1.200   3.326  11.234 -0.5250 -0.3413 -0.1107
 4972TIP3    H136407   1.272   3.271  11.265 -0.4990  0.4148  1.1929
 4972TIP3    H236408   1.235   3.370  11.157 -0.2875 -1.5386 -0.7009
 4973TIP3   OH236409   3.708   4.471  14.989 -0.0576  0.4780  0.3720
 4973TIP3    H136410   3.703   4.468  14.894  0.9080  1.6821  0.2670
 4973TIP3    H236411   3.728   4.382  15.016 -0.8057  0.0385 -0.5188
 4974TIP3   OH236412   2.199   0.340  15.399 -0.0496  0.1748  0.3798
 4974TIP3    H136413   2.128   0.399  15.375 -0.6816  0.2300  2.3463
 4974TIP3    H236414   2.234   0.309  15.315 -0.8126  2.0133 -0.6304
 4975TIP3   OH236415   2.933   1.788  16.032  0.1923  0.0208 -0.0477
 4975TIP3    H136416   2.883   1.706  16.036 -2.1976  1.4578  0.9228
 4975TIP3    H236417   2.933   1.811  15.939  1.1066 -1.2014 -0.3596
 4976TIP3   OH236418   5.512   4.588  14.662 -0.3109  0.3845 -0.0351
 4976TIP3    H136419   5.604   4.587  14.688 -0.0631  2.4946 -0.8061
 4976TIP3    H236420   5.505   4.519  14.596  0.3694 -0.8194  1.1145
 4977TIP3   OH236421   2.082   0.664   4.524 -0.2502  0.0794 -0.0204
 4977TIP3    H136422   2.092   0.759   4.511  0.5617  0.3523  2.2535
 4977TIP3    H236423   2.091   0.652   4.619  0.0342 -2.3196 -0.3140
 4978TIP3   OH236424   4.525   6.655  16.554 -0.4345 -0.0878 -0.4001
 4978TIP3    H136425   4.442   6.697  16.535 -0.9287 -0.5506  0.6973
 4978TIP3    H236426   4.529   6.580  16.495 -1.5528 -1.0067  0.6644
 4979TIP3   OH236427   4.946   6.680   5.098  0.1161  0.0038  0.8963
 4979TIP3    H136428   4.866   6.656   5.144 -1.6145 -1.0830 -2.4794
 4979TIP3    H236429   4.957   6.774   5.117 -1.5344 -0.0049  2.0197
 4980TIP3   OH236430   5.776   3.437   1.523 -0.3537 -0.2378 -0.5394
 4980TIP3    H136431   5.744   3.507   1.581  0.9365 -0.3050  0.2698
 4980TIP3    H236432   5.707   3.370   1.528 -1.3909  0.7820 -0.9788
 4981TIP3   OH236433   3.695   3.353   3.037  0.0890 -0.2827 -0.1975
 4981TIP3    H136434   3.739   3.300   3.103  0.2685 -0.8922 -0.8026
 4981TIP3    H236435   3.608   3.314   3.028 -0.2031  0.2717  0.2352
 4982TIP3   OH236436   2.062   0.608  15.162  0.0678 -0.3172  0.4773
 4982TIP3    H136437   2.102   0.586  15.078  0.4904  0.5776  0.4379
 4982TIP3    H236438   1.968   0.606  15.146  0.1417 -0.4352  0.0514
 4983TIP3   OH236439   3.454   3.833   3.173  0.6164  0.1489  0.3974
 4983TIP3    H136440   3.378   3.891   3.173 -0.5949 -1.3944 -1.4764
 4983TIP3    H236441   3.497   3.850   3.089  1.4573 -0.1403  0.7634
 4984TIP3   OH236442   4.528   5.241   2.366  0.1688 -0.6605 -0.6051
 4984TIP3    H136443   4.500   5.217   2.278  0.3045  0.4766 -0.9679
 4984TIP3    H236444   4.462   5.202   2.424  0.4019 -1.9025 -1.1673
 4985TIP3   OH236445   6.750   2.608   5.801 -0.4690  0.1766 -0.1361
 4985TIP3    H136446   6.715   2.526   5.836  1.9243 -0.5796  0.5691
 4985TIP3    H236447   6.721   2.610   5.710 -0.5028 -1.4487 -0.1659
 4986TIP3   OH236448   1.579   1.675  13.006 -0.1503 -0.8106  0.3590
 4986TIP3    H136449   1.615   1.625  13.080  0.4060 -2.5684 -1.0467
 4986TIP3    H236450   1.491   1.699  13.033 -0.0960 -1.7866  1.4489
 4987TIP3   OH236451   4.768   0.959  16.267 -0.1910 -0.0829 -0.4426
 4987TIP3    H136452   4.818   0.975  16.187  0.0981 -2.8301 -0.8540
 4987TIP3    H236453   4.832   0.968  16.337 -0.3172  1.7372 -0.5361
 4988TIP3   OH236454   0.853   0.086  14.478  0.2717  0.6228  0.4445
 4988TIP3    H136455   0.923   0.056  14.419 -0.0628  1.2350 -0.2657
 4988TIP3    H236456   0.886   0.169  14.514 -0.3928  1.2738 -0.4383
 4989TIP3   OH236457   0.323   2.363  17.022 -0.3135 -0.0095  0.6675
 4989TIP3    H136458   0.307   2.294  16.958  1.8573  0.3174 -0.2840
 4989TIP3    H236459   0.265   2.435  16.996  1.2281  0.4760 -1.5362
 4990TIP3   OH236460   6.075   4.731  14.240 -0.5146  0.0013  0.1583
 4990TIP3    H136461   6.122   4.809  14.269 -2.1968  0.9906  0.3241
 4990TIP3    H236462   6.095   4.665  14.306 -1.0673  1.0456  1.4067
 4991TIP3   OH236463   3.088   2.841  15.264  0.5382  0.1373 -0.3052
 4991TIP3    H136464   3.183   2.829  15.256  0.6711  1.0105 -0.0243
 4991TIP3    H236465   3.077   2.934  15.284 -0.2270 -0.4521  2.1367
 4992TIP3   OH236466   2.656   6.365   5.847 -0.1931 -0.1422 -0.5704
 4992TIP3    H136467   2.619   6.452   5.833 -0.3939 -0.0782  0.3027
 4992TIP3    H236468   2.698   6.343   5.764  0.3097  1.0089 -0.6364
 4993TIP3   OH236469   4.422   4.514   3.704 -0.1104  0.1835  0.0293
 4993TIP3    H136470   4.510   4.478   3.708  0.0824  0.6897  0.4620
 4993TIP3    H236471   4.370   4.460   3.764 -0.7860 -1.9777 -2.4394
 4994TIP3   OH236472   5.185   1.760   3.036  0.7226 -0.6967  0.1434
 4994TIP3    H136473   5.127   1.783   3.108  2.7263 -1.3923  2.0469
 4994TIP3    H236474   5.154   1.812   2.962 -1.3673  0.0489  1.5159
 4995TIP3   OH236475   4.352   1.209  13.793  0.3566  0.4104 -0.4185
 4995TIP3    H136476   4.298   1.219  13.872  0.5674  1.3744 -0.3888
 4995TIP3    H236477   4.354   1.115  13.778  0.3118  0.2114  0.7318
 4996TIP3   OH236478   0.019   1.729  13.660 -0.2834  0.1856 -0.6746
 4996TIP3    H136479  -0.051   1.676  13.699 -1.2780  1.3938 -0.7834
 4996TIP3    H236480   0.009   1.816  13.700  1.3685  0.3025 -0.4529
 4997TIP3   OH236481   0.802   5.033  14.368  0.2893  0.2539  0.3246
 4997TIP3    H136482   0.872   5.001  14.423 -0.0977 -0.7400  0.2494
 4997TIP3    H236483   0.840   5.039  14.280  0.3127 -0.1773  0.3063
 4998TIP3   OH236484   4.835   4.613  15.073  0.5061  0.6600 -0.0103
 4998TIP3    H136485   4.904   4.674  15.102 -0.2402  0.3122  2.6703
 4998TIP3    H236486   4.758   4.668  15.061  0.6349  0.6949 -0.7242
 4999TIP3   OH236487   2.364   4.839   3.874  0.4554 -0.2228  0.0402
 4999TIP3    H136488   2.443   4.853   3.822  0.2690 -2.1997 -0.8611
 4999TIP3    H236489   2.341   4.747   3.857 -1.2211 -0.0817  1.4072
 5000TIP3   OH236490   3.944   6.057  13.429  0.3017 -0.2702  0.2081
 5000TIP3    H136491   3.950   6.043  13.335 -0.6227 -0.6995  0.2101
 5000TIP3    H236492   4.007   6.127  13.447  0.2836 -0.0022 -0.7657
 5001TIP3   OH236493   5.223   2.694  14.931  0.2963  0.3981 -0.0157
 5001TIP3    H136494   5.176   2.656  15.006 -2.1649 -2.3004 -2.7325
 5001TIP3    H236495   5.154   2.733  14.878  1.6319 -0.1412 -2.1929
 5002TIP3   OH236496   1.341   5.391  12.244  0.1143 -0.0970 -0.0826
 5002TIP3    H136497   1.351   5.485  12.228 -0.5099 -0.0835 -0.3995
 5002TIP3    H236498   1.335   5.383  12.339  2.0626 -0.0040  0.0596
 5003TIP3   OH236499   0.192   4.369   1.161 -0.6136 -0.0754  0.4963
 5003TIP3    H136500   0.233   4.371   1.248 -3.4824  0.1477  1.9169
 5003TIP3    H236501   0.199   4.278   1.133  1.4206  0.0852  0.3711
 5004TIP3   OH236502   5.779   5.537   0.843  0.1221  0.2275 -0.0162
 5004TIP3    H136503   5.719   5.609   0.861 -1.1910 -0.0886 -2.8068
 5004TIP3    H236504   5.855   5.578   0.802  0.0462  0.2238 -0.1656
 5005TIP3   OH236505   4.724   6.611   1.715  0.0469 -0.0269  0.2315
 5005TIP3    H136506   4.701   6.676   1.649 -0.6319  0.2209  0.7078
 5005TIP3    H236507   4.738   6.662   1.795 -3.7612 -0.7316  1.4395
 5006TIP3   OH236508   0.538   0.950  15.271 -0.4368  0.1650  0.0491
 5006TIP3    H136509   0.539   1.008  15.347 -1.1173 -2.0485  1.7828
 5006TIP3    H236510   0.630   0.945  15.244 -0.0603  0.2123  1.3079
 5007TIP3   OH236511   0.517   2.431   2.979 -0.7176 -0.0037 -0.1057
 5007TIP3    H136512   0.468   2.356   3.013 -0.8940  0.3654  0.4649
 5007TIP3    H236513   0.594   2.392   2.938 -1.2893 -0.5629 -0.6786
 5008TIP3   OH236514   1.597   1.236   4.019 -0.5628  0.7454 -0.0709
 5008TIP3    H136515   1.689   1.255   4.003 -0.0659 -1.3542  0.0997
 5008TIP3    H236516   1.597   1.147   4.054 -2.9363 -0.6806 -3.4519
 5009TIP3   OH236517   4.848   2.708   3.025  0.3875  0.6612  0.9616
 5009TIP3    H136518   4.789   2.765   2.976 -0.0232  0.8497  1.6686
 5009TIP3    H236519   4.791   2.642   3.064  1.1275 -1.9811 -2.1600
 5010TIP3   OH236520   3.340   5.026  14.282 -0.4862  0.2506 -0.1419
 5010TIP3    H136521   3.304   5.102  14.236 -1.9985 -1.3876 -1.7702
 5010TIP3    H236522   3.401   5.063  14.346 -1.0542  2.8071 -1.0139
 5011TIP3   OH236523   4.694   2.365   2.553  0.0736  0.2064 -0.3172
 5011TIP3    H136524   4.733   2.449   2.532  0.9895  0.0015  0.5217
 5011TIP3    H236525   4.601   2.384   2.565  0.4924  1.3718  1.2554
 5012TIP3   OH236526   0.472   6.761   0.690  0.1355  0.4088 -0.1071
 5012TIP3    H136527   0.565   6.780   0.703 -0.2317  2.6894 -0.5691
 5012TIP3    H236528   0.440   6.739   0.777  1.4777 -2.2857 -0.2365
 5013TIP3   OH236529   3.649   6.297   6.658 -0.4264  0.1866  0.1386
 5013TIP3    H136530   3.607   6.220   6.618 -0.9173  1.8415 -2.6768
 5013TIP3    H236531   3.670   6.269   6.747 -3.2807 -2.2390  0.1448
 5014TIP3   OH236532   5.393   5.897  16.915  0.1307 -0.0075 -0.0666
 5014TIP3    H136533   5.449   5.902  16.993 -0.9645  1.0147  0.6641
 5014TIP3    H236534   5.387   5.987  16.884  1.4164 -0.5389 -1.9720
 5015TIP3   OH236535   5.919   2.475  11.892 -0.7674  0.2918  0.5374
 5015TIP3    H136536   5.898   2.382  11.880  1.6717 -0.4350  1.3923
 5015TIP3    H236537   5.949   2.504  11.805  0.0465 -0.1823  0.6543
 5016TIP3   OH236538   6.207   5.118  11.441 -0.2743  0.1572  0.0213
 5016TIP3    H136539   6.296   5.137  11.471 -0.6655 -0.1846  1.4502
 5016TIP3    H236540   6.151   5.147  11.513 -1.1620 -2.0791  0.2801
 5017TIP3   OH236541   0.963   5.579   0.911 -0.3855 -0.3110 -0.4524
 5017TIP3    H136542   0.877   5.583   0.869 -0.4133  1.0058 -0.3165
 5017TIP3    H236543   1.002   5.665   0.892 -0.2597  0.1840  1.9091
 5018TIP3   OH236544   0.541   1.119  14.668 -1.1582 -0.1436  0.8039
 5018TIP3    H136545   0.451   1.094  14.691 -1.1789 -0.6746  0.1751
 5018TIP3    H236546   0.557   1.074  14.585 -0.0477 -0.6589  1.2933
 5019TIP3   OH236547   1.393   5.634  15.150  0.3234  0.0995 -0.1399
 5019TIP3    H136548   1.358   5.573  15.215  2.4787 -1.6732 -0.5926
 5019TIP3    H236549   1.373   5.721  15.185 -0.1705 -0.8496  1.9704
 5020TIP3   OH236550   4.503   2.463  13.920  0.5019  0.7357  0.0725
 5020TIP3    H136551   4.535   2.523  13.988  3.8760 -2.0332  1.0816
 5020TIP3    H236552   4.579   2.445  13.866 -0.6469 -1.8578 -0.7719
 5021TIP3   OH236553   3.210   2.220   1.411  0.4937  0.3036  0.5068
 5021TIP3    H136554   3.134   2.177   1.374  0.0619  1.6049 -0.1571
 5021TIP3    H236555   3.205   2.310   1.378  2.2311  0.4380  0.5703
 5022TIP3   OH236556   1.709   0.958  11.872 -0.7090  0.5228  0.4723
 5022TIP3    H136557   1.796   0.949  11.833 -0.4100 -0.3760  1.3225
 5022TIP3    H236558   1.662   0.880  11.845 -0.3519 -0.3392  2.2471
 5023TIP3   OH236559   1.357   1.550   3.196  0.4998 -0.2492  0.7040
 5023TIP3    H136560   1.441   1.518   3.228  1.7652  2.5007  0.2877
 5023TIP3    H236561   1.372   1.644   3.180 -2.1895 -0.0510 -0.8786
 5024TIP3   OH236562   6.227   2.598   5.494  0.5357  0.3561  0.2324
 5024TIP3    H136563   6.271   2.569   5.415  1.5550 -2.4891  1.7875
 5024TIP3    H236564   6.192   2.518   5.533 -0.0021  1.7151  2.6440
 5025TIP3   OH236565   4.486   4.379  16.715  0.1281 -0.1107 -0.6038
 5025TIP3    H136566   4.470   4.297  16.668  0.4225 -1.1786  1.1407
 5025TIP3    H236567   4.576   4.372  16.746 -0.6459 -0.2080  1.6735
 5026TIP3   OH236568   4.046   3.249  15.240 -0.1147 -0.3272  0.3193
 5026TIP3    H136569   4.110   3.206  15.297  1.9384  1.7340 -0.3542
 5026TIP3    H236570   4.019   3.181  15.179  2.9672 -0.7967 -0.6424
 5027TIP3   OH236571   5.187   2.098  16.919  0.3606 -0.3364  0.0182
 5027TIP3    H136572   5.220   2.040  16.988 -0.5386 -0.7851  0.0831
 5027TIP3    H236573   5.204   2.050  16.838  0.1047 -0.4530  0.0343
 5028TIP3   OH236574   3.559   3.261  16.505 -0.2956 -0.1943 -0.4251
 5028TIP3    H136575   3.465   3.280  16.513 -0.2351  0.7812 -1.9189
 5028TIP3    H236576   3.561   3.168  16.480 -0.7899 -0.6590  1.1831
 5029TIP3   OH236577   1.441   4.543  16.837 -0.3335 -0.1781  0.3523
 5029TIP3    H136578   1.500   4.467  16.837  0.3566  0.3453 -0.6220
 5029TIP3    H236579   1.462   4.589  16.918  0.9532  0.2570 -0.2052
 5030TIP3   OH236580   3.440   0.069   4.487  0.1020 -0.3758 -0.3050
 5030TIP3    H136581   3.367   0.123   4.519  0.0319 -0.8950  0.4235
 5030TIP3    H236582   3.406   0.026   4.408 -1.3044 -2.6933  1.4923
 5031TIP3   OH236583   6.140   2.645   3.806 -0.1717 -0.0189 -0.2412
 5031TIP3    H136584   6.156   2.653   3.712  0.6497  0.0724 -0.0993
 5031TIP3    H236585   6.106   2.730   3.832  1.7439  0.7041 -0.0456
 5032TIP3   OH236586   6.194   6.229  16.457 -0.2332  0.4076  0.1891
 5032TIP3    H136587   6.264   6.290  16.435 -0.0185 -0.1945 -0.8509
 5032TIP3    H236588   6.163   6.197  16.372  0.2283 -1.5656  0.7415
 5033TIP3   OH236589   3.583   2.351  12.189  0.7663 -0.2729  0.1766
 5033TIP3    H136590   3.601   2.334  12.097  2.5558  1.9877  0.0586
 5033TIP3    H236591   3.628   2.281  12.236  1.1658 -0.5381 -0.5938
 5034TIP3   OH236592   4.254   6.338  11.847 -0.1247  0.3808  0.4751
 5034TIP3    H136593   4.324   6.319  11.785 -1.7452 -3.9676 -0.2295
 5034TIP3    H236594   4.250   6.433  11.850  2.3160  0.7425 -3.4504
 5035TIP3   OH236595   3.146   0.190   1.021 -0.0942  0.0308 -0.2024
 5035TIP3    H136596   3.151   0.279   0.988  1.4544 -0.5088 -1.5238
 5035TIP3    H236597   3.236   0.169   1.045  0.1504 -2.2249 -2.8205
 5036TIP3   OH236598   5.717   3.079   5.952 -0.1550 -0.2070  0.2822
 5036TIP3    H136599   5.812   3.071   5.962 -0.2531 -1.2519  0.4084
 5036TIP3    H236600   5.691   3.140   6.020  0.3740 -0.2573  0.5339
 5037TIP3   OH236601   4.426   6.359  11.243  0.6344 -0.2734  0.0347
 5037TIP3    H136602   4.337   6.383  11.217  1.1992  0.9119 -0.8064
 5037TIP3    H236603   4.446   6.281  11.191 -0.0758 -0.8116  0.5598
 5038TIP3   OH236604   5.017   1.392   2.807 -0.1172 -0.1267 -0.6696
 5038TIP3    H136605   5.058   1.440   2.879 -0.7821  1.3959 -1.2918
 5038TIP3    H236606   5.017   1.301   2.836 -1.1383  0.5634  1.6205
 5039TIP3   OH236607   2.268   3.453  11.072 -0.1589 -0.1057  0.5831
 5039TIP3    H136608   2.194   3.394  11.085  0.6038 -1.2735 -0.3405
 5039TIP3    H236609   2.319   3.446  11.153 -0.1314 -0.6395  0.5205
 5040TIP3   OH236610   6.100   2.016  14.467 -0.1166 -0.3396  0.6371
 5040TIP3    H136611   6.096   2.017  14.563 -0.7410  0.4319  0.6060
 5040TIP3    H236612   6.026   2.070  14.439  1.5830  1.5561 -0.2602
 5041TIP3   OH236613   6.222   6.584  16.240  0.2801 -0.4407  0.3903
 5041TIP3    H136614   6.280   6.541  16.304  0.1268 -3.0189 -1.1202
 5041TIP3    H236615   6.281   6.638  16.187  0.9375 -1.0773  0.4622
 5042TIP3   OH236616   1.765   0.320   3.823  0.4269  0.5590 -0.3732
 5042TIP3    H136617   1.713   0.252   3.866 -0.8775  1.8294  0.0950
 5042TIP3    H236618   1.813   0.362   3.895  0.3199  0.9156 -0.5103
 5043TIP3   OH236619   1.191   6.064   0.916  0.7129 -0.2509  0.0202
 5043TIP3    H136620   1.237   6.003   0.858 -2.2527 -1.1232 -1.5317
 5043TIP3    H236621   1.211   6.150   0.880 -0.1476 -0.7178 -1.6376
 5044TIP3   OH236622   3.387   2.205   0.750  0.0371  0.0681  0.2419
 5044TIP3    H136623   3.342   2.122   0.765  0.9433 -0.3985  0.4555
 5044TIP3    H236624   3.320   2.272   0.763 -0.8620 -0.6625 -0.6179
 5045TIP3   OH236625   4.959   2.449   1.992  0.3321  0.1340 -0.2768
 5045TIP3    H136626   4.867   2.460   1.968  0.0051  0.8347  1.2744
 5045TIP3    H236627   4.972   2.354   1.992 -0.9070 -0.0583  1.3180
 5046TIP3   OH236628   5.155   5.820  13.694  0.0672 -0.3310  0.6906
 5046TIP3    H136629   5.238   5.783  13.723 -0.2867 -1.8662 -0.1788
 5046TIP3    H236630   5.166   5.915  13.702  2.3407 -0.4535 -0.5960
 5047TIP3   OH236631   1.367   4.923  16.799  1.0791 -0.3092 -0.3114
 5047TIP3    H136632   1.346   4.830  16.796  0.5868 -0.1853 -0.8671
 5047TIP3    H236633   1.352   4.953  16.709  0.2156  0.5250  0.1095
 5048TIP3   OH236634   2.405   6.019   3.833  0.0196 -0.1690  0.5723
 5048TIP3    H136635   2.386   5.932   3.869 -0.5052 -0.2997 -0.0208
 5048TIP3    H236636   2.374   6.079   3.900 -0.6622 -0.4187  0.4790
 5049TIP3   OH236637   4.045   1.169  14.058 -0.2890 -0.0826 -0.8201
 5049TIP3    H136638   3.986   1.198  14.128  0.3250 -0.5788 -0.0771
 5049TIP3    H236639   4.036   1.235  13.989 -1.3517  0.0938 -0.5190
 5050TIP3   OH236640   5.171   4.405  13.483  0.5907 -0.4518  0.0327
 5050TIP3    H136641   5.121   4.430  13.561 -2.5134 -1.3607 -1.5759
 5050TIP3    H236642   5.156   4.311  13.474  1.4055 -0.4635 -1.3014
 5051TIP3   OH236643   4.223   0.011   2.010 -0.0441 -0.1882  0.1034
 5051TIP3    H136644   4.295  -0.040   2.048  0.7801  0.8417 -0.0491
 5051TIP3    H236645   4.208  -0.029   1.924  0.2896 -0.4475  0.1631
 5052TIP3   OH236646   0.420   0.044  15.365 -0.4438 -0.9009 -0.0854
 5052TIP3    H136647   0.458  -0.009  15.435  0.4711 -0.3565 -0.1636
 5052TIP3    H236648   0.475   0.123  15.361 -0.3078 -1.0468 -1.5975
 5053TIP3   OH236649   5.394   6.359   0.089  0.6591  0.3144  0.4588
 5053TIP3    H136650   5.373   6.363   0.182  0.1652  0.8394  0.3291
 5053TIP3    H236651   5.316   6.322   0.048  1.1523 -0.5887  0.3449
 5054TIP3   OH236652   4.517   4.656   5.778 -0.5310  0.1438  0.5371
 5054TIP3    H136653   4.540   4.725   5.839 -1.0576  1.2778 -0.5389
 5054TIP3    H236654   4.422   4.663   5.767 -0.6574 -1.0149  0.7349
 5055TIP3   OH236655   5.100   2.855  11.925  0.2854 -0.4637 -0.0152
 5055TIP3    H136656   5.049   2.875  11.846  0.1082 -2.0555 -0.3037
 5055TIP3    H236657   5.161   2.929  11.932 -2.1033  1.5425  0.4332
 5056TIP3   OH236658   3.623   4.184  15.945  0.1637  0.0228  0.0878
 5056TIP3    H136659   3.567   4.166  15.870  0.1663  2.4145 -0.5232
 5056TIP3    H236660   3.712   4.171  15.912  0.1350  0.3450 -0.1160
 5057TIP3   OH236661   5.183   6.188   5.199 -0.5286 -0.0096 -0.4013
 5057TIP3    H136662   5.146   6.108   5.162  0.5676 -1.0343  0.6785
 5057TIP3    H236663   5.171   6.179   5.293  2.3004 -0.3158 -0.0161
 5058TIP3   OH236664   1.637   6.636   1.562  0.0468 -0.0156  0.2721
 5058TIP3    H136665   1.630   6.542   1.579  2.0240 -0.2325  0.0139
 5058TIP3    H236666   1.604   6.647   1.472 -0.9000 -0.3439  0.5767
 5059TIP3   OH236667   0.363   5.244  16.581 -0.5191 -0.1302  0.4897
 5059TIP3    H136668   0.326   5.191  16.511  1.3599 -1.7836  0.7313
 5059TIP3    H236669   0.381   5.182  16.651  3.4122  0.4779  0.0914
 5060TIP3   OH236670   3.673   3.424   2.053 -0.2183  0.0761 -0.6182
 5060TIP3    H136671   3.621   3.350   2.083 -0.3481  0.3553 -0.1479
 5060TIP3    H236672   3.757   3.415   2.098  0.3043 -0.6222 -1.7196
 5061TIP3   OH236673   5.975   2.240  12.395 -0.4593  0.5589  0.3265
 5061TIP3    H136674   5.903   2.179  12.381  0.4412 -0.9124  1.9405
 5061TIP3    H236675   6.026   2.201  12.466  3.8401 -0.2360 -2.9596
 5062TIP3   OH236676   4.881   0.892   4.360  0.0076 -0.1872  0.0810
 5062TIP3    H136677   4.972   0.912   4.383  0.5985 -2.2900 -0.3618
 5062TIP3    H236678   4.865   0.944   4.281  1.0901 -0.4291 -0.3071
 5063TIP3   OH236679   4.351   0.309  11.848  0.4882  0.2751  0.2384
 5063TIP3    H136680   4.352   0.401  11.873 -0.4345  0.4145 -0.2228
 5063TIP3    H236681   4.281   0.270  11.901  1.4405 -0.3469  1.0608
 5064TIP3   OH236682   3.122   3.876  12.764 -0.1404  0.1890  0.1403
 5064TIP3    H136683   3.215   3.899  12.768 -0.4672  1.1836  3.6447
 5064TIP3    H236684   3.121   3.781  12.767  0.7573  0.2062  3.3789
 5065TIP3   OH236685   5.812   0.194  12.968  0.0448  0.6403  0.1127
 5065TIP3    H136686   5.789   0.287  12.967  0.4705  0.7454 -0.5937
 5065TIP3    H236687   5.779   0.161  13.052  0.7787  1.6447  0.7957
 5066TIP3   OH236688   1.395   0.313   2.930  0.2487 -0.8103  0.1506
 5066TIP3    H136689   1.301   0.303   2.942  0.3345 -0.7519  0.9034
 5066TIP3    H236690   1.428   0.224   2.923 -0.0514 -0.7852 -1.6314
 5067TIP3   OH236691   2.111   5.454   1.275 -0.0207  0.3911 -1.1559
 5067TIP3    H136692   2.144   5.376   1.229 -0.4998  0.2060 -1.1805
 5067TIP3    H236693   2.143   5.528   1.223  5.0157  0.4684  1.6929
 5068TIP3   OH236694   0.989   5.075  11.005 -0.3695  0.1894  0.3201
 5068TIP3    H136695   1.063   5.029  10.965  0.1818  1.0988  0.2801
 5068TIP3    H236696   0.919   5.010  11.007 -0.8842  0.5361 -3.4461
 5069TIP3   OH236697   2.541   5.230  12.939 -0.3185 -0.9296 -0.4302
 5069TIP3    H136698   2.572   5.246  12.850 -0.6454  1.8461 -0.0871
 5069TIP3    H236699   2.604   5.276  12.995 -0.7092 -1.7795  0.7216
 5070TIP3   OH236700   4.977   5.179   3.167 -0.3453  0.9845  0.2785
 5070TIP3    H136701   4.999   5.143   3.253 -0.4642  0.0394 -0.0789
 5070TIP3    H236702   4.888   5.213   3.177 -0.1172  1.4657  0.7027
 5071TIP3   OH236703   3.905   4.498  16.102 -0.2915 -0.0948  0.0393
 5071TIP3    H136704   3.930   4.548  16.179 -1.5935  1.5996 -0.6011
 5071TIP3    H236705   3.984   4.451  16.077  0.0786 -0.8994  2.5507
 5072TIP3   OH236706   3.254   6.573   5.920 -0.2320 -0.0129  0.6798
 5072TIP3    H136707   3.287   6.585   6.009 -2.0916  0.9453  1.2496
 5072TIP3    H236708   3.210   6.488   5.923 -1.1810  0.4834  0.9565
 5073TIP3   OH236709   4.279   5.454   2.257  0.2584  0.9291 -0.2505
 5073TIP3    H136710   4.187   5.474   2.239  0.7486  2.6499 -0.9860
 5073TIP3    H236711   4.279   5.419   2.346 -1.1610  0.5139 -0.3968
 5074TIP3   OH236712   1.864   4.424   5.136 -0.0863 -0.0677  0.0065
 5074TIP3    H136713   1.835   4.349   5.084  2.7312 -0.2683 -1.3601
 5074TIP3    H236714   1.873   4.389   5.225 -0.7876 -0.8184 -0.2084
 5075TIP3   OH236715   4.630   4.022   0.726  0.2294 -0.1133  0.0675
 5075TIP3    H136716   4.545   4.063   0.708  0.5157  0.0223 -1.0373
 5075TIP3    H236717   4.617   3.975   0.808 -1.2228 -0.9572 -0.6200
 5076TIP3   OH236718   1.495   5.224   5.469  0.0716  0.0162  0.6941
 5076TIP3    H136719   1.553   5.167   5.520  0.1201 -0.9182 -0.3944
 5076TIP3    H236720   1.412   5.178   5.466  0.3638 -0.4448 -0.9426
 5077TIP3   OH236721   2.179   5.408   4.815 -0.5889  0.2696  0.2784
 5077TIP3    H136722   2.168   5.438   4.724  0.3560  0.9618  0.3948
 5077TIP3    H236723   2.151   5.316   4.812  0.2786  0.0249 -0.9047
 5078TIP3   OH236724   5.105   4.240  16.500  0.3124  0.2151  0.0268
 5078TIP3    H136725   5.180   4.293  16.471 -1.1863  1.3937 -1.8816
 5078TIP3    H236726   5.036   4.304  16.518 -0.3213 -0.8676  1.5370
 5079TIP3   OH236727   2.738   0.953   2.190  0.1404  0.3882 -0.3209
 5079TIP3    H136728   2.671   0.945   2.257  0.3738  1.1165 -0.0069
 5079TIP3    H236729   2.803   0.886   2.213  0.3803  0.8501  0.3623
 5080TIP3   OH236730   1.251   0.911   1.707 -0.3319 -0.3214  0.5807
 5080TIP3    H136731   1.280   0.963   1.633  0.4148  0.2921  1.2941
 5080TIP3    H236732   1.208   0.973   1.765 -0.9919 -0.8153  0.6245
 5081TIP3   OH236733   3.772   2.133  15.726  0.1597  0.2468  0.7859
 5081TIP3    H136734   3.773   2.187  15.804 -1.4389  0.3047  0.7839
 5081TIP3    H236735   3.753   2.194  15.654  0.8492  0.0761  0.4543
 5082TIP3   OH236736   5.407   4.731  17.085  0.1530  0.0171  0.1807
 5082TIP3    H136737   5.447   4.644  17.089 -0.5595 -0.2979  0.6579
 5082TIP3    H236738   5.462   4.786  17.140  1.0368  0.0508 -0.7172
 5083TIP3   OH236739   1.643   1.021  12.263  0.1404  0.0879 -0.2165
 5083TIP3    H136740   1.606   0.933  12.260 -0.0260  0.1574 -0.1573
 5083TIP3    H236741   1.586   1.070  12.322 -0.6130  0.6397 -1.3957
 5084TIP3   OH236742   1.056   2.048   4.304 -0.2883 -0.0760 -0.1099
 5084TIP3    H136743   1.071   2.080   4.393  1.6117 -0.1398 -0.3887
 5084TIP3    H236744   1.081   1.956   4.307 -0.1645 -0.0646 -0.7215
 5085TIP3   OH236745   2.970   1.938  13.255 -0.0956 -0.4082 -0.5082
 5085TIP3    H136746   2.937   2.021  13.288  1.7106  0.6216 -1.2240
 5085TIP3    H236747   3.004   1.958  13.168 -0.8992 -2.1931 -1.2444
 5086TIP3   OH236748   4.929   4.848   0.583  0.1404  0.1625 -0.1011
 5086TIP3    H136749   5.001   4.788   0.601  0.8617  1.0092 -0.1877
 5086TIP3    H236750   4.968   4.919   0.533 -0.4644  1.3185  1.0403
 5087TIP3   OH236751   1.232   1.932   3.891  0.1769  0.0978 -0.6837
 5087TIP3    H136752   1.257   1.846   3.926 -1.1695  0.7751  2.1373
 5087TIP3    H236753   1.312   1.985   3.899  0.5068 -0.3857 -0.7325
 5088TIP3   OH236754   6.196   4.822   3.522 -0.2453  0.3822  0.5762
 5088TIP3    H136755   6.286   4.821   3.489  0.1102 -0.1161  1.5183
 5088TIP3    H236756   6.205   4.846   3.615 -1.1802  1.4224  0.4070
 5089TIP3   OH236757   4.143   0.409  16.072 -0.6649 -0.2167  0.1193
 5089TIP3    H136758   4.065   0.437  16.023  0.3516 -1.4174 -2.2515
 5089TIP3    H236759   4.109   0.344  16.134 -1.7553  0.3296  0.1240
 5090TIP3   OH236760   3.505   3.628  10.859  0.1640  0.1982 -0.5727
 5090TIP3    H136761   3.574   3.640  10.794 -0.6205 -0.3029 -1.5061
 5090TIP3    H236762   3.424   3.640  10.810 -0.4638 -1.2882  0.0706
 5091TIP3   OH236763   6.165   5.778  15.376 -0.2175 -0.0105  0.2949
 5091TIP3    H136764   6.221   5.828  15.316 -0.7352 -0.8494 -0.9046
 5091TIP3    H236765   6.208   5.786  15.461  1.9973 -0.9748 -0.6809
 5092TIP3   OH236766   2.276   5.616  15.022  0.3667  0.0979  0.3534
 5092TIP3    H136767   2.261   5.543  14.962 -2.0643 -1.6553  2.9926
 5092TIP3    H236768   2.273   5.577  15.109 -0.4259  3.2635  1.8048
 5093TIP3   OH236769   6.720   3.059  12.170 -0.0240  0.2198  0.4382
 5093TIP3    H136770   6.766   3.102  12.099 -2.0645  0.5511 -0.7419
 5093TIP3    H236771   6.781   2.992  12.202  1.0821  0.3710 -1.3229
 5094TIP3   OH236772   4.559   1.569   5.832  0.1461  0.1359  0.0533
 5094TIP3    H136773   4.584   1.535   5.918  0.1066 -0.8149 -0.3002
 5094TIP3    H236774   4.464   1.554   5.827  0.2523 -0.4122 -0.4081
 5095TIP3   OH236775   5.191   0.030  15.738  0.2173  0.6079  0.4582
 5095TIP3    H136776   5.215  -0.054  15.777 -1.2599 -0.0038  0.0801
 5095TIP3    H236777   5.169   0.010  15.648  2.3121  1.8146 -0.3620
 5096TIP3   OH236778   3.704   4.198   3.724  0.4520 -0.1997 -0.2644
 5096TIP3    H136779   3.755   4.188   3.804  0.5124 -0.1187 -0.2931
 5096TIP3    H236780   3.639   4.128   3.729 -0.4990  0.7251  0.5904
 5097TIP3   OH236781   2.011   5.037  11.177  0.0091  0.2334 -0.2982
 5097TIP3    H136782   2.014   5.084  11.260 -1.8876  0.3445 -0.2866
 5097TIP3    H236783   1.941   4.973  11.188  0.1688 -0.1738 -1.5952
 5098TIP3   OH236784   2.033   1.474  15.243  0.4012 -0.3821 -0.2602
 5098TIP3    H136785   2.050   1.474  15.337  0.8989 -0.6958 -0.3484
 5098TIP3    H236786   2.114   1.443  15.203  1.3705  3.0080 -1.0472
 5099TIP3   OH236787   3.801   5.080  12.970 -0.2334 -0.0608 -0.3444
 5099TIP3    H136788   3.833   5.121  12.889 -1.9129  1.7340 -0.1514
 5099TIP3    H236789   3.755   5.002  12.941 -0.2173  0.1914 -1.0590
 5100TIP3   OH236790   6.180   4.226   2.662 -0.2660 -0.5567 -0.3175
 5100TIP3    H136791   6.104   4.199   2.611  0.3997 -0.8088 -1.1814
 5100TIP3    H236792   6.179   4.322   2.659 -1.5208 -0.5008  1.1224
 5101TIP3   OH236793   5.944   6.252   1.489 -0.4752 -0.0893  0.1515
 5101TIP3    H136794   5.979   6.340   1.502  1.0528 -0.9681  2.3225
 5101TIP3    H236795   6.021   6.195   1.497 -1.6830 -1.7256  0.3274
 5102TIP3   OH236796   3.795   4.276  11.893 -0.1078  0.2238 -0.1711
 5102TIP3    H136797   3.766   4.317  11.974 -2.1973  0.3102 -0.9199
 5102TIP3    H236798   3.794   4.182  11.913  2.4400  0.3732  0.8321
 5103TIP3   OH236799   5.693   4.954  12.879 -0.0269 -0.1732 -0.1222
 5103TIP3    H136800   5.753   4.989  12.813 -0.5925 -1.7110 -1.4896
 5103TIP3    H236801   5.660   5.031  12.924  1.0871  0.8539 -1.0165
 5104TIP3   OH236802   3.319   1.620   5.679 -0.0165  0.5522 -0.3290
 5104TIP3    H136803   3.281   1.631   5.766  0.1940  2.2834 -0.4327
 5104TIP3    H236804   3.407   1.584   5.696 -0.8546 -1.4244  0.0160
 5105TIP3   OH236805   6.354   6.467  16.474  0.1316  0.1573 -0.3516
 5105TIP3    H136806   6.396   6.542  16.516 -1.7206 -0.4036  2.6299
 5105TIP3    H236807   6.424   6.425  16.423  2.1035  1.6862  1.0390
 5106TIP3   OH236808   5.228   3.333  15.932  0.5770  0.2755  0.1180
 5106TIP3    H136809   5.205   3.250  15.975  2.2128 -1.8525 -2.9697
 5106TIP3    H236810   5.148   3.359  15.886  0.8460 -1.0038 -1.0824
 5107TIP3   OH236811   1.684   2.218   1.729  0.5653  0.2687 -0.4587
 5107TIP3    H136812   1.777   2.223   1.749 -0.0398  0.8957  2.3706
 5107TIP3    H236813   1.644   2.288   1.780 -1.7984 -1.7460  0.5725
 5108TIP3   OH236814   1.592   3.463  17.039 -0.0826 -0.4203  0.2633
 5108TIP3    H136815   1.631   3.478  17.125 -2.0995  0.0069  1.1474
 5108TIP3    H236816   1.581   3.550  17.001  0.4678 -0.5831 -0.2698
 5109TIP3   OH236817   1.316   2.682  13.158 -0.6980 -0.1702 -0.4957
 5109TIP3    H136818   1.323   2.778  13.156  0.9183 -0.2646 -0.0229
 5109TIP3    H236819   1.275   2.664  13.243  2.9310 -0.0524  1.4177
 5110TIP3   OH236820   6.238   4.272   5.404 -0.4925  0.2302  0.2300
 5110TIP3    H136821   6.178   4.308   5.339 -0.7929  0.3009  0.5439
 5110TIP3    H236822   6.231   4.177   5.393 -1.8723  0.1872  1.3399
 5111TIP3   OH236823   4.098   4.439   2.185 -0.1999  0.4224  0.0676
 5111TIP3    H136824   4.009   4.403   2.186  0.2264 -0.6468  0.3282
 5111TIP3    H236825   4.090   4.521   2.234 -0.7141 -0.5028  1.5917
 5112TIP3   OH236826   1.912   4.637   3.122 -0.5053  0.3708 -0.0844
 5112TIP3    H136827   1.836   4.696   3.123  0.2074  1.3010  0.6938
 5112TIP3    H236828   1.964   4.668   3.048  1.1767  2.4683  1.8893
 5113TIP3   OH236829   2.405   6.178   5.496 -0.4307 -0.1004  0.3780
 5113TIP3    H136830   2.324   6.186   5.547 -0.7963  0.2167 -0.2490
 5113TIP3    H236831   2.376   6.181   5.404  0.1120 -1.6466  0.1366
 5114TIP3   OH236832   1.245   4.388  11.236  0.1722 -0.3120 -0.2924
 5114TIP3    H136833   1.307   4.342  11.293  1.6096  1.2988 -0.4970
 5114TIP3    H236834   1.211   4.459  11.291 -0.6425 -0.5062 -0.5460
 5115TIP3   OH236835   1.988   2.016  11.639 -0.0964 -0.1013  0.0602
 5115TIP3    H136836   1.922   2.077  11.672 -0.9244 -0.8990 -0.0618
 5115TIP3    H236837   2.016   1.967  11.716  0.7633  0.6085  0.2027
 5116TIP3   OH236838   5.916   0.623  14.265 -0.4604 -0.4191  0.1984
 5116TIP3    H136839   5.908   0.672  14.184  0.4428 -1.9589 -0.8334
 5116TIP3    H236840   5.826   0.595  14.286 -0.6159 -0.4958 -0.5676
 5117TIP3   OH236841   3.188   0.604  11.104  0.1691  0.1016  0.2155
 5117TIP3    H136842   3.167   0.512  11.093  0.1670  0.0136  0.9164
 5117TIP3    H236843   3.231   0.630  11.022  1.3472 -0.8504  0.5162
 5118TIP3   OH236844   5.181   2.093  12.199 -0.6396  0.3823 -0.3661
 5118TIP3    H136845   5.146   2.025  12.257  0.2808  0.4687  0.3086
 5118TIP3    H236846   5.238   2.046  12.138  2.9517  0.8731  2.3839
 5119TIP3   OH236847   3.661   5.333  15.021  0.2149  0.3189 -0.1214
 5119TIP3    H136848   3.576   5.373  15.005 -1.2169 -2.0098  1.2937
 5119TIP3    H236849   3.652   5.243  14.990  1.4678 -0.5499  1.8802
 5120TIP3   OH236850   4.523   5.178   5.009  0.1282 -0.1245  0.2448
 5120TIP3    H136851   4.542   5.180   4.915 -1.3066 -2.7579 -0.1520
 5120TIP3    H236852   4.602   5.211   5.051  0.0882  3.0222 -1.9353
 5121TIP3   OH236853   1.260   0.806   0.262  0.2796 -0.2778  0.3208
 5121TIP3    H136854   1.167   0.796   0.281 -0.0393  1.4650 -0.2495
 5121TIP3    H236855   1.303   0.787   0.345 -0.6567 -0.0362  0.8680
 5122TIP3   OH236856   2.189   6.688  15.148 -0.6333  0.0120  1.1329
 5122TIP3    H136857   2.203   6.782  15.163  1.1568 -0.4173  2.2986
 5122TIP3    H236858   2.206   6.676  15.054  2.4922  0.3332  1.6019
 5123TIP3   OH236859   1.957   6.243  14.022 -0.0077 -0.2749  0.4684
 5123TIP3    H136860   2.002   6.160  14.036  0.1390 -0.5428 -1.4562
 5123TIP3    H236861   1.866   6.225  14.047 -0.5774 -1.8382 -2.4365
 5124TIP3   OH236862   6.565   2.421  17.075  0.4657 -0.1109  0.1738
 5124TIP3    H136863   6.586   2.339  17.029 -0.0321 -1.4583  2.3151
 5124TIP3    H236864   6.645   2.443  17.123  0.8069  1.0157 -0.8738
 5125TIP3   OH236865   4.353   2.183   2.802  0.0202 -0.4123 -0.1166
 5125TIP3    H136866   4.374   2.262   2.752  1.8478  0.0426  1.3304
 5125TIP3    H236867   4.385   2.112   2.747  0.3234 -0.0380 -0.4324
 5126TIP3   OH236868   4.129   1.065  11.500 -0.0191  0.0103  0.3749
 5126TIP3    H136869   4.220   1.088  11.518 -0.7554  1.4044  2.4737
 5126TIP3    H236870   4.130   1.030  11.411  2.7026 -0.8346  0.7093
 5127TIP3   OH236871   1.222   6.481   2.707  0.8221 -0.0283 -0.1760
 5127TIP3    H136872   1.195   6.443   2.790  2.4738 -0.8589  0.0043
 5127TIP3    H236873   1.199   6.415   2.642  1.6419 -0.3741 -0.1161
 5128TIP3   OH236874   5.013   3.359   2.090  0.6692 -0.1808  0.1870
 5128TIP3    H136875   5.004   3.279   2.143  1.3378  0.5588  1.4415
 5128TIP3    H236876   5.025   3.429   2.154  0.0576  0.9458 -0.9033
 5129TIP3   OH236877   4.843   0.171   5.086 -0.1937  0.0676 -0.5375
 5129TIP3    H136878   4.897   0.154   5.009 -0.6369  0.3695 -0.9175
 5129TIP3    H236879   4.753   0.166   5.054 -0.3625  1.5227 -0.3243
 5130TIP3   OH236880   1.963   0.572   1.854  0.4006  0.0147  0.0773
 5130TIP3    H136881   1.904   0.582   1.929  0.7697  0.3166  0.3286
 5130TIP3    H236882   2.050   0.593   1.889  0.4360  1.1008 -0.6673
 5131TIP3   OH236883   0.088   2.143   2.987  0.5139  0.0785 -0.1554
 5131TIP3    H136884   0.120   2.196   3.060 -0.2686  1.3875 -0.7538
 5131TIP3    H236885   0.111   2.192   2.909  1.5273 -1.4242 -0.8254
 5132TIP3   OH236886   6.803   3.175   0.009  0.1470 -0.0480 -0.0749
 5132TIP3    H136887   6.851   3.249   0.045  1.2643 -0.3381 -0.9114
 5132TIP3    H236888   6.828   3.173  -0.084 -0.3049 -1.1114 -0.1867
 5133TIP3   OH236889   1.306   5.638   2.755 -0.4303 -0.1923  0.5521
 5133TIP3    H136890   1.227   5.621   2.705  0.3906 -1.8312 -0.2283
 5133TIP3    H236891   1.337   5.723   2.724 -2.0030  0.5881  1.0563
 5134TIP3   OH236892   0.296   2.866  12.685  0.2301 -0.4341  0.2112
 5134TIP3    H136893   0.276   2.838  12.596 -1.0825 -0.3580  0.4707
 5134TIP3    H236894   0.211   2.869  12.729  0.7698  0.3399  1.2315
 5135TIP3   OH236895   6.253   1.750  14.485  0.0533  0.0783  0.7881
 5135TIP3    H136896   6.163   1.782  14.480 -0.0814 -0.3138  0.6633
 5135TIP3    H236897   6.259   1.706  14.570  0.5663  1.4113  1.4536
 5136TIP3   OH236898   1.789   0.994  14.282 -0.1720 -0.1774  0.6281
 5136TIP3    H136899   1.818   0.933  14.214 -0.8703  0.0071  0.1470
 5136TIP3    H236900   1.695   1.003  14.266 -0.3464 -0.1573  1.6469
 5137TIP3   OH236901   3.459   5.084  10.206  0.8537  0.2228  0.4502
 5137TIP3    H136902   3.521   5.154  10.187 -0.4985  0.9137 -1.6800
 5137TIP3    H236903   3.375   5.129  10.218  0.2630 -0.9030  0.6199
 5138TIP3   OH236904   5.018   0.605  17.214  0.2962 -0.0861 -0.1400
 5138TIP3    H136905   5.103   0.648  17.209  1.1909 -1.8484 -0.4315
 5138TIP3    H236906   5.032   0.530  17.272 -1.0441 -0.3971 -0.2056
 5139TIP3   OH236907   1.298   2.257  16.167  0.2630 -0.1059 -0.2510
 5139TIP3    H136908   1.393   2.254  16.158  0.3639  0.4324  0.5331
 5139TIP3    H236909   1.265   2.278  16.079  0.8923  0.0483 -0.4509
 5140TIP3   OH236910   5.783   1.406   2.596  0.5554  0.1073 -0.1878
 5140TIP3    H136911   5.705   1.433   2.548 -0.1983 -3.5053 -1.0939
 5140TIP3    H236912   5.856   1.443   2.545 -0.3764 -0.8307 -2.2655
 5141TIP3   OH236913   3.642   3.806  11.026  0.1879  0.4218  0.0011
 5141TIP3    H136914   3.683   3.769  11.105 -0.6140  0.1950  0.3089
 5141TIP3    H236915   3.603   3.731  10.982  0.1147  0.6413 -0.3033
 5142TIP3   OH236916   6.540   0.668  12.379 -0.3918  0.5352  0.1328
 5142TIP3    H136917   6.472   0.658  12.445  0.3018  1.0226  0.9288
 5142TIP3    H236918   6.604   0.728  12.419  0.6337 -0.1266 -0.4964
 5143TIP3   OH236919   6.460   3.080   1.607  0.3055 -0.2374 -0.0404
 5143TIP3    H136920   6.544   3.037   1.623  0.5108  0.4305  0.7494
 5143TIP3    H236921   6.400   3.009   1.585  1.1689 -0.6784 -1.0166
 5144TIP3   OH236922   1.782   1.032   3.709  0.2799 -0.0407  0.8253
 5144TIP3    H136923   1.700   1.080   3.714  0.2631 -0.2574  3.2401
 5144TIP3    H236924   1.849   1.099   3.694 -0.0533  0.4537  1.4937
 5145TIP3   OH236925   4.229   1.863   2.996  0.1760 -0.3168 -0.1048
 5145TIP3    H136926   4.263   1.919   2.926  0.3303 -1.4136 -0.9345
 5145TIP3    H236927   4.257   1.775   2.970 -0.2380 -0.7909  1.0681
 5146TIP3   OH236928   3.311   6.246  13.209  0.7256 -0.0012  0.0828
 5146TIP3    H136929   3.298   6.277  13.298 -0.5469 -0.8567  0.2101
 5146TIP3    H236930   3.385   6.186  13.215  0.8029  0.1377  0.5228
 5147TIP3   OH236931   2.737   1.307  12.715  0.0927  0.4060 -0.1006
 5147TIP3    H136932   2.708   1.378  12.659  1.1981  0.7695 -0.2317
 5147TIP3    H236933   2.781   1.350  12.788  0.6134 -0.1259 -0.0902
 5148TIP3   OH236934   3.968   2.548  10.571 -0.0329  0.6285 -0.3071
 5148TIP3    H136935   3.878   2.518  10.559  0.0185 -0.6026  2.0707
 5148TIP3    H236936   4.021   2.483  10.526 -0.1669 -0.5780  1.2345
 5149TIP3   OH236937   5.055   2.847   4.997 -0.4279 -0.8412  0.3460
 5149TIP3    H136938   4.997   2.908   4.951  0.7184  0.9903  1.2445
 5149TIP3    H236939   5.048   2.872   5.089  0.6714 -1.5605  0.6365
 5150TIP3   OH236940   2.270   3.115  13.774 -0.6077  0.3066  0.0837
 5150TIP3    H136941   2.345   3.175  13.771 -1.0880  0.8710 -1.0707
 5150TIP3    H236942   2.234   3.118  13.685 -0.7485 -1.5708  0.0620
 5151TIP3   OH236943   5.641   5.664   5.100 -0.1096  0.3640  0.4619
 5151TIP3    H136944   5.668   5.615   5.178  1.1226  0.8196  0.3342
 5151TIP3    H236945   5.701   5.633   5.032 -0.2247  1.0514  0.0527
 5152TIP3   OH236946   0.411   4.984   1.248  0.3335  0.0234 -0.3677
 5152TIP3    H136947   0.491   4.966   1.297  0.3247 -1.4379 -0.8823
 5152TIP3    H236948   0.349   5.015   1.314  0.2150 -2.2332  0.6162
 5153TIP3   OH236949   6.568   3.020   0.726 -0.8792 -0.5270 -0.4513
 5153TIP3    H136950   6.647   2.976   0.757 -1.8762 -0.3151  2.5646
 5153TIP3    H236951   6.511   2.950   0.696 -0.4471 -0.8852 -0.4411
 5154TIP3   OH236952   3.352   6.791   4.236  0.1113  0.2280 -0.4441
 5154TIP3    H136953   3.257   6.796   4.229  0.3463  1.1978 -3.5276
 5154TIP3    H236954   3.372   6.699   4.219 -0.0387  0.7497 -3.6236
 5155TIP3   OH236955   3.930   4.310  13.323 -0.9229  0.5214 -0.2183
 5155TIP3    H136956   3.943   4.373  13.394 -1.1247 -0.1492  0.4163
 5155TIP3    H236957   3.981   4.234  13.349  0.2157  0.8172 -1.5166
 5156TIP3   OH236958   5.152   0.195   2.947 -0.1286  0.7364 -0.2398
 5156TIP3    H136959   5.147   0.101   2.962  3.0109  0.6552  0.6172
 5156TIP3    H236960   5.093   0.233   3.013  0.2004 -0.5197  0.7956
 5157TIP3   OH236961   5.887   5.170   5.291  0.0072 -0.4720 -0.7257
 5157TIP3    H136962   5.808   5.201   5.334 -0.1261  1.1313 -2.1067
 5157TIP3    H236963   5.951   5.240   5.304  1.4066 -1.9568  0.8217
 5158TIP3   OH236964   4.252   1.670  12.434 -0.0516 -0.0841  0.2483
 5158TIP3    H136965   4.262   1.583  12.474 -4.0889 -0.8158 -0.1018
 5158TIP3    H236966   4.219   1.725  12.505  0.1785  0.5388 -0.1279
 5159TIP3   OH236967   3.989   5.233  13.158  0.4740 -0.1879 -0.3613
 5159TIP3    H136968   3.929   5.307  13.156  1.3505  0.5687  0.7316
 5159TIP3    H236969   4.009   5.216  13.066 -0.4561  0.3239 -0.6685
 5160TIP3   OH236970   4.728   3.964   1.586  0.6346 -0.5950 -0.0589
 5160TIP3    H136971   4.818   3.954   1.557  0.8527  0.5227  0.1896
 5160TIP3    H236972   4.723   3.914   1.668  1.5648  0.8932  0.9407
 5161TIP3   OH236973   1.421   2.646   5.569  0.1551  0.2698  0.8743
 5161TIP3    H136974   1.428   2.553   5.548  4.0959  0.3536  1.4390
 5161TIP3    H236975   1.429   2.691   5.485  1.8322  0.1867  0.9821
 5162TIP3   OH236976   2.170   3.990   2.900  0.6529 -0.2692 -0.5951
 5162TIP3    H136977   2.144   4.012   2.810  2.2910 -0.5238 -1.1346
 5162TIP3    H236978   2.231   4.059   2.925 -0.3796  0.2278  0.6169
 5163TIP3   OH236979   6.349   4.679   5.341  0.1161 -0.1388 -0.3993
 5163TIP3    H136980   6.291   4.681   5.265  0.7266 -2.1110 -0.9398
 5163TIP3    H236981   6.289   4.676   5.416 -0.4859  0.5537 -0.8507
 5164TIP3   OH236982   6.740   2.242  14.346 -0.5669 -0.0979  0.1206
 5164TIP3    H136983   6.809   2.200  14.295  0.0177 -1.0783  1.6538
 5164TIP3    H236984   6.786   2.284  14.419 -1.2710  2.2874 -0.7858
 5165TIP3   OH236985   6.593   0.174  14.503  0.0869 -0.4810  0.1912
 5165TIP3    H136986   6.527   0.179  14.435  0.4425 -0.7473 -0.1816
 5165TIP3    H236987   6.545   0.183  14.585 -0.2773  0.3880 -0.1162
 5166TIP3   OH236988   5.675   1.241   3.446  0.2938 -0.6983  0.4348
 5166TIP3    H136989   5.753   1.289   3.474  0.4479 -0.3903 -0.5106
 5166TIP3    H236990   5.686   1.230   3.352 -1.8979  1.3972 -0.1265
 5167TIP3   OH236991   5.201   1.027   4.079 -0.1248 -0.0773  0.2238
 5167TIP3    H136992   5.281   1.041   4.029 -0.0010 -1.0625  0.1506
 5167TIP3    H236993   5.147   1.105   4.060  0.4715  0.1944 -0.3619
 5168TIP3   OH236994   1.463   0.275   2.459 -0.6146  0.0776  0.6855
 5168TIP3    H136995   1.406   0.216   2.509 -0.2947 -0.3831  0.5088
 5168TIP3    H236996   1.437   0.363   2.487 -1.1397 -0.1459  0.8993
 5169TIP3   OH236997   0.478   1.267   2.305  0.3049  0.0551  0.5111
 5169TIP3    H136998   0.396   1.309   2.332 -0.5170 -1.6379  0.7637
 5169TIP3    H236999   0.516   1.234   2.386  1.8120  1.7796  0.5322
 5170TIP3   OH237000   5.641   3.963  17.067  0.5110 -0.4568  0.1588
 5170TIP3    H137001   5.561   3.911  17.069  0.3006 -0.2142 -1.7183
 5170TIP3    H237002   5.710   3.901  17.043  0.3715 -0.0294 -1.3735
 5171TIP3   OH237003   4.011   4.597   5.559 -0.2330 -0.2907  0.1024
 5171TIP3    H137004   3.922   4.627   5.542 -0.0406  0.0653 -0.2958
 5171TIP3    H237005   4.027   4.529   5.493 -0.8476 -1.6409  1.3297
 5172TIP3   OH237006   2.651   1.802  13.939 -0.0834 -0.3802  0.3443
 5172TIP3    H137007   2.684   1.866  13.876  0.3656  1.3418  2.2994
 5172TIP3    H237008   2.688   1.829  14.023 -2.6413 -1.1987  1.7788
 5173TIP3   OH237009   4.513   2.291   1.637  0.8275  0.4512 -0.7280
 5173TIP3    H137010   4.499   2.384   1.621 -0.7321  0.5451  1.0765
 5173TIP3    H237011   4.601   2.286   1.675  0.4370  1.3184  0.3092
 5174TIP3   OH237012   1.407   1.696  14.697 -0.3416 -0.0592  0.3898
 5174TIP3    H137013   1.488   1.709  14.746  0.0678 -0.8986 -0.0487
 5174TIP3    H237014   1.344   1.664  14.763  0.0859 -0.7732  0.4572
 5175TIP3   OH237015   3.114   5.959   2.811  0.4735 -0.0137  0.2018
 5175TIP3    H137016   3.019   5.948   2.799  0.5208  1.0689 -1.3306
 5175TIP3    H237017   3.123   6.045   2.851  0.7803 -0.4484  1.0855
 5176TIP3   OH237018   4.056   6.377  12.555 -0.2150  0.0909  0.4429
 5176TIP3    H137019   4.034   6.380  12.648 -1.8442 -1.9367  0.1637
 5176TIP3    H237020   3.985   6.426  12.513 -0.5700 -0.7030  0.1081
 5177TIP3   OH237021   5.881   6.326  16.451  0.5611 -0.6258  0.2142
 5177TIP3    H137022   5.834   6.346  16.532 -0.0448  0.4610 -0.4093
 5177TIP3    H237023   5.974   6.326  16.477  0.5884  2.8026  0.2765
 5178TIP3   OH237024   3.395   5.676   1.677 -0.0560 -0.3805 -0.1996
 5178TIP3    H137025   3.473   5.621   1.678  1.0948  1.1582 -1.1149
 5178TIP3    H237026   3.336   5.637   1.741  0.8482 -2.4608 -0.6164
 5179TIP3   OH237027   3.442   2.091  14.798 -0.1258 -0.1050 -0.4870
 5179TIP3    H137028   3.384   2.166  14.786 -0.7005  0.0487  2.7472
 5179TIP3    H237029   3.510   2.121  14.858 -0.0567 -1.9866  0.4397
 5180TIP3   OH237030   2.577   4.877   4.609 -0.2664  0.1924  0.4113
 5180TIP3    H137031   2.534   4.836   4.685  1.6401 -1.5857  0.5718
 5180TIP3    H237032   2.628   4.806   4.570  0.5452  1.6607 -1.2223
 5181TIP3   OH237033   2.137   4.437  15.697 -0.5893 -0.0772  0.1274
 5181TIP3    H137034   2.051   4.410  15.663 -0.1402 -0.9967 -0.3083
 5181TIP3    H237035   2.200   4.394  15.639  0.1987 -1.7431  2.1184
 5182TIP3   OH237036   3.428   5.867   1.495  0.7432 -1.2615 -0.0720
 5182TIP3    H137037   3.457   5.829   1.412 -1.2295 -0.5796 -1.0816
 5182TIP3    H237038   3.398   5.792   1.546  1.9697 -1.6832  0.0614
 5183TIP3   OH237039   1.335   0.805  16.291  0.3637 -0.5219  0.4598
 5183TIP3    H137040   1.279   0.758  16.230  1.4374 -0.9575 -0.1947
 5183TIP3    H237041   1.293   0.794  16.376 -1.3434  0.3992 -0.2411
 5184TIP3   OH237042   1.670   6.516  12.668 -0.0800  0.2011 -0.4009
 5184TIP3    H137043   1.637   6.547  12.752 -1.3571 -1.4964 -0.2404
 5184TIP3    H237044   1.711   6.592  12.628 -1.8607  1.7115  0.5729
 5185TIP3   OH237045   6.234   2.152   1.202  0.1868 -0.3572  0.3240
 5185TIP3    H137046   6.272   2.065   1.211 -0.8583 -0.8480  0.0778
 5185TIP3    H237047   6.152   2.138   1.154  0.3315  0.8398 -0.3003
 5186TIP3   OH237048   4.740   4.673   5.606  0.3957 -0.3024 -0.6030
 5186TIP3    H137049   4.651   4.680   5.572  0.9782  2.5771 -1.7136
 5186TIP3    H237050   4.730   4.627   5.690 -2.3893  1.6484  0.2277
 5187TIP3   OH237051   5.083   4.955   6.022  0.0101 -0.4413 -0.3150
 5187TIP3    H137052   5.049   5.021   6.081 -0.6753 -1.0518 -0.0160
 5187TIP3    H237053   5.121   5.005   5.949  1.4973  0.3279  0.9549
 5188TIP3   OH237054   4.306   0.231   2.827 -0.2099  0.7080  0.5148
 5188TIP3    H137055   4.266   0.244   2.913  1.6584  0.2793  1.4876
 5188TIP3    H237056   4.399   0.218   2.846  0.3415  1.2887 -1.6292
 5189TIP3   OH237057   6.188   0.148  17.273  0.2486  0.4309  0.0956
 5189TIP3    H137058   6.187   0.191  17.187  2.3106  1.8752  0.7497
 5189TIP3    H237059   6.233   0.065  17.259 -0.6528  0.0357 -0.4839
 5190TIP3   OH237060   4.365   1.319   1.002  0.6612  0.5693  0.1106
 5190TIP3    H137061   4.329   1.231   1.017  0.0650  0.8203  0.1703
 5190TIP3    H237062   4.292   1.368   0.962  1.1890  0.8557 -0.5008
 5191TIP3   OH237063   1.850   0.239  13.837  0.1463  0.2213  0.3614
 5191TIP3    H137064   1.876   0.293  13.763  0.5179 -0.2389  0.1521
 5191TIP3    H237065   1.910   0.264  13.907 -1.1798  1.7438  0.9741
 5192TIP3   OH237066   2.067   5.330   0.391 -0.6099  0.8373 -0.3385
 5192TIP3    H137067   2.013   5.370   0.323 -0.9583 -0.3794 -0.7921
 5192TIP3    H237068   2.024   5.246   0.409  0.5066  0.3524  0.0898
 5193TIP3   OH237069   3.263   2.581  15.784 -0.2629  0.1568  0.2245
 5193TIP3    H137070   3.250   2.543  15.697 -0.3387 -0.0841  0.3407
 5193TIP3    H237071   3.257   2.676  15.769 -0.9083  0.0945  0.0645
 5194TIP3   OH237072   2.010   4.690   2.463 -0.0534  0.3041 -0.1731
 5194TIP3    H137073   2.070   4.664   2.532 -1.2514  0.5985  1.0205
 5194TIP3    H237074   1.989   4.609   2.416  0.5901  0.0645 -0.0438
 5195TIP3   OH237075   2.630   6.229  12.748 -0.1654 -0.1155 -0.2546
 5195TIP3    H137076   2.599   6.235  12.838  0.9665 -1.8426  0.2832
 5195TIP3    H237077   2.693   6.301  12.739  0.7189 -0.7602  0.7585
 5196TIP3   OH237078   4.392   2.107  15.122  0.3732 -0.1725 -0.2754
 5196TIP3    H137079   4.426   2.196  15.112  2.4459 -0.9622 -0.5824
 5196TIP3    H237080   4.297   2.117  15.123  0.5910  2.0740  0.0427
 5197TIP3   OH237081   1.225   0.806   5.169  0.6223  0.3873 -0.7746
 5197TIP3    H137082   1.174   0.832   5.245 -0.7262 -0.9521 -1.2064
 5197TIP3    H237083   1.194   0.718   5.147  0.3906  1.0607 -3.3604
 5198TIP3   OH237084   5.439   0.178   4.997 -0.3544 -0.1582 -0.5925
 5198TIP3    H137085   5.400   0.255   5.039  0.3153  0.3055 -0.8122
 5198TIP3    H237086   5.530   0.179   5.025 -0.4915 -1.2209 -0.1096
 5199TIP3   OH237087   5.429   5.057  11.550  0.1708 -0.7582  0.2568
 5199TIP3    H137088   5.433   5.044  11.455  0.5879 -1.7893  0.4071
 5199TIP3    H237089   5.417   5.151  11.561 -0.3234 -0.6860 -0.8300
 5200TIP3   OH237090   3.917   1.258  16.726 -0.1997  0.0722  0.3081
 5200TIP3    H137091   3.980   1.303  16.670 -0.9455  1.1551  0.3226
 5200TIP3    H237092   3.893   1.179  16.677 -1.0389  1.1391 -1.0422
 5201TIP3   OH237093   4.022   5.401  11.934  0.4429 -0.0113  0.3024
 5201TIP3    H137094   4.062   5.317  11.912  0.4918  0.3804 -1.1698
 5201TIP3    H237095   4.045   5.458  11.861 -3.1354  0.1034 -0.8599
 5202TIP3   OH237096   1.530   6.270   6.170 -0.6655  0.2609  0.2250
 5202TIP3    H137097   1.499   6.239   6.255  0.4557 -2.0587 -0.1808
 5202TIP3    H237098   1.475   6.226   6.106 -1.1185  1.5521 -0.2978
 5203TIP3   OH237099   1.473   2.240  16.703  0.0698  0.1482 -0.4203
 5203TIP3    H137100   1.493   2.194  16.621 -0.3702 -0.3473 -0.2460
 5203TIP3    H237101   1.394   2.290  16.683  0.1224  0.2484 -0.3789
 5204TIP3   OH237102   5.764   6.537   4.955  0.2239  0.3830 -0.0219
 5204TIP3    H137103   5.705   6.489   5.012 -0.5912  1.3787 -0.0144
 5204TIP3    H237104   5.743   6.629   4.970  1.5573  0.7468 -0.2559
 5205TIP3   OH237105   2.383   4.028  10.778  0.1204 -0.3765 -0.3962
 5205TIP3    H137106   2.303   4.081  10.776 -0.0666 -0.6229  0.4355
 5205TIP3    H237107   2.381   3.986  10.864  1.1733 -0.3338 -0.3521
 5206TIP3   OH237108   2.329   5.940   2.700  0.2498  0.4085 -0.2176
 5206TIP3    H137109   2.422   5.961   2.707 -0.0751  2.1653 -0.8231
 5206TIP3    H237110   2.326   5.850   2.667  1.7397  1.0034 -2.0452
 5207TIP3   OH237111   6.791   6.728   4.732 -0.0545 -0.3597  0.5753
 5207TIP3    H137112   6.759   6.774   4.810  0.5954 -0.4161  0.8768
 5207TIP3    H237113   6.735   6.759   4.661 -0.0879  0.3412  0.9101
 5208TIP3   OH237114   2.613   4.700  15.345 -0.2781 -0.0970  0.5098
 5208TIP3    H137115   2.589   4.742  15.262  0.2154  0.7546  0.7918
 5208TIP3    H237116   2.653   4.617  15.319  0.4187  0.4341 -0.1267
 5209TIP3   OH237117   4.237   0.613   1.754 -0.4915  0.4104 -0.2307
 5209TIP3    H137118   4.291   0.541   1.787 -0.7008  0.5395  0.4056
 5209TIP3    H237119   4.191   0.645   1.831 -0.6867  0.9799 -0.5819
 5210TIP3   OH237120   1.871   6.435   3.475 -0.1332  0.1850  0.5525
 5210TIP3    H137121   1.865   6.345   3.508 -1.4220  1.5763  4.3474
 5210TIP3    H237122   1.944   6.473   3.523  0.5833  1.1433 -1.2381
 5211TIP3   OH237123   2.643   3.282  11.072  0.2577  0.4238 -0.2418
 5211TIP3    H137124   2.676   3.210  11.125  0.9824 -1.0215 -2.5955
 5211TIP3    H237125   2.584   3.241  11.010  2.2051  1.5331 -2.9066
 5212TIP3   OH237126   1.114   1.784   2.754 -0.0042  0.0856 -0.1341
 5212TIP3    H137127   1.077   1.752   2.672 -0.5171 -0.7915  0.4343
 5212TIP3    H237128   1.098   1.878   2.753  0.5976  0.1791 -1.3509
 5213TIP3   OH237129   0.071   4.276  11.927 -0.3901  0.0460 -0.6782
 5213TIP3    H137130   0.017   4.338  11.975 -1.0621  0.1478 -1.5514
 5213TIP3    H237131   0.009   4.227  11.872 -0.3515 -3.7104  2.4113
 5214TIP3   OH237132   0.839   0.337  13.686  0.1141 -0.2156 -0.4852
 5214TIP3    H137133   0.805   0.360  13.772 -1.6857  1.8264 -1.7024
 5214TIP3    H237134   0.925   0.380  13.682  0.3128 -0.5137  0.3542
 5215TIP3   OH237135   2.933   5.106  11.182 -0.4228  0.7425  0.4243
 5215TIP3    H137136   2.891   5.028  11.147  0.3101  1.1562 -1.4458
 5215TIP3    H237137   2.946   5.087  11.275 -1.1093 -0.9686  0.1888
 5216TIP3   OH237138   6.425   1.468   2.215 -0.0506  0.4051  0.0660
 5216TIP3    H137139   6.432   1.403   2.285 -2.1915  1.9952  1.8263
 5216TIP3    H237140   6.439   1.552   2.259  0.7877  1.2973 -1.8349
 5217TIP3   OH237141   3.174   1.765   1.613 -0.9627  0.4633 -0.3019
 5217TIP3    H137142   3.244   1.811   1.566  1.4976 -0.0637  2.6666
 5217TIP3    H237143   3.201   1.673   1.612  0.9736  0.8208  4.9071
 5218TIP3   OH237144   0.208   4.237  15.845  0.2324  0.0731 -0.4380
 5218TIP3    H137145   0.215   4.328  15.873 -1.0893  0.0788 -0.0933
 5218TIP3    H237146   0.176   4.191  15.923  1.1344 -0.7406 -0.5354
 5219TIP3   OH237147   3.535   5.100  14.468  0.0168  0.6620 -0.5286
 5219TIP3    H137148   3.568   5.167  14.528 -1.1251 -0.9906  2.0083
 5219TIP3    H237149   3.594   5.026  14.481 -0.4765  0.1512 -1.1896
 5220TIP3   OH237150   2.823   2.953  13.110 -0.8159  0.1817 -0.1488
 5220TIP3    H137151   2.842   2.920  13.198 -0.7699  0.7596  0.0578
 5220TIP3    H237152   2.783   3.038  13.125 -0.9303  0.2201 -0.6864
 5221TIP3   OH237153   5.530   5.827   2.131 -0.4346 -0.8118 -0.2234
 5221TIP3    H137154   5.453   5.790   2.174 -0.1956  0.3820  1.2896
 5221TIP3    H237155   5.599   5.822   2.198 -0.4664  2.5332  0.1050
 5222TIP3   OH237156   4.202   1.656  12.105  0.1392 -0.2730  0.1786
 5222TIP3    H137157   4.237   1.581  12.153  0.0277 -1.7667 -2.0244
 5222TIP3    H237158   4.267   1.726  12.117  0.7726 -1.0545  1.3343
 5223TIP3   OH237159   6.660   3.174  16.195 -0.2765 -0.2453  0.3188
 5223TIP3    H137160   6.711   3.166  16.114  0.9208  3.9087  0.5744
 5223TIP3    H237161   6.723   3.157  16.265 -0.2025  0.8737  0.5202
 5224TIP3   OH237162   4.811   0.010  14.518 -0.1419 -0.2676 -0.1822
 5224TIP3    H137163   4.904   0.025  14.504 -0.1062 -0.2121  0.1219
 5224TIP3    H237164   4.805  -0.084  14.538 -0.1610 -0.2848 -0.2633
 5225TIP3   OH237165   5.288   1.432  12.641  0.4339 -0.2456  0.2234
 5225TIP3    H137166   5.269   1.488  12.566 -1.7333 -0.4382  0.5940
 5225TIP3    H237167   5.249   1.477  12.716 -0.6273 -1.8053  0.6489
 5226TIP3   OH237168   5.108   5.149  15.521 -0.4570  0.1035 -0.1001
 5226TIP3    H137169   5.119   5.243  15.531  0.8808  0.3333 -3.3072
 5226TIP3    H237170   5.014   5.135  15.530 -0.6983  1.7501  0.1239
 5227TIP3   OH237171   3.698   3.410  12.188 -0.4462  0.4461  0.6276
 5227TIP3    H137172   3.621   3.369  12.148 -0.9321 -0.9624  2.9672
 5227TIP3    H237173   3.748   3.338  12.225  0.1766  1.6879  2.2736
 5228TIP3   OH237174   4.306   0.156   2.558 -0.1818 -0.1925  0.0497
 5228TIP3    H137175   4.318   0.228   2.496 -3.0976  0.2488 -0.0754
 5228TIP3    H237176   4.299   0.200   2.643  3.3857 -0.7638  0.7194
 5229TIP3   OH237177   3.638   3.804  12.262 -0.0375  0.1978  0.4632
 5229TIP3    H137178   3.578   3.876  12.242  0.7129  0.9511  0.9300
 5229TIP3    H237179   3.654   3.811  12.356  0.4922 -0.2407  0.4082
 5230TIP3   OH237180   5.964   2.323  16.520 -0.7234 -0.2292 -0.4788
 5230TIP3    H137181   5.973   2.245  16.574 -2.2250 -0.9602 -1.2554
 5230TIP3    H237182   6.052   2.339  16.486 -0.0745 -0.6125  1.0014
 5231TIP3   OH237183   4.824   0.220   1.714  0.2287 -0.6723  0.4471
 5231TIP3    H137184   4.843   0.142   1.663  1.1380 -2.2743  3.1191
 5231TIP3    H237185   4.902   0.275   1.704  0.4921 -1.0757  0.2984
 5232TIP3   OH237186   1.780   4.992  17.116 -0.4774 -0.1059  0.2326
 5232TIP3    H137187   1.820   4.953  17.038  2.1195  1.5763  0.6578
 5232TIP3    H237188   1.771   4.918  17.176  2.0912 -0.5627  0.1350
 5233TIP3   OH237189   4.176   0.883   5.169  0.3561  0.0054  0.3331
 5233TIP3    H137190   4.227   0.945   5.118  0.6201 -0.8268 -0.4305
 5233TIP3    H237191   4.097   0.931   5.194  0.8183  0.8164  0.2394
 5234TIP3   OH237192   1.837   4.506  16.172  0.0274  0.0284 -0.7295
 5234TIP3    H137193   1.896   4.479  16.101 -0.0754 -1.0687 -0.4104
 5234TIP3    H237194   1.781   4.429  16.186 -1.2605  0.9487 -0.8023
 5235TIP3   OH237195   4.541   6.341   5.116  0.3251  0.2845  0.1830
 5235TIP3    H137196   4.512   6.268   5.061 -0.3352  1.1318 -0.6229
 5235TIP3    H237197   4.496   6.418   5.079  0.7424  1.0421  1.2227
 5236TIP3   OH237198   1.712   1.905   0.013  0.0465 -0.6058  0.2933
 5236TIP3    H137199   1.651   1.888  -0.058 -0.5117 -2.7670  1.2361
 5236TIP3    H237200   1.746   1.993  -0.004 -2.9512  0.4452 -0.4982
 5237TIP3   OH237201   3.634   0.040   2.951  0.2396  0.5179  0.3515
 5237TIP3    H137202   3.593   0.021   2.867  0.2621  3.0516 -0.2796
 5237TIP3    H237203   3.586  -0.015   3.014  0.0924 -1.2402 -1.2631
 5238TIP3   OH237204   1.359   4.868   3.864  0.1536 -0.6591 -0.2105
 5238TIP3    H137205   1.280   4.856   3.916  0.5315  0.4514  0.6278
 5238TIP3    H237206   1.428   4.827   3.916  0.1193 -1.7260 -0.9919
 5239TIP3   OH237207   4.020   0.484   6.555 -0.2297  0.0634  0.2768
 5239TIP3    H137208   4.036   0.499   6.648  0.9054 -1.1086  0.2870
 5239TIP3    H237209   3.935   0.440   6.551  0.5546 -1.5196  0.8984
 5240TIP3   OH237210   6.778   6.728   2.741 -0.2947  0.1857  0.7661
 5240TIP3    H137211   6.849   6.779   2.781 -0.0333 -0.9523  1.7719
 5240TIP3    H237212   6.769   6.765   2.653 -0.4821  2.3604  1.6460
 5241TIP3   OH237213   1.267   1.598  13.571  0.6753  0.3487 -0.3377
 5241TIP3    H137214   1.330   1.576  13.639  0.8258 -0.2639 -0.6690
 5241TIP3    H237215   1.262   1.519  13.517 -1.0001  0.0812  0.1732
 5242TIP3   OH237216   3.946   6.093  12.340 -0.3518  0.1847 -0.4827
 5242TIP3    H137217   3.944   6.028  12.269  1.3021 -0.4226 -0.0026
 5242TIP3    H237218   3.880   6.061  12.403 -1.4245  0.4224 -1.4738
 5243TIP3   OH237219   4.600   2.813  11.237  0.1649 -0.2029 -0.0768
 5243TIP3    H137220   4.680   2.827  11.287  1.0343 -0.9040 -1.2421
 5243TIP3    H237221   4.530   2.820  11.302  1.2444 -0.7583  1.1771
 5244TIP3   OH237222   1.545   0.607   5.424  0.1743  0.2284  0.0747
 5244TIP3    H137223   1.455   0.578   5.435  0.1849  0.9188  2.1505
 5244TIP3    H237224   1.538   0.691   5.380 -0.3293  1.2438  2.0343
 5245TIP3   OH237225   2.635   6.442  17.138  0.2716  0.2764 -0.1817
 5245TIP3    H137226   2.617   6.375  17.072  0.9251  2.1044 -2.2534
 5245TIP3    H237227   2.706   6.404  17.191 -1.7154 -2.1027  0.8873
 5246TIP3   OH237228   0.609   6.715   5.593  0.6668 -0.4707  0.2529
 5246TIP3    H137229   0.541   6.690   5.655 -1.1458  1.2443 -0.9500
 5246TIP3    H237230   0.586   6.669   5.512  1.3206 -0.4188  0.0310
 5247TIP3   OH237231   2.587   0.051  12.166 -0.1164  0.1209 -0.4650
 5247TIP3    H137232   2.654   0.010  12.221 -0.9328 -1.1194 -0.3951
 5247TIP3    H237233   2.561   0.129  12.215 -0.0033 -0.3540  0.3528
 5248TIP3   OH237234   4.348   1.964  12.779  0.1714 -0.0001  0.4367
 5248TIP3    H137235   4.321   1.989  12.691 -0.7045  3.2406  1.5803
 5248TIP3    H237236   4.321   2.037  12.835 -0.4838 -2.5575  3.6192
 5249TIP3   OH237237   2.079   3.454  14.346 -0.5324 -1.1826 -0.3203
 5249TIP3    H137238   2.107   3.368  14.317  1.2829 -0.6554 -0.1834
 5249TIP3    H237239   2.147   3.482  14.407 -1.6785 -0.1267  0.4887
 5250TIP3   OH237240   6.229   2.186   5.481 -0.3538  0.5512  0.2272
 5250TIP3    H137241   6.232   2.253   5.413 -0.1111  0.6274  0.3102
 5250TIP3    H237242   6.199   2.108   5.436 -1.2957  0.8859  0.2723
 5251TIP3   OH237243   0.240   4.738   1.551  0.3021  0.0328  0.2084
 5251TIP3    H137244   0.226   4.650   1.587  1.6093 -0.6674 -0.9118
 5251TIP3    H237245   0.192   4.796   1.609  0.7381 -1.2610  1.9015
 5252TIP3   OH237246   2.942   2.505  13.610 -0.1711 -0.2941 -0.4941
 5252TIP3    H137247   2.966   2.486  13.701 -0.1875 -0.0289 -0.4327
 5252TIP3    H237248   3.009   2.462  13.558  0.5001  0.5187 -0.3207
 5253TIP3   OH237249   6.789   6.748  13.146  0.1930  0.2419  0.4266
 5253TIP3    H137250   6.716   6.810  13.137 -0.1322  0.3056  3.2640
 5253TIP3    H237251   6.767   6.697  13.223  1.3483 -2.2551 -0.8467
 5254TIP3   OH237252   1.892   6.396  11.237 -0.2300  0.5603 -0.0108
 5254TIP3    H137253   1.926   6.310  11.215  1.7764  0.4532  3.1070
 5254TIP3    H237254   1.965   6.456  11.219  0.0731  0.9352  2.2566
 5255TIP3   OH237255   1.681   4.230   4.142  0.0127  0.1698  0.6173
 5255TIP3    H137256   1.587   4.233   4.122 -0.0218  2.0370  0.9901
 5255TIP3    H237257   1.701   4.317   4.175  1.6546 -0.5746  1.6363
 5256TIP3   OH237258   4.182   4.270   4.954 -0.0800 -0.2718 -0.0123
 5256TIP3    H137259   4.213   4.357   4.929 -1.3194 -0.0488 -0.7777
 5256TIP3    H237260   4.088   4.280   4.965 -0.0200 -1.1504  1.4901
 5257TIP3   OH237261   1.035   5.204   3.671  0.0346 -0.0181 -0.4101
 5257TIP3    H137262   1.066   5.211   3.581  2.4386 -3.2848  0.0800
 5257TIP3    H237263   1.114   5.209   3.725 -0.8792 -2.2514  1.2296
 5258TIP3   OH237264   4.597   1.288  15.367 -0.2529  0.0807  0.0855
 5258TIP3    H137265   4.665   1.354  15.383 -1.8701  1.6608  0.6088
 5258TIP3    H237266   4.532   1.303  15.435 -1.6592 -0.6810 -1.0538
 5259TIP3   OH237267   4.698   6.578   1.053  0.3219  0.4440 -0.2709
 5259TIP3    H137268   4.706   6.555   0.960 -0.6132  0.2391 -0.3035
 5259TIP3    H237269   4.782   6.620   1.074  0.0054  1.8057 -1.5883
 5260TIP3   OH237270   1.681   6.177   3.214 -0.2376 -0.5522  0.4385
 5260TIP3    H137271   1.718   6.263   3.194 -1.6477 -0.1605 -0.5672
 5260TIP3    H237272   1.744   6.114   3.179  0.2491  0.0822  0.1753
 5261TIP3   OH237273   4.497   4.674  15.231 -0.0055  0.9943  0.0352
 5261TIP3    H137274   4.481   4.595  15.178 -0.6055  0.4043  1.0833
 5261TIP3    H237275   4.424   4.676  15.293  0.9333  1.4274  1.1426
 5262TIP3   OH237276   4.732   4.925  13.988  0.0077  0.1124 -0.0360
 5262TIP3    H137277   4.688   4.911  13.905 -1.2071  0.2186  0.5860
 5262TIP3    H237278   4.707   4.851  14.043  0.1701  0.4487  0.5037
 5263TIP3   OH237279   0.805   4.577   1.554 -0.2504 -0.1221 -0.0154
 5263TIP3    H137280   0.894   4.542   1.562 -0.3441 -0.0388  1.7257
 5263TIP3    H237281   0.803   4.621   1.469  0.2603 -3.1818 -1.6546
 5264TIP3   OH237282   3.278   3.037   5.646  0.7067 -0.5371  0.2347
 5264TIP3    H137283   3.282   2.971   5.577 -1.8581 -2.4383  1.8138
 5264TIP3    H237284   3.197   3.018   5.693  1.9620  1.2232  3.2618
 5265TIP3   OH237285   1.632   5.339  11.479  0.5357 -0.5649  0.0867
 5265TIP3    H137286   1.616   5.364  11.388  0.0821  0.2793  0.3959
 5265TIP3    H237287   1.564   5.275  11.499  1.0735 -1.2974 -0.3837
 5266TIP3   OH237288   3.038   1.128  16.056  0.3165 -0.9295 -0.6541
 5266TIP3    H137289   3.131   1.136  16.076  0.7647 -1.9336 -2.2093
 5266TIP3    H237290   2.996   1.122  16.142  1.2733  3.1522  0.1790
 5267TIP3   OH237291   2.524   5.750  15.081  0.0919  0.2280  0.3400
 5267TIP3    H137292   2.566   5.794  15.007  0.4825  0.7542  0.8733
 5267TIP3    H237293   2.439   5.722  15.046  0.0684  0.9109 -0.1731
 5268TIP3   OH237294   3.673   0.371   4.507 -0.5050 -0.3178 -0.4644
 5268TIP3    H137295   3.714   0.310   4.445  1.9526  1.1736 -0.3574
 5268TIP3    H237296   3.611   0.420   4.454 -2.3972 -2.7188 -0.5954
 5269TIP3   OH237297   4.383   4.855  12.398  0.7237  0.3390  0.0258
 5269TIP3    H137298   4.405   4.804  12.320 -0.3609 -0.6896  0.3908
 5269TIP3    H237299   4.454   4.836  12.459  0.8288  0.0174 -0.1928
 5270TIP3   OH237300   5.828   2.680  15.899 -0.2965 -0.0352  0.2153
 5270TIP3    H137301   5.826   2.657  15.806 -0.5372 -1.1811  0.4906
 5270TIP3    H237302   5.896   2.624  15.936 -0.7413 -0.1511  0.8694
 5271TIP3   OH237303   4.897   4.579  11.530 -0.9653  0.3125  0.2633
 5271TIP3    H137304   4.928   4.614  11.614  2.9062 -2.4588  0.1281
 5271TIP3    H237305   4.889   4.655  11.473  1.2244  1.6899  1.7300
 5272TIP3   OH237306   1.523   4.304   5.775  0.1551 -0.1396 -0.6677
 5272TIP3    H137307   1.485   4.300   5.862  0.4916 -1.0428 -0.5498
 5272TIP3    H237308   1.459   4.353   5.722 -1.1087 -1.5154 -0.4490
 5273TIP3   OH237309   0.577   1.503   3.623 -0.3402  0.1967  0.5441
 5273TIP3    H137310   0.595   1.597   3.611 -1.2355  0.2091 -0.8184
 5273TIP3    H237311   0.502   1.486   3.566  2.0385 -2.1445 -1.9666
 5274TIP3   OH237312   1.892   6.449   1.208 -0.3091 -0.1505  0.6865
 5274TIP3    H137313   1.963   6.513   1.214 -0.1701 -0.2227 -0.2162
 5274TIP3    H237314   1.920   6.387   1.141 -2.4404  1.3768 -1.7061
 5275TIP3   OH237315   1.923   0.398   4.022  0.0160  0.4131  0.0851
 5275TIP3    H137316   2.004   0.366   4.061  1.4369  2.2910 -1.2635
 5275TIP3    H237317   1.903   0.478   4.070 -1.5618 -0.5306  1.0334
 5276TIP3   OH237318   3.859   0.647  11.531 -0.6352  0.2187 -0.2328
 5276TIP3    H137319   3.804   0.672  11.605 -1.6512 -0.3909 -0.7728
 5276TIP3    H237320   3.892   0.561  11.553 -0.5625  0.2351 -0.2783
 5277TIP3   OH237321   5.497   4.683   4.605 -0.0279 -0.3668  0.1381
 5277TIP3    H137322   5.496   4.662   4.512  1.7185 -1.7988  0.4106
 5277TIP3    H237323   5.436   4.620   4.645  0.1701 -0.5691  0.1205
 5278TIP3   OH237324   3.060   4.080  14.798 -0.9912  0.3812 -0.3223
 5278TIP3    H137325   3.065   4.130  14.879 -0.1728 -2.0426  1.1687
 5278TIP3    H237326   2.966   4.076  14.778 -1.2482  0.4769  0.8310
 5279TIP3   OH237327   0.925   5.726  15.090 -0.2308 -0.8049 -0.2629
 5279TIP3    H137328   0.833   5.701  15.101 -0.0944 -1.2147 -0.0307
 5279TIP3    H237329   0.922   5.805  15.036 -0.7703 -0.2385  0.5863
 5280TIP3   OH237330   3.523   2.958  15.491  0.1758  0.1156  0.2050
 5280TIP3    H137331   3.465   2.887  15.518  0.4848 -0.0028  0.5636
 5280TIP3    H237332   3.579   2.974  15.568  1.0031 -0.1651 -0.3281
 5281TIP3   OH237333   1.630   5.958   2.795  0.0424 -0.0267  0.0362
 5281TIP3    H137334   1.649   5.914   2.877  2.1040 -1.1474 -0.9828
 5281TIP3    H237335   1.665   6.047   2.807 -0.4882  0.0981  0.6776
 5282TIP3   OH237336   3.791   4.644  17.101  0.0370 -0.3512 -0.4479
 5282TIP3    H137337   3.802   4.693  17.183 -1.7718  1.0085 -0.9751
 5282TIP3    H237338   3.737   4.569  17.125 -0.5046  0.0541 -0.3924
 5283TIP3   OH237339   1.167   6.319  17.061 -0.5491  0.3349 -0.4450
 5283TIP3    H137340   1.131   6.251  17.118 -1.5542  0.3854 -0.9889
 5283TIP3    H237341   1.230   6.365  17.115  0.2698 -1.1396 -0.1194
 5284TIP3   OH237342   2.283   1.466   5.383 -0.0992  0.2473 -0.3426
 5284TIP3    H137343   2.197   1.470   5.425 -0.2270 -0.1152 -0.5564
 5284TIP3    H237344   2.344   1.504   5.446 -0.1384 -1.1724  0.5646
 5285TIP3   OH237345   2.257   4.348   2.724  0.0985 -0.3171  0.3455
 5285TIP3    H137346   2.266   4.324   2.816 -1.2089 -1.5619  0.1758
 5285TIP3    H237347   2.181   4.298   2.694  1.0597 -0.6408 -1.6380
 5286TIP3   OH237348   0.012   2.087   3.733 -0.6681 -0.3091  0.4716
 5286TIP3    H137349  -0.022   2.077   3.822 -1.2707 -0.9535  0.1704
 5286TIP3    H237350  -0.025   2.014   3.684 -0.9670  0.4835 -0.5049
 5287TIP3   OH237351   6.229   6.393   2.497  0.1145 -0.0373  0.3899
 5287TIP3    H137352   6.251   6.302   2.476 -2.0671 -0.8061  1.2774
 5287TIP3    H237353   6.293   6.419   2.562  1.4184 -0.5722 -0.6513
 5288TIP3   OH237354   5.684   6.007   4.885 -0.4016 -0.1054  0.8266
 5288TIP3    H137355   5.731   5.962   4.816  0.6137 -1.1229  2.1634
 5288TIP3    H237356   5.743   6.077   4.913 -0.6182  0.0256  0.9639
 5289TIP3   OH237357   6.731   5.392   1.036 -0.0750 -0.2104  0.4073
 5289TIP3    H137358   6.726   5.469   0.980  0.7613 -1.1518 -0.9710
 5289TIP3    H237359   6.815   5.352   1.016 -0.4250 -1.4038  1.2372
 5290TIP3   OH237360   5.056   4.635  12.472 -0.4669 -0.1083 -0.0797
 5290TIP3    H137361   5.057   4.548  12.513 -1.7486 -0.9038 -1.6208
 5290TIP3    H237362   5.055   4.696  12.545 -1.6407 -1.4507  1.0706
 5291TIP3   OH237363   6.717   4.210  13.379  0.5690 -0.0427 -0.3132
 5291TIP3    H137364   6.756   4.142  13.324  1.5717  1.0719 -1.0047
 5291TIP3    H237365   6.704   4.284  13.320  0.7157  0.8189  0.7221
 5292TIP3   OH237366   1.438   1.123   1.502 -0.0450  0.2134 -0.2123
 5292TIP3    H137367   1.344   1.122   1.480  0.3196 -0.6794 -1.7821
 5292TIP3    H237368   1.479   1.173   1.431  0.5983  1.2627  0.8687
 5293TIP3   OH237369   0.263   1.603  11.787  0.3635  0.1689 -0.3021
 5293TIP3    H137370   0.273   1.558  11.704  0.5745  0.0230 -0.1990
 5293TIP3    H237371   0.353   1.610  11.821  0.3026  0.4223 -0.1916
 5294TIP3   OH237372   4.862   0.585   2.110 -0.1540  0.3565 -0.6100
 5294TIP3    H137373   4.883   0.562   2.200 -2.5649 -0.4911 -0.2284
 5294TIP3    H237374   4.896   0.512   2.058  2.1306  1.3270 -0.5057
 5295TIP3   OH237375   4.837   3.962   4.943 -0.6622  0.4828 -0.0429
 5295TIP3    H137376   4.861   4.049   4.910  1.0808  0.7922  1.9439
 5295TIP3    H237377   4.804   3.979   5.031 -2.5302 -0.6474 -0.4964
 5296TIP3   OH237378   2.252   3.609   0.691 -0.2329 -0.3552 -0.1290
 5296TIP3    H137379   2.171   3.569   0.723 -0.6466 -0.3499 -1.1484
 5296TIP3    H237380   2.242   3.610   0.596  1.2051 -0.8495 -0.2941
 5297TIP3   OH237381   1.066   3.283  16.329  0.6464 -0.1507  0.5991
 5297TIP3    H137382   0.988   3.231  16.311  0.6653 -0.3875  1.1839
 5297TIP3    H237383   1.125   3.263  16.257 -0.0102  0.3946 -0.0966
 5298TIP3   OH237384   2.558   2.225   4.964  0.2719 -0.4220  0.1770
 5298TIP3    H137385   2.555   2.179   4.880  0.4740 -0.7365  0.3386
 5298TIP3    H237386   2.510   2.306   4.949  2.4048  0.6818 -0.9524
 5299TIP3   OH237387   6.802   3.266   1.097  0.2136 -0.0935 -0.6724
 5299TIP3    H137388   6.896   3.275   1.109  0.1992 -1.5505  0.6278
 5299TIP3    H237389   6.790   3.258   1.002  1.3602  0.4253 -0.8604
 5300TIP3   OH237390   5.054   5.407   4.565 -0.5682 -0.4016 -0.0363
 5300TIP3    H137391   5.116   5.340   4.592  0.3051  1.5718  3.1231
 5300TIP3    H237392   5.098   5.454   4.495  1.8939  1.4177  2.6339
 5301TIP3   OH237393   0.967   4.723   1.999  0.1961 -0.3008 -0.0805
 5301TIP3    H137394   0.917   4.657   1.951  0.2571 -0.8366  0.5855
 5301TIP3    H237395   1.009   4.775   1.931 -1.5902  0.4251 -0.6582
 5302TIP3   OH237396   4.907   5.860   1.988  0.4175 -0.6675  0.4390
 5302TIP3    H137397   4.814   5.847   2.006  0.1894  0.3690  0.0531
 5302TIP3    H237398   4.911   5.883   1.895  0.9333  0.4239  0.7188
 5303TIP3   OH237399   4.172   3.689  15.216  0.4690  0.0289 -0.2909
 5303TIP3    H137400   4.120   3.609  15.218 -0.2006  0.4775  0.4131
 5303TIP3    H237401   4.119   3.754  15.262  2.5221 -0.0176  2.2605
 5304TIP3   OH237402   4.493   4.246   2.866  0.4022 -0.2805  0.1685
 5304TIP3    H137403   4.427   4.314   2.851 -1.1882 -1.4563  1.5626
 5304TIP3    H237404   4.449   4.165   2.841  1.2253 -1.1192  1.4183
 5305TIP3   OH237405   3.647   2.933  14.021 -0.1918 -0.3956  0.2364
 5305TIP3    H137406   3.578   2.905  13.961 -0.7640  0.5881  0.4102
 5305TIP3    H237407   3.599   2.973  14.094  0.6055  1.9434 -0.4813
 5306TIP3   OH237408   4.683   1.714  12.066 -0.2116 -0.1785  0.2614
 5306TIP3    H137409   4.621   1.720  12.138 -0.3944 -0.5979  0.1379
 5306TIP3    H237410   4.652   1.640  12.013  0.3835 -0.3833  0.1961
 5307TIP3   OH237411   4.910   1.525  14.517  0.2222 -0.1888 -0.1329
 5307TIP3    H137412   4.952   1.493  14.597 -1.0216 -0.5313  0.4033
 5307TIP3    H237413   4.896   1.618  14.533  0.4862 -0.1408 -0.1813
 5308TIP3   OH237414   1.006   4.021   2.371 -0.3844  0.5315  0.1043
 5308TIP3    H137415   0.971   3.932   2.359  0.9238 -0.1925  1.4121
 5308TIP3    H237416   1.100   4.007   2.384  0.2310  2.3284 -2.1277
 5309TIP3   OH237417   3.130   3.170   0.028  0.5222  0.0011  0.5820
 5309TIP3    H137418   3.060   3.184   0.092  0.6636  0.3216  0.6708
 5309TIP3    H237419   3.084   3.154  -0.055  0.3247  2.7637  0.0992
 5310TIP3   OH237420   1.654   6.745   2.506 -0.3437 -0.1766 -0.5322
 5310TIP3    H137421   1.605   6.687   2.447 -0.0555 -1.4782  0.4820
 5310TIP3    H237422   1.625   6.720   2.594  1.6703 -0.5624  0.0505
 5311TIP3   OH237423   6.683   2.581   1.511 -0.0772  0.1024  0.1308
 5311TIP3    H137424   6.657   2.650   1.573  0.5859 -0.6029  1.2054
 5311TIP3    H237425   6.746   2.624   1.453 -0.8641  0.8276 -0.2104
 5312TIP3   OH237426   5.033   6.322   2.362  0.0577 -0.7745 -0.5474
 5312TIP3    H137427   4.956   6.299   2.311  0.3938 -0.5526 -1.1702
 5312TIP3    H237428   5.006   6.312   2.453 -1.2428  1.0229 -0.7214
 5313TIP3   OH237429   0.800   0.975  15.197  0.0399 -0.0448  0.1461
 5313TIP3    H137430   0.877   0.962  15.251  0.7734  2.8720 -0.1411
 5313TIP3    H237431   0.828   1.034  15.127 -2.3803  0.9646 -0.0525
 5314TIP3   OH237432   1.485   0.195   1.165 -0.4995 -0.6701  0.0274
 5314TIP3    H137433   1.443   0.240   1.238  2.3503  0.4397  1.0454
 5314TIP3    H237434   1.481   0.102   1.190 -2.1946 -0.5979  0.1336
 5315TIP3   OH237435   0.848   3.096  11.759 -0.2313 -0.0864 -0.3605
 5315TIP3    H137436   0.769   3.114  11.709 -0.8970  0.6269  0.9162
 5315TIP3    H237437   0.820   3.031  11.825  0.7719 -1.4795 -1.2830
 5316TIP3   OH237438   3.145   4.979  11.616  0.3219  0.5761  0.5545
 5316TIP3    H137439   3.233   4.974  11.653  0.3406  0.6410  0.5211
 5316TIP3    H237440   3.086   4.974  11.691  0.3889  1.8689  0.7092
 5317TIP3   OH237441   0.589   2.614  11.411 -0.1122 -0.0486 -0.7164
 5317TIP3    H137442   0.605   2.639  11.320  0.9434 -0.5275 -0.6741
 5317TIP3    H237443   0.504   2.571  11.409  0.2429 -0.7333 -1.6191
 5318TIP3   OH237444   4.575   3.047  14.035  0.1443 -0.3301 -0.0049
 5318TIP3    H137445   4.604   3.066  13.946 -0.4194  1.1859  0.1304
 5318TIP3    H237446   4.656   3.025  14.081  0.5877  0.0186 -0.6037
 5319TIP3   OH237447   5.581   2.117   1.357  0.1752 -0.1292 -0.2275
 5319TIP3    H137448   5.629   2.069   1.291  1.0208  0.5975 -0.1479
 5319TIP3    H237449   5.558   2.051   1.423 -1.4429 -1.0236 -1.6506
 5320TIP3   OH237450   6.024   1.057   3.409 -0.5000 -0.5711  0.5717
 5320TIP3    H137451   6.077   0.978   3.404 -0.6628 -0.7232  1.2679
 5320TIP3    H237452   6.046   1.097   3.493 -0.7184 -0.0937  0.4057
 5321TIP3   OH237453   2.879   0.692   1.675  0.2150  0.2654 -0.1306
 5321TIP3    H137454   2.886   0.675   1.769 -0.0809 -0.7402 -0.2794
 5321TIP3    H237455   2.928   0.621   1.634  0.8390  1.0340 -0.7208
 5322TIP3   OH237456   3.363   4.240  12.945  0.0514 -0.4940 -0.2460
 5322TIP3    H137457   3.446   4.194  12.954 -0.5664 -1.7346 -0.7689
 5322TIP3    H237458   3.364   4.276  12.856  0.5516  0.5605  0.1771
 5323TIP3   OH237459   4.727   1.066  15.240 -0.3278  0.0824 -0.3428
 5323TIP3    H137460   4.789   1.041  15.172  2.0194  0.7196  1.5072
 5323TIP3    H237461   4.717   1.161  15.230  1.5045  0.4754  1.3758
 5324TIP3   OH237462   2.228   0.216  14.412 -0.0923 -0.3574  0.0497
 5324TIP3    H137463   2.144   0.255  14.390 -0.6462 -2.0544 -0.9749
 5324TIP3    H237464   2.210   0.163  14.490  0.6808  1.4965  1.5147
 5325TIP3   OH237465   6.787   2.324  12.273 -0.1369  0.5527 -0.1503
 5325TIP3    H137466   6.810   2.243  12.319 -4.3768 -1.0978 -0.6705
 5325TIP3    H237467   6.702   2.305  12.234  0.4715  4.0672 -3.4283
 5326TIP3   OH237468   5.891   3.843  14.189 -0.5279  0.3857 -0.2944
 5326TIP3    H137469   5.897   3.749  14.206 -0.4040  0.2019 -1.2856
 5326TIP3    H237470   5.927   3.853  14.100  0.4144  1.4949  0.1964
 5327TIP3   OH237471   4.182   6.404  11.138  0.4727  0.1964 -0.0578
 5327TIP3    H137472   4.130   6.484  11.140 -1.4279 -1.0057  0.1809
 5327TIP3    H237473   4.145   6.354  11.065  1.7407 -0.4115 -0.3002
 5328TIP3   OH237474   6.540   4.682  13.038  0.1064 -0.1285  0.2738
 5328TIP3    H137475   6.590   4.644  12.966 -3.2692 -1.0656 -1.6860
 5328TIP3    H237476   6.494   4.756  12.999 -2.5683 -1.2648  1.1184
 5329TIP3   OH237477   4.287   0.276   5.310  0.6429  0.6231 -0.1856
 5329TIP3    H137478   4.318   0.189   5.337  0.7950  0.4702 -0.8522
 5329TIP3    H237479   4.235   0.260   5.231  0.1075  1.0597  0.0750
 5330TIP3   OH237480   3.227   4.072   5.880  0.1638 -0.1917 -0.2997
 5330TIP3    H137481   3.187   3.985   5.882  1.2528 -0.7224 -0.9923
 5330TIP3    H237482   3.159   4.129   5.845 -0.2000 -0.9755 -0.8908
 5331TIP3   OH237483   4.421   1.698  11.479 -0.1775  0.0285 -0.4522
 5331TIP3    H137484   4.477   1.622  11.463  0.5614  0.2668  0.8634
 5331TIP3    H237485   4.483   1.771  11.488 -0.6035  0.1213  2.0401
 5332TIP3   OH237486   2.867   2.140   4.319 -0.1750 -0.0354  0.2101
 5332TIP3    H137487   2.918   2.154   4.240 -0.5414  0.2675  0.0253
 5332TIP3    H237488   2.926   2.093   4.378  0.8108  1.5568  0.5249
 5333TIP3   OH237489   0.881   5.260  12.375  0.8653 -0.5083  0.2793
 5333TIP3    H137490   0.864   5.348  12.409 -1.9883 -1.0034  0.2913
 5333TIP3    H237491   0.873   5.203  12.452  1.5792 -0.9128  0.0622
 5334TIP3   OH237492   4.454   0.766   5.444  0.5959 -0.1531  0.2200
 5334TIP3    H137493   4.461   0.686   5.495 -1.7781  0.3721  1.4481
 5334TIP3    H237494   4.360   0.779   5.433  0.9389  2.5135  0.0974
 5335TIP3   OH237495   6.484   3.143  13.831 -0.0199 -0.0453  0.6550
 5335TIP3    H137496   6.400   3.137  13.786  0.6018 -1.6103 -0.3627
 5335TIP3    H237497   6.518   3.054  13.831  0.6447  0.1732  3.0466
 5336TIP3   OH237498   6.573   6.483  14.071  0.1702  0.1818 -0.0130
 5336TIP3    H137499   6.547   6.548  14.006 -1.0656  0.3739  0.6748
 5336TIP3    H237500   6.503   6.418  14.070  1.1572 -0.8999 -0.3427
 5337TIP3   OH237501   2.979   1.167  15.555 -0.3755 -0.2081  0.1523
 5337TIP3    H137502   3.043   1.110  15.596  0.7926  0.1028 -1.2164
 5337TIP3    H237503   2.896   1.120  15.564  0.1694 -1.0113  1.1369
 5338TIP3   OH237504   3.599   1.923   3.254 -0.4700 -0.1795 -0.5117
 5338TIP3    H137505   3.567   1.874   3.330 -0.0199 -0.4204 -0.4774
 5338TIP3    H237506   3.620   1.857   3.189 -3.4899  0.1433 -1.9012
 5339TIP3   OH237507   0.222   2.861  11.867  0.0972 -0.0083  0.0075
 5339TIP3    H137508   0.250   2.774  11.896  1.0048  0.5558  0.8493
 5339TIP3    H237509   0.144   2.845  11.813  0.9367 -1.4533 -0.8151
 5340TIP3   OH237510   3.028   4.477   4.713 -0.4868 -0.0207 -0.2098
 5340TIP3    H137511   3.061   4.512   4.796 -0.1231  1.1904 -0.8403
 5340TIP3    H237512   3.097   4.419   4.682 -0.9013 -0.9704  0.6438
 5341TIP3   OH237513   4.715   4.561  16.919  0.0164  0.1616  0.2154
 5341TIP3    H137514   4.761   4.508  16.853  0.9763  0.0887  0.9307
 5341TIP3    H237515   4.677   4.634  16.870 -0.5269 -0.6852 -0.6407
 5342TIP3   OH237516   4.819   6.277   5.071  0.2073 -0.2787 -0.3142
 5342TIP3    H137517   4.730   6.312   5.071  0.0388 -0.6769  0.6431
 5342TIP3    H237518   4.860   6.312   4.992 -0.1329  1.5973  0.3316
 5343TIP3   OH237519   4.883   4.475   5.772  0.1548 -0.4216  0.2883
 5343TIP3    H137520   4.919   4.510   5.853 -2.4709 -1.1012  1.7665
 5343TIP3    H237521   4.927   4.526   5.703  0.9309  1.5242  2.1666
 5344TIP3   OH237522   4.624   6.343  15.685 -0.3923  0.5809  0.2431
 5344TIP3    H137523   4.699   6.396  15.712 -0.5102  0.8807 -0.0129
 5344TIP3    H237524   4.663   6.271  15.634 -0.3713  1.4401 -0.9830
 5345TIP3   OH237525   5.846   0.738  13.708  0.3152  0.3835 -0.7207
 5345TIP3    H137526   5.774   0.676  13.718  0.1223  0.3798 -2.0779
 5345TIP3    H237527   5.809   0.811  13.659  0.1698  2.2420  2.0735
 5346TIP3   OH237528   1.530   3.241  15.381 -0.0528  0.4649 -0.1162
 5346TIP3    H137529   1.511   3.174  15.315  2.1582  1.0382 -1.3642
 5346TIP3    H237530   1.540   3.192  15.462  0.3082 -0.5749 -0.7808
 5347TIP3   OH237531   4.861   6.455  13.708  0.4748  0.3128 -0.3329
 5347TIP3    H137532   4.877   6.481  13.799  0.3758  1.0967 -0.5331
 5347TIP3    H237533   4.802   6.380  13.714 -0.6319  1.2056  0.2131
 5348TIP3   OH237534   0.842   6.276   3.088 -0.6278 -0.0306 -0.8041
 5348TIP3    H137535   0.859   6.185   3.063  0.7427  0.2200 -0.8475
 5348TIP3    H237536   0.776   6.306   3.025 -1.9633 -1.3262 -0.0680
 5349TIP3   OH237537   0.827   1.970   4.112 -0.6822 -0.5734 -0.6982
 5349TIP3    H137538   0.910   1.976   4.160 -0.5770 -2.7822 -0.5688
 5349TIP3    H237539   0.848   1.920   4.033 -2.2036 -2.5043  0.0875
 5350TIP3   OH237540   6.583   5.293  14.523  0.1950  0.0931  0.2704
 5350TIP3    H137541   6.649   5.355  14.555 -0.1764  1.7463 -2.0572
 5350TIP3    H237542   6.633   5.230  14.471  0.6340 -1.9319  2.9709
 5351TIP3   OH237543   2.468   5.700   1.233  0.1813  0.5375  0.1671
 5351TIP3    H137544   2.429   5.770   1.285 -1.0263  0.3929 -0.5180
 5351TIP3    H237545   2.556   5.730   1.214 -0.4427  2.0446 -0.4186
 5352TIP3   OH237546   2.506   2.584   4.850  0.1125  0.5345 -0.1371
 5352TIP3    H137547   2.504   2.622   4.937  2.4671  2.2192 -0.7813
 5352TIP3    H237548   2.416   2.593   4.817 -0.1154  2.5627  0.9886
 5353TIP3   OH237549   1.080   5.696   0.196 -0.5412  0.3721  0.0253
 5353TIP3    H137550   1.023   5.619   0.195  1.2076 -0.9708 -2.5929
 5353TIP3    H237551   1.075   5.731   0.107  2.0918  0.6945 -0.0222
 5354TIP3   OH237552   0.552   5.178   2.351 -0.6991  0.2562  0.4741
 5354TIP3    H137553   0.612   5.183   2.276 -1.0650  0.1996  0.1757
 5354TIP3    H237554   0.600   5.128   2.417 -0.1932  0.7037  0.4483
 5355TIP3   OH237555   5.597   5.648  15.103  0.1991  0.3483 -0.0619
 5355TIP3    H137556   5.641   5.730  15.123 -1.3422  1.5911 -1.6175
 5355TIP3    H237557   5.658   5.602  15.045  1.9860 -0.5874  2.4677
 5356TIP3   OH237558   1.568   2.395   2.386 -0.1273  0.2315  0.1188
 5356TIP3    H137559   1.473   2.394   2.380 -0.1173 -0.3470  0.0983
 5356TIP3    H237560   1.598   2.365   2.300  0.0720 -0.4844  0.4402
 5357TIP3   OH237561   2.183   2.116  13.762 -0.8450  0.6739 -0.8672
 5357TIP3    H137562   2.133   2.179  13.814 -1.8408 -0.1237 -0.8442
 5357TIP3    H237563   2.205   2.163  13.682 -2.9423  0.5761 -1.5340
 5358TIP3   OH237564   2.959   0.766  15.194 -0.0877  0.4504  0.0168
 5358TIP3    H137565   3.046   0.741  15.162 -0.5433 -0.8397 -0.2278
 5358TIP3    H237566   2.903   0.691  15.174 -1.2653  1.2622  0.1882
 5359TIP3   OH237567   0.696   5.624   0.017 -0.2660  0.0968  0.0068
 5359TIP3    H137568   0.701   5.708  -0.030  1.1256  0.5428  0.9217
 5359TIP3    H237569   0.608   5.592  -0.002 -1.0804  2.1078  0.2232
 5360TIP3   OH237570   5.068   2.298   1.607  0.2643  0.1998 -0.1886
 5360TIP3    H137571   5.053   2.390   1.627 -2.6116 -0.1020 -0.6638
 5360TIP3    H237572   5.065   2.293   1.511 -1.1127 -0.5556 -0.1332
 5361TIP3   OH237573   2.101   3.193   3.896  0.4539  0.6568  0.1504
 5361TIP3    H137574   2.114   3.263   3.832  1.5473  2.2109  2.0262
 5361TIP3    H237575   2.123   3.113   3.849 -1.7300  1.4474 -2.3207
 5362TIP3   OH237576   3.202   3.839  15.856 -0.5132 -0.6920  0.5683
 5362TIP3    H137577   3.149   3.789  15.918  0.2899  0.2483  2.0415
 5362TIP3    H237578   3.172   3.929  15.867 -0.4768 -0.5423 -0.5443
 5363TIP3   OH237579   3.032   3.991   2.567  0.2348  0.5226  0.0272
 5363TIP3    H137580   3.127   3.980   2.575  0.1489  0.1545  0.5483
 5363TIP3    H237581   3.020   4.032   2.481  0.8732  0.6800  0.0104
 5364TIP3   OH237582   1.981   4.407   4.843 -0.1521  0.4614  0.2394
 5364TIP3    H137583   2.072   4.380   4.859 -0.2630 -1.0198 -1.4098
 5364TIP3    H237584   1.941   4.409   4.929  1.4189  1.0231  0.9811
 5365TIP3   OH237585   3.869   0.578   3.084  0.2399  0.0163 -0.2801
 5365TIP3    H137586   3.915   0.512   3.137  0.4204  0.0192 -0.4317
 5365TIP3    H237587   3.825   0.633   3.148  1.9409  1.1274 -0.0320
 5366TIP3   OH237588   3.361   4.545   2.573  0.3046 -0.3453  0.1342
 5366TIP3    H137589   3.293   4.539   2.506  1.9060  1.1460 -1.6901
 5366TIP3    H237590   3.400   4.458   2.576 -0.5026 -0.7156 -0.0906
 5367TIP3   OH237591   4.155   2.854   1.823 -0.2410 -0.0443 -0.1372
 5367TIP3    H137592   4.225   2.830   1.883  0.2206 -2.4039 -1.5608
 5367TIP3    H237593   4.088   2.786   1.835 -1.6226  1.3134  0.0928
 5368TIP3   OH237594   6.364   5.303   1.749  0.1663  0.6765 -0.6074
 5368TIP3    H137595   6.368   5.233   1.815  0.2500  1.9810  0.7764
 5368TIP3    H237596   6.350   5.383   1.799 -2.1503  1.4118 -2.3319
 5369TIP3   OH237597   1.556   6.505  15.746 -0.1835  0.2545 -0.1075
 5369TIP3    H137598   1.553   6.421  15.792 -0.6572  0.4582  0.2378
 5369TIP3    H237599   1.641   6.505  15.701 -0.4259 -0.6516 -0.5694
 5370TIP3   OH237600   1.833   3.478   2.144 -0.3863  0.2432  0.4059
 5370TIP3    H137601   1.834   3.419   2.069 -2.8378 -0.9846  1.2916
 5370TIP3    H237602   1.784   3.554   2.114  1.1668  1.0613 -0.1351
 5371TIP3   OH237603   2.363   4.190   0.960 -0.5818 -0.0890  0.1650
 5371TIP3    H137604   2.302   4.254   0.923 -0.7742 -0.2941  0.1203
 5371TIP3    H237605   2.347   4.110   0.909 -1.6098 -0.6859  1.3866
 5372TIP3   OH237606   1.004   3.651   4.651 -0.3756  0.2223  0.2340
 5372TIP3    H137607   1.055   3.637   4.571  0.8493  0.7929  0.8973
 5372TIP3    H237608   1.037   3.586   4.712  0.5185  1.4641  1.1008
 5373TIP3   OH237609   5.392   6.044  16.063  0.1275 -0.7423  0.3209
 5373TIP3    H137610   5.361   5.971  16.008  3.6537  0.5441 -3.6450
 5373TIP3    H237611   5.474   6.013  16.100  0.3995  0.3125  0.6196
 5374TIP3   OH237612   5.013   2.336  15.106  0.2537  0.2130  0.0908
 5374TIP3    H137613   5.002   2.422  15.147 -1.6193 -0.0220  0.1182
 5374TIP3    H237614   4.924   2.303  15.096  0.9362 -1.5071 -0.4023
 5375TIP3   OH237615   2.177   2.530   5.503  0.2785  0.0606  0.2624
 5375TIP3    H137616   2.139   2.536   5.591  0.3748  0.7209  0.2593
 5375TIP3    H237617   2.181   2.436   5.486  0.6512 -0.0898  1.1366
 5376TIP3   OH237618   4.493   0.913   1.100 -0.7583  0.4436  0.0178
 5376TIP3    H137619   4.472   0.825   1.069 -2.0856  1.6671 -2.7815
 5376TIP3    H237620   4.582   0.906   1.134 -1.1081 -2.1161  0.4764
 5377TIP3   OH237621   1.380   1.817   3.426 -0.2074 -0.7645  0.4219
 5377TIP3    H137622   1.320   1.742   3.421 -0.2289 -0.7024 -0.2138
 5377TIP3    H237623   1.334   1.888   3.381  1.2910 -1.3485 -2.1143
 5378TIP3   OH237624   3.865   4.852   4.735 -0.4550 -0.7131  0.0575
 5378TIP3    H137625   3.847   4.858   4.829 -0.2936  1.1119 -0.0096
 5378TIP3    H237626   3.937   4.789   4.729 -0.4383 -0.8119  1.1707
 5379TIP3   OH237627   1.743   3.893  13.011  0.0367 -0.8053 -0.2261
 5379TIP3    H137628   1.696   3.814  12.985  1.3912 -2.0604  1.0316
 5379TIP3    H237629   1.771   3.875  13.101  1.1058  0.7587 -0.2394
 5380TIP3   OH237630   0.629   5.079  13.114 -0.5099 -0.4039  0.1554
 5380TIP3    H137631   0.669   5.146  13.170  1.2551 -2.3490  1.3053
 5380TIP3    H237632   0.654   5.103  13.025 -1.2801  1.3554  0.3943
 5381TIP3   OH237633   3.274   3.614   2.914  0.2667 -0.6014 -0.0585
 5381TIP3    H137634   3.224   3.606   2.833  1.0982 -0.9410 -0.5501
 5381TIP3    H237635   3.272   3.708   2.934  2.0349 -0.1534 -1.7677
 5382TIP3   OH237636   3.701   0.870   5.804 -0.0950 -0.1005 -0.3072
 5382TIP3    H137637   3.687   0.810   5.877 -2.6057  0.0304 -0.6417
 5382TIP3    H237638   3.771   0.927   5.834  0.1735 -1.2134  1.2706
 5383TIP3   OH237639   2.248   6.081  11.264 -0.0267 -0.2216  0.2592
 5383TIP3    H137640   2.205   5.996  11.250  1.3928 -0.8153 -0.6011
 5383TIP3    H237641   2.243   6.095  11.358  0.3891 -1.6302  0.5056
 5384TIP3   OH237642   2.221   5.631  16.254  0.4204 -0.5530 -0.1560
 5384TIP3    H137643   2.285   5.595  16.192 -0.8762 -0.7220 -1.4186
 5384TIP3    H237644   2.221   5.725  16.237  0.9781 -0.4324  0.4731
 5385TIP3   OH237645   0.678   3.096  12.600 -0.6799 -0.2671  0.1777
 5385TIP3    H137646   0.731   3.081  12.678 -2.3547  0.6875  1.5299
 5385TIP3    H237647   0.646   3.186  12.609 -2.5305 -0.8189 -0.5911
 5386TIP3   OH237648   2.745   1.580  11.959  0.0582 -0.0663  0.0653
 5386TIP3    H137649   2.805   1.631  11.906  0.0619  0.6546  0.7571
 5386TIP3    H237650   2.660   1.624  11.948 -0.3042 -0.9479 -0.7348
 5387TIP3   OH237651   4.376   5.597  10.817 -0.1030 -0.0066 -0.1812
 5387TIP3    H137652   4.370   5.691  10.798  1.0095  0.2387  0.6566
 5387TIP3    H237653   4.419   5.593  10.903 -0.4390 -1.2726 -0.0705
 5388TIP3   OH237654   2.300   1.475   0.909 -0.6378  0.3181 -0.0894
 5388TIP3    H137655   2.278   1.486   1.002 -0.4336  1.2384 -0.1372
 5388TIP3    H237656   2.285   1.383   0.891  0.7546 -0.2033  1.2481
 5389TIP3   OH237657   5.394   0.481  15.804  0.3178 -0.2432  0.5881
 5389TIP3    H137658   5.373   0.515  15.717  0.1663 -0.1583  0.6578
 5389TIP3    H237659   5.358   0.393  15.806 -1.1979  0.3749  1.1719
 5390TIP3   OH237660   6.578   3.668  12.216  0.0458  0.0906  0.0787
 5390TIP3    H137661   6.522   3.620  12.277  0.3921 -2.2625 -1.3982
 5390TIP3    H237662   6.632   3.600  12.175  3.0566  2.1605  0.4991
 5391TIP3   OH237663   5.014   0.237  15.656 -0.4522 -0.0077 -0.0421
 5391TIP3    H137664   5.086   0.196  15.704  0.1349  1.5549  0.4517
 5391TIP3    H237665   4.951   0.167  15.643  0.6732 -1.1379  0.4956
 5392TIP3   OH237666   5.740   5.947   6.677 -0.0639 -0.1708  0.0789
 5392TIP3    H137667   5.832   5.972   6.667 -0.2700  1.4466  1.9428
 5392TIP3    H237668   5.697   5.980   6.598  1.0722 -1.6684 -1.2072
 5393TIP3   OH237669   5.787   5.849   3.507  0.0438 -0.2197  0.0329
 5393TIP3    H137670   5.804   5.888   3.593  1.1121  2.3872 -1.3137
 5393TIP3    H237671   5.692   5.855   3.497 -0.1464 -0.9882  1.2263
 5394TIP3   OH237672   1.946   4.606  13.322  0.2933 -0.4272 -0.4407
 5394TIP3    H137673   1.928   4.624  13.415  1.4894 -0.8540 -0.1168
 5394TIP3    H237674   1.867   4.636  13.276  0.3993  1.4243  0.5438
 5395TIP3   OH237675   2.934   3.358  10.594 -0.4040 -0.4433 -0.5731
 5395TIP3    H137676   2.847   3.389  10.571  0.0582  1.3612 -0.0001
 5395TIP3    H237677   2.931   3.263  10.581 -2.3910 -0.3694 -0.6954
 5396TIP3   OH237678   6.813   2.621  16.093 -0.3378 -0.3694  0.5172
 5396TIP3    H137679   6.785   2.708  16.120 -1.2299 -0.7861  0.9316
 5396TIP3    H237680   6.902   2.634  16.059 -0.2518  0.6035  1.1111
 5397TIP3   OH237681   5.355   0.486   0.135 -0.1729 -0.5164  0.3896
 5397TIP3    H137682   5.338   0.523   0.222  0.4688  1.7255 -0.3894
 5397TIP3    H237683   5.269   0.486   0.093 -0.2681 -0.4096  0.5803
 5398TIP3   OH237684   3.631   3.046  11.170 -0.1598  0.3880 -0.1564
 5398TIP3    H137685   3.633   3.063  11.076  2.4656  0.8810 -0.0371
 5398TIP3    H237686   3.585   3.121  11.207  0.1591  0.9476 -0.8922
 5399TIP3   OH237687   4.770   5.998   4.244  0.2090  0.1122 -0.0899
 5399TIP3    H137688   4.865   5.995   4.245  0.2470  1.1165 -0.1685
 5399TIP3    H237689   4.743   5.908   4.230  1.1615 -0.1009 -0.5788
 5400TIP3   OH237690   0.227   0.970  13.912  0.4884  0.0675  0.0724
 5400TIP3    H137691   0.306   0.928  13.946 -0.2237 -0.2516  1.3481
 5400TIP3    H237692   0.165   0.899  13.899 -1.1533  0.7632  3.4345
 5401TIP3   OH237693   1.119   3.784   6.655 -0.0002  0.2495 -0.2475
 5401TIP3    H137694   1.025   3.769   6.655  0.0375  0.0056 -0.0249
 5401TIP3    H237695   1.151   3.735   6.730  0.5889 -1.5047 -1.5987
 5402TIP3   OH237696   5.378   5.473  13.737 -0.0873  0.2596  0.2309
 5402TIP3    H137697   5.347   5.446  13.824 -0.1337  3.5212  1.2870
 5402TIP3    H237698   5.337   5.411  13.677 -3.5758  0.5849  2.1480
 5403TIP3   OH237699   5.159   5.669   3.182 -0.1298 -0.1789 -0.1530
 5403TIP3    H137700   5.148   5.595   3.242 -0.3579  1.2263  1.5689
 5403TIP3    H237701   5.162   5.629   3.095 -0.5926 -2.1789  0.7243
 5404TIP3   OH237702   3.148   3.068  11.315 -0.5087 -0.3017  0.6302
 5404TIP3    H137703   3.090   3.124  11.263  0.4271 -0.7570 -0.9501
 5404TIP3    H237704   3.139   2.982  11.275  0.6520 -0.5374  0.8603
 5405TIP3   OH237705   3.315   6.743  13.401  0.0576  0.1512  0.5296
 5405TIP3    H137706   3.337   6.689  13.476 -0.8663  0.8487  1.3252
 5405TIP3    H237707   3.372   6.820  13.408  2.0965 -1.1533 -1.1687
 5406TIP3   OH237708   5.658   3.247   3.946  0.2415  0.0350 -0.6390
 5406TIP3    H137709   5.749   3.218   3.939  0.6390  0.9272  0.6316
 5406TIP3    H237710   5.661   3.341   3.928 -0.6622 -0.2238 -2.1824
 5407TIP3   OH237711   2.268   0.039  14.674 -0.4361  0.2100 -0.0528
 5407TIP3    H137712   2.198   0.003  14.729  2.2451 -0.6652  2.9561
 5407TIP3    H237713   2.298  -0.036  14.623 -1.4534  0.5011 -1.0794
 5408TIP3   OH237714   3.047   3.534  16.785 -0.2951 -0.2148 -0.2729
 5408TIP3    H137715   3.050   3.607  16.847 -1.5790  0.1221 -0.5939
 5408TIP3    H237716   2.961   3.496  16.797 -0.1065 -0.8879 -1.0213
 5409TIP3   OH237717   4.143   0.773  13.191 -0.0640 -0.5119 -0.0600
 5409TIP3    H137718   4.209   0.843  13.193 -0.0860 -0.5021  0.3715
 5409TIP3    H237719   4.066   0.812  13.234  0.5650 -1.4540  1.9641
 5410TIP3   OH237720   5.799   6.716   4.626 -0.2189  0.2695 -0.0744
 5410TIP3    H137721   5.751   6.798   4.620  1.6859  1.3210 -1.2978
 5410TIP3    H237722   5.885   6.740   4.661  0.6765 -1.0533 -1.2999
 5411TIP3   OH237723   3.043   6.357  12.324  0.7154 -0.3302  0.0376
 5411TIP3    H137724   2.971   6.305  12.289  0.0385 -0.1926  1.1703
 5411TIP3    H237725   3.080   6.303  12.394  0.4704  0.3997  0.7365
 5412TIP3   OH237726   6.777   3.494  10.681  0.1050 -0.5765 -0.2826
 5412TIP3    H137727   6.872   3.507  10.693 -0.1573 -0.8756  2.6553
 5412TIP3    H237728   6.768   3.402  10.655  0.6111 -0.5787 -0.4540
 5413TIP3   OH237729   3.845   5.400   4.757 -0.6872 -0.5972  0.3400
 5413TIP3    H137730   3.871   5.311   4.734  0.0576 -0.1837 -0.4253
 5413TIP3    H237731   3.927   5.445   4.774 -1.1511 -0.5861  2.7445
 5414TIP3   OH237732   3.823   2.430   5.002 -0.2287  0.0648  0.6169
 5414TIP3    H137733   3.905   2.382   5.004 -0.7653 -0.9571 -0.9015
 5414TIP3    H237734   3.757   2.368   5.032 -1.0081 -0.3599 -1.8868
 5415TIP3   OH237735   5.585   4.181   5.024  0.5462 -0.7651  0.4457
 5415TIP3    H137736   5.665   4.197   5.074  0.3769  0.2514  0.3954
 5415TIP3    H237737   5.613   4.185   4.933  0.0942  1.5770  0.3772
 5416TIP3   OH237738   2.797   0.776  12.564 -0.2799  0.1630  0.2778
 5416TIP3    H137739   2.811   0.865  12.596  1.1312 -0.5063  1.5762
 5416TIP3    H237740   2.851   0.771  12.485  1.4522 -0.2364  1.4622
 5417TIP3   OH237741   4.885   4.894   1.089 -0.0145 -0.3413  0.2893
 5417TIP3    H137742   4.861   4.833   1.020  1.5311  0.4284 -0.9556
 5417TIP3    H237743   4.934   4.841   1.152  0.0607 -0.6900 -0.0612
 5418TIP3   OH237744   2.641   5.233  11.516 -0.2418  0.2501 -0.4372
 5418TIP3    H137745   2.691   5.314  11.512 -2.7127  1.9186  0.9718
 5418TIP3    H237746   2.702   5.169  11.552  1.4573  1.7285 -0.6093
 5419TIP3   OH237747   1.759   0.466  14.890 -0.3966  0.5535 -0.0569
 5419TIP3    H137748   1.723   0.468  14.801  0.2368  0.5128 -0.3180
 5419TIP3    H237749   1.846   0.428  14.880 -1.0868 -1.3261  0.8603
 5420TIP3   OH237750   4.261   1.771  15.717 -0.3410  0.7414 -0.0179
 5420TIP3    H137751   4.317   1.737  15.646  1.2829  2.6004  0.3253
 5420TIP3    H237752   4.322   1.817  15.774 -1.9448  0.8716  1.5895
 5421TIP3   OH237753   0.476   6.075  17.044  0.1387 -0.4593  0.5648
 5421TIP3    H137754   0.383   6.094  17.032  0.3712  0.4795  0.2410
 5421TIP3    H237755   0.515   6.159  17.066  0.4826 -1.3187  3.4196
 5422TIP3   OH237756   3.211   3.539   3.414  0.0709 -0.3906  0.4720
 5422TIP3    H137757   3.255   3.608   3.464  1.2766 -0.4429 -0.4819
 5422TIP3    H237758   3.257   3.537   3.331 -2.9222  0.7719 -1.2744
 5423TIP3   OH237759   1.057   2.818  11.743  0.0133  0.1502 -0.1488
 5423TIP3    H137760   0.992   2.761  11.786 -0.3803  1.0519  0.4788
 5423TIP3    H237761   1.069   2.779  11.656 -2.0076  0.4393 -0.5898
 5424TIP3   OH237762   2.408   2.182   5.541  0.2074  0.2453 -0.1294
 5424TIP3    H137763   2.403   2.183   5.445 -0.1701 -0.7986 -0.1346
 5424TIP3    H237764   2.459   2.260   5.564  1.4227 -0.2061 -1.2390
 5425TIP3   OH237765   6.191   4.876   1.989 -0.0583  1.0637 -0.6851
 5425TIP3    H137766   6.131   4.886   2.063 -0.7057  3.5804 -1.5163
 5425TIP3    H237767   6.133   4.867   1.913  0.6076 -0.8166 -0.9964
 5426TIP3   OH237768   2.934   2.094   0.069  0.3757 -0.7112  0.5835
 5426TIP3    H137769   2.853   2.044   0.059 -0.7391  0.9298  1.2147
 5426TIP3    H237770   2.920   2.173   0.017  1.5619 -0.4117  0.7071
 5427TIP3   OH237771   6.023   5.688  12.984 -0.2827  0.2711  0.4270
 5427TIP3    H137772   6.005   5.675  13.077 -0.0001 -0.7443  0.3391
 5427TIP3    H237773   6.114   5.661  12.974 -0.0423  1.2030  0.0180
 5428TIP3   OH237774   6.627   5.942   4.664 -0.1630  0.0255  1.0675
 5428TIP3    H137775   6.667   5.993   4.593 -0.1425 -2.0194 -0.4594
 5428TIP3    H237776   6.533   5.946   4.647 -0.2332  0.3747  1.5283
 5429TIP3   OH237777   1.484   6.809   0.685 -0.3187  0.7809  0.3373
 5429TIP3    H137778   1.523   6.894   0.662  2.1343 -1.1595 -3.1540
 5429TIP3    H237779   1.415   6.797   0.619  0.3552 -0.5659 -0.1402
 5430TIP3   OH237780   4.053   0.584  10.979  0.0726 -0.6708  0.6159
 5430TIP3    H137781   4.122   0.574  11.044 -0.1239  1.6334  1.2168
 5430TIP3    H237782   4.033   0.677  10.979 -0.9167 -0.8460 -1.7523
 5431TIP3   OH237783   3.030   4.688  15.702 -0.2074  0.1548  0.1162
 5431TIP3    H137784   3.006   4.762  15.758  0.1536  0.7436 -0.5042
 5431TIP3    H237785   2.968   4.691  15.629  0.2684  0.2872 -0.2870
 5432TIP3   OH237786   0.373   4.559  12.823 -0.4574 -0.0538  0.1776
 5432TIP3    H137787   0.325   4.592  12.747  1.2386 -0.7962 -1.2658
 5432TIP3    H237788   0.445   4.621  12.835  0.0068 -0.6288  0.4032
 5433TIP3   OH237789   1.193   5.666  14.632  0.2315  0.0842 -0.2273
 5433TIP3    H137790   1.173   5.746  14.682 -0.1102  0.0377 -0.2859
 5433TIP3    H237791   1.281   5.641  14.660 -0.5008 -0.7291  1.4037
 5434TIP3   OH237792   6.607   5.079  10.888 -0.2171  0.3986  0.2566
 5434TIP3    H137793   6.609   4.989  10.854  2.7669  1.6397 -3.0819
 5434TIP3    H237794   6.638   5.070  10.979  0.1888 -1.9017 -0.0759
 5435TIP3   OH237795   6.198   3.838   4.471 -0.2487  1.2493 -0.2844
 5435TIP3    H137796   6.233   3.916   4.428  1.3831  0.3045 -0.6972
 5435TIP3    H237797   6.267   3.810   4.531 -0.5849 -0.2052 -0.5592
 5436TIP3   OH237798   2.990   3.559   5.620  0.6669  0.3901  0.1290
 5436TIP3    H137799   2.927   3.585   5.554  1.2768 -0.2147 -0.7119
 5436TIP3    H237800   3.052   3.632   5.625  0.0624  0.8658  0.7590
 5437TIP3   OH237801   5.678   0.948  16.755  0.0330  0.6855  0.0159
 5437TIP3    H137802   5.724   1.028  16.784 -0.0959  0.5613  0.5575
 5437TIP3    H237803   5.729   0.876  16.792 -1.0370  0.5618  1.2603
 5438TIP3   OH237804   5.181   4.005  17.091  0.4742  0.0465  0.1704
 5438TIP3    H137805   5.157   4.061  17.165  1.8362  0.3457  0.3881
 5438TIP3    H237806   5.254   3.953  17.123  0.6390 -0.2955 -0.7550
 5439TIP3   OH237807   0.234   5.361   0.233 -0.3874  0.0367 -0.0811
 5439TIP3    H137808   0.249   5.453   0.255 -2.8035  0.4344  0.0734
 5439TIP3    H237809   0.228   5.316   0.317  3.6356 -0.8187 -0.1651
 5440TIP3   OH237810   5.309   4.166  12.278 -0.2609 -0.2386  0.0593
 5440TIP3    H137811   5.391   4.129  12.245  0.6307 -1.9934  3.9529
 5440TIP3    H237812   5.331   4.257  12.301  0.0676 -0.1026 -0.7995
 5441TIP3   OH237813   0.438   6.340   1.077  0.2600  0.1242 -0.2338
 5441TIP3    H137814   0.431   6.433   1.095  1.5172  0.0047  0.9704
 5441TIP3    H237815   0.495   6.306   1.147  1.0785 -1.2643 -1.5505
 5442TIP3   OH237816   3.947   3.464   0.830  0.2710 -0.0098 -0.4730
 5442TIP3    H137817   3.930   3.372   0.851 -2.3336  0.1220 -1.7527
 5442TIP3    H237818   3.982   3.462   0.741 -0.5867  0.2763 -0.8227
 5443TIP3   OH237819   0.910   6.102  13.397 -0.1662  0.3063  0.4637
 5443TIP3    H137820   0.866   6.170  13.347 -0.6093  1.0873  1.8995
 5443TIP3    H237821   0.912   6.026  13.338 -1.2238  1.0146 -0.4928
 5444TIP3   OH237822   4.696   4.319  11.776  0.0192  0.1121  0.7560
 5444TIP3    H137823   4.634   4.295  11.845  0.8600 -0.3628  1.3451
 5444TIP3    H237824   4.651   4.387  11.726 -1.3772 -0.9262  0.5769
 5445TIP3   OH237825   1.328   3.328  13.058  0.3491 -0.0496 -0.4826
 5445TIP3    H137826   1.397   3.324  13.124 -1.5906 -0.0506  1.5886
 5445TIP3    H237827   1.275   3.249  13.074 -2.8326  2.2934  1.0255
 5446TIP3   OH237828   4.619   4.125   4.728 -0.7315 -0.1915  0.6642
 5446TIP3    H137829   4.534   4.094   4.697 -1.7962  2.2447  1.0644
 5446TIP3    H237830   4.656   4.171   4.653  0.7568 -2.1745  0.1335
 5447TIP3   OH237831   1.301   4.018   2.435  0.1022 -0.1126 -0.3446
 5447TIP3    H137832   1.346   3.966   2.501 -0.4414 -0.9603 -0.6309
 5447TIP3    H237833   1.342   3.991   2.352  1.2372  1.4242 -0.2943
 5448TIP3   OH237834   1.131   4.232  12.142  0.1280 -0.2382 -0.3690
 5448TIP3    H137835   1.146   4.202  12.052  0.9044 -0.2202 -0.2497
 5448TIP3    H237836   1.103   4.154  12.189  0.3280 -0.3834 -0.4872
 5449TIP3   OH237837   4.642   4.223  11.136 -0.3098 -0.3380  0.2479
 5449TIP3    H137838   4.645   4.316  11.112  1.8169 -0.4725 -0.1225
 5449TIP3    H237839   4.551   4.208  11.162 -0.7944  1.7330 -0.1354
 5450TIP3   OH237840   5.837   3.640   4.811 -0.1214 -0.1828  0.1785
 5450TIP3    H137841   5.864   3.669   4.724  1.2143 -0.4328  0.5077
 5450TIP3    H237842   5.784   3.561   4.795  0.1907 -0.2743 -0.3938
 5451TIP3   OH237843   3.491   0.568  13.533 -0.6870 -0.6684  0.0884
 5451TIP3    H137844   3.414   0.623  13.549 -0.3719 -0.9969  3.0644
 5451TIP3    H237845   3.469   0.484  13.573  1.1121 -0.8207  0.8003
 5452TIP3   OH237846   4.228   3.814  10.632  0.2015  0.0127  0.3718
 5452TIP3    H137847   4.210   3.740  10.575  3.3526 -0.9681  0.5819
 5452TIP3    H237848   4.197   3.786  10.718  2.2041 -1.4625  0.6446
 5453TIP3   OH237849   5.662   0.707  15.266  0.0163 -0.4684  0.0124
 5453TIP3    H137850   5.593   0.642  15.277 -0.2307 -0.4846 -1.5621
 5453TIP3    H237851   5.643   0.749  15.182  1.6144 -0.0984 -0.1781
 5454TIP3   OH237852   4.619   2.035  12.077 -0.4173 -0.4305  0.2502
 5454TIP3    H137853   4.701   2.052  12.031  0.3719  0.1571  1.8366
 5454TIP3    H237854   4.645   1.989  12.157 -1.7248 -1.0405  0.3498
 5455TIP3   OH237855   5.645   1.929   3.017 -0.2288 -0.5475  0.0059
 5455TIP3    H137856   5.626   1.836   3.033  1.8270 -0.9671  0.1765
 5455TIP3    H237857   5.559   1.971   3.019 -1.1503 -2.3608  0.4942
 5456TIP3   OH237858   6.064   1.261  16.792 -0.3135  0.2353  0.4719
 5456TIP3    H137859   6.100   1.187  16.841 -0.2091  0.4371  0.7033
 5456TIP3    H237860   6.140   1.301  16.750 -0.3013  0.5189  0.7674
 5457TIP3   OH237861   4.135   0.685  17.290  0.3647 -0.7873  0.1445
 5457TIP3    H137862   4.130   0.650  17.379 -0.4188 -0.8411  0.0818
 5457TIP3    H237863   4.213   0.645  17.252  0.6427 -0.8424  0.7726
 5458TIP3   OH237864   3.594   0.143   0.857 -0.0849 -0.6350 -0.0317
 5458TIP3    H137865   3.660   0.212   0.850  0.5277 -1.1044  0.9718
 5458TIP3    H237866   3.608   0.090   0.779 -0.7568  0.5311 -0.9632
 5459TIP3   OH237867   0.027   3.235   1.958 -0.1635 -0.0380 -0.0023
 5459TIP3    H137868   0.081   3.275   1.889 -0.4511  1.1448  0.4474
 5459TIP3    H237869   0.088   3.218   2.030 -0.3767  1.3325  0.5203
 5460TIP3   OH237870   6.679   3.771  15.658 -0.3958 -0.1724  0.1913
 5460TIP3    H137871   6.758   3.761  15.605 -1.5857  1.3699 -1.9638
 5460TIP3    H237872   6.631   3.690  15.645 -0.4788  0.0268 -0.7395
 5461TIP3   OH237873   4.546   3.781  11.517 -0.4877  0.4880  0.0227
 5461TIP3    H137874   4.631   3.817  11.542  0.4149 -1.1259 -0.5913
 5461TIP3    H237875   4.567   3.693  11.485 -2.3319  0.2809 -0.6469
 5462TIP3   OH237876   5.560   2.163   4.764  0.1646  0.5929  0.2886
 5462TIP3    H137877   5.574   2.252   4.796  2.0642  0.1140  0.9012
 5462TIP3    H237878   5.538   2.174   4.671  2.4935  1.6445 -0.1981
 5463TIP3   OH237879   0.738   6.454   2.182  0.3973 -0.2849 -0.3858
 5463TIP3    H137880   0.716   6.382   2.242 -1.4098  0.8051  0.2744
 5463TIP3    H237881   0.817   6.493   2.221 -1.0527  0.7469  1.5963
 5464TIP3   OH237882   5.934   3.845   1.713 -0.4001  0.4614  0.5050
 5464TIP3    H137883   5.987   3.906   1.765  0.9455 -1.2167  1.1783
 5464TIP3    H237884   5.874   3.805   1.776 -0.0886 -0.1613  0.4164
 5465TIP3   OH237885   2.026   4.843   2.177  0.0919 -0.1474  0.0748
 5465TIP3    H137886   2.094   4.796   2.226  0.7867 -0.2072 -0.9339
 5465TIP3    H237887   2.029   4.806   2.089  1.8990  2.9490 -1.2736
 5466TIP3   OH237888   2.214   0.737  12.307 -0.2445  0.3042  0.1632
 5466TIP3    H137889   2.223   0.755  12.400  2.0884  0.1112  0.0028
 5466TIP3    H237890   2.121   0.719  12.295 -0.4931 -0.1792  2.5450
 5467TIP3   OH237891   0.715   4.612   0.280 -0.1692 -0.1205  0.4190
 5467TIP3    H137892   0.796   4.608   0.229 -1.0010 -0.7307 -0.9089
 5467TIP3    H237893   0.743   4.602   0.371  1.2604 -0.1433 -0.0065
 5468TIP3   OH237894   0.904   6.525  16.157 -0.5953 -0.1219 -0.5812
 5468TIP3    H137895   0.812   6.548  16.172  0.0040  2.1749 -0.3106
 5468TIP3    H237896   0.947   6.543  16.241  0.3561  0.1411 -1.1244
 5469TIP3   OH237897   0.358   5.655  15.723 -0.2889  0.3843  0.4090
 5469TIP3    H137898   0.398   5.634  15.807 -0.8848  0.1871  0.6459
 5469TIP3    H237899   0.267   5.675  15.745 -1.0993 -2.1300 -0.5066
 5470TIP3   OH237900   2.601   6.488   3.996  0.1180 -0.4157 -0.0541
 5470TIP3    H137901   2.553   6.533   4.066  0.8770 -0.5633  0.5653
 5470TIP3    H237902   2.544   6.414   3.973  0.0533 -0.6014  0.6894
 5471TIP3   OH237903   6.329   3.983   1.055 -0.1669  0.4032 -0.4505
 5471TIP3    H137904   6.420   3.967   1.080  0.3774  0.9545 -2.0295
 5471TIP3    H237905   6.304   3.906   1.004 -0.3104  0.6492 -0.7505
 5472TIP3   OH237906   2.030   3.850   4.377 -0.4856  0.3995  0.1688
 5472TIP3    H137907   2.011   3.853   4.284  2.3467  1.9515 -0.3995
 5472TIP3    H237908   2.082   3.770   4.389 -0.6215  0.3428  0.3889
 5473TIP3   OH237909   1.934   0.268  17.190 -0.3026 -0.3498  0.2459
 5473TIP3    H137910   2.005   0.231  17.137  0.8470  2.5601 -0.3494
 5473TIP3    H237911   1.928   0.359  17.161 -1.3050  0.6468  3.4297
 5474TIP3   OH237912   0.940   3.889  12.043  0.8036  0.4141 -0.8680
 5474TIP3    H137913   0.974   3.897  11.954  1.2507 -0.8876 -0.8190
 5474TIP3    H237914   1.003   3.936  12.097  1.7799 -0.7892 -0.9511
 5475TIP3   OH237915   2.617   2.349  11.612 -0.5352  0.3600 -0.3089
 5475TIP3    H137916   2.658   2.307  11.687 -0.3350 -0.0488 -0.6429
 5475TIP3    H237917   2.616   2.442  11.633 -0.1178  0.2882  0.0240
 5476TIP3   OH237918   4.667   5.998  11.908 -0.5645  0.3571  0.7181
 5476TIP3    H137919   4.667   6.058  11.982  1.4634  1.4346 -0.1114
 5476TIP3    H237920   4.632   6.050  11.835 -1.1324 -0.2363  0.5603
 5477TIP3   OH237921   6.645   4.497   1.528  0.3094  0.5521  0.3589
 5477TIP3    H137922   6.690   4.430   1.477 -0.5079  1.6391 -1.8305
 5477TIP3    H237923   6.703   4.573   1.526  0.4609  0.4788  1.4201
 5478TIP3   OH237924   0.075   4.684   3.462 -0.1699  0.5176 -0.2579
 5478TIP3    H137925   0.034   4.757   3.416 -2.2350 -0.1376  0.5136
 5478TIP3    H237926   0.151   4.661   3.408 -1.7915  0.6192 -2.6527
 5479TIP3   OH237927   6.564   3.506  14.897 -0.5146 -0.0236 -0.2318
 5479TIP3    H137928   6.613   3.568  14.951 -2.1899  1.1293  0.0103
 5479TIP3    H237929   6.530   3.442  14.959  0.5708 -0.7507 -0.3829
 5480TIP3   OH237930   4.709   1.522  12.843  0.0513  0.4200 -0.5559
 5480TIP3    H137931   4.761   1.473  12.779 -1.1869  0.0185 -1.2884
 5480TIP3    H237932   4.772   1.576  12.890  1.5010 -2.1066  0.4840
 5481TIP3   OH237933   5.528   6.449  15.292  0.1967  0.7904  0.0325
 5481TIP3    H137934   5.596   6.382  15.288  0.0825  0.6916 -0.1914
 5481TIP3    H237935   5.450   6.408  15.256  0.0401  0.9345  0.2039
 5482TIP3   OH237936   4.624   3.583   1.469 -0.2602  0.4209 -0.5165
 5482TIP3    H137937   4.714   3.608   1.490 -0.3556  0.1112  0.2847
 5482TIP3    H237938   4.582   3.574   1.554 -0.7610 -0.4833 -0.8546
 5483TIP3   OH237939   4.990   1.997   5.242 -0.0554  0.2273  0.2105
 5483TIP3    H137940   5.003   2.013   5.148 -0.7412 -1.9889 -0.2718
 5483TIP3    H237941   4.896   2.003   5.255  0.1771  2.4745  1.1589
 5484TIP3   OH237942   6.516   0.049  16.197  0.0590  0.0308 -0.3057
 5484TIP3    H137943   6.459   0.017  16.128  0.3049 -0.2905 -0.3629
 5484TIP3    H237944   6.556   0.129  16.161  0.6104 -0.4382 -0.7513
 5485TIP3   OH237945   6.139   2.866   5.179 -0.0385  0.4822  0.2624
 5485TIP3    H137946   6.119   2.814   5.257  2.4400  0.4695  0.9389
 5485TIP3    H237947   6.088   2.946   5.191 -1.3888 -0.4327  0.8012
 5486TIP3   OH237948   0.794   5.778   3.528 -0.3550  0.0858 -0.0873
 5486TIP3    H137949   0.817   5.689   3.555  0.2428  0.2922  0.0929
 5486TIP3    H237950   0.788   5.774   3.433  3.2503  0.6615 -0.3997
 5487TIP3   OH237951   1.027   6.524   1.317  0.9073  0.0130 -0.0881
 5487TIP3    H137952   1.028   6.566   1.231  1.2904 -1.2359 -0.7014
 5487TIP3    H237953   1.110   6.549   1.357  1.1376 -0.1675 -0.4545
 5488TIP3   OH237954   0.159   5.676   1.794 -0.1186 -0.4072  0.1576
 5488TIP3    H137955   0.210   5.736   1.848  1.2867 -0.2874 -1.2716
 5488TIP3    H237956   0.101   5.631   1.856  0.7520  0.4529  1.6080
 5489TIP3   OH237957   1.774   5.947   3.806  0.3960 -0.1713  0.1114
 5489TIP3    H137958   1.823   5.920   3.729  0.6580 -0.2092  0.2907
 5489TIP3    H237959   1.732   5.867   3.838  0.3772 -0.1766  0.0752
 5490TIP3   OH237960   1.628   2.364  13.833 -0.4645 -0.0850  0.1255
 5490TIP3    H137961   1.670   2.335  13.914  0.2777  1.1119  0.1882
 5490TIP3    H237962   1.687   2.334  13.764  0.5402  1.6282  0.2151
 5491TIP3   OH237963   1.877   0.852  15.981 -0.0265 -0.3544  0.1427
 5491TIP3    H137964   1.785   0.847  16.009  0.0897  0.1174  0.6119
 5491TIP3    H237965   1.907   0.937  16.013  1.2493 -1.4571  1.9985
 5492TIP3   OH237966   1.637   6.068   4.678  0.6350 -0.1605 -0.1504
 5492TIP3    H137967   1.659   6.093   4.589  1.4106 -0.9332 -0.1840
 5492TIP3    H237968   1.542   6.069   4.681  0.6420  1.6390 -0.4770
 5493TIP3   OH237969   5.551   3.530   0.808 -0.4884  0.2371  0.2285
 5493TIP3    H137970   5.479   3.522   0.746 -1.3361  0.5876  1.1530
 5493TIP3    H237971   5.512   3.506   0.892  0.7713 -0.7255  0.5495
 5494TIP3   OH237972   1.343   3.767   2.608 -0.5114  0.4322  0.1023
 5494TIP3    H137973   1.384   3.685   2.636 -0.0752  0.9470  1.0043
 5494TIP3    H237974   1.303   3.802   2.688  1.2375  2.2213  0.2209
 5495TIP3   OH237975   6.468   0.211  11.450  0.0577 -0.3462 -0.7388
 5495TIP3    H137976   6.422   0.127  11.444 -3.9827  1.8096 -1.9283
 5495TIP3    H237977   6.494   0.231  11.361 -1.2385  0.7747 -0.8945
 5496TIP3   OH237978   3.140   1.726   3.110 -0.2835 -0.1096  0.0779
 5496TIP3    H137979   3.130   1.671   3.187  1.1638 -2.6325 -1.4705
 5496TIP3    H237980   3.131   1.665   3.036 -0.9899  2.1300 -1.7479
 5497TIP3   OH237981   0.151   3.337   5.608 -0.1207 -0.2020 -0.0603
 5497TIP3    H137982   0.198   3.386   5.542  0.4839 -0.4443  0.1891
 5497TIP3    H237983   0.207   3.262   5.628 -0.1744  0.0073  0.9154
 5498TIP3   OH237984   5.565   3.442  13.058  0.5507 -0.4952  0.1472
 5498TIP3    H137985   5.483   3.492  13.052  1.2709  0.7175  0.3321
 5498TIP3    H237986   5.545   3.371  13.119 -0.8148 -1.1142 -0.9614
 5499TIP3   OH237987   2.617   4.706   5.806 -0.6187 -0.4495  0.3345
 5499TIP3    H137988   2.584   4.691   5.895 -1.6440 -0.9134 -0.1120
 5499TIP3    H237989   2.601   4.799   5.790  0.5618 -0.1189  1.0278
 5500TIP3   OH237990   3.317   2.900   2.743 -0.0926  0.5762  0.8942
 5500TIP3    H137991   3.253   2.856   2.687 -0.1542  1.1159  0.5409
 5500TIP3    H237992   3.288   2.880   2.832 -0.2462  0.0858  0.7356
 5501TIP3   OH237993   0.721   0.274  17.121 -0.0123  0.0001 -0.8578
 5501TIP3    H137994   0.698   0.316  17.203  0.7223  1.3869 -1.3259
 5501TIP3    H237995   0.806   0.313  17.098  2.1275 -3.8485  0.1187
 5502TIP3   OH237996   2.037   2.923  13.312  0.2251  0.3613 -0.1877
 5502TIP3    H137997   2.104   2.919  13.244  0.9681  0.5450  0.5176
 5502TIP3    H237998   2.049   3.009  13.352 -0.3591  0.3485  0.0191
 5503TIP3   OH237999   0.293   1.981   3.046  0.0555  0.0040 -0.1239
 5503TIP3    H138000   0.221   2.024   3.001  0.9905  2.7295  0.9187
 5503TIP3    H238001   0.251   1.925   3.111 -1.1440  1.6335  0.5361
 5504TIP3   OH238002   0.362   3.851  12.900 -0.5299  0.3464 -0.0913
 5504TIP3    H138003   0.443   3.856  12.951 -0.5106  2.2495 -0.2939
 5504TIP3    H238004   0.340   3.942  12.881 -1.5006 -0.2637 -1.9681
 5505TIP3   OH238005   0.507   3.381  13.184 -0.0094 -0.0650 -0.2276
 5505TIP3    H138006   0.509   3.291  13.216 -2.5939 -0.0196  0.1847
 5505TIP3    H238007   0.571   3.427  13.238 -1.0693 -0.9578  1.8810
 5506TIP3   OH238008   5.258   0.641   3.074 -0.7667  0.3970 -0.4571
 5506TIP3    H138009   5.291   0.701   3.007 -0.3489  0.6743 -0.0058
 5506TIP3    H238010   5.337   0.611   3.119 -1.1129  0.9204  0.5072
 5507TIP3   OH238011   5.883   4.026  12.141 -0.0829  0.0918 -0.5946
 5507TIP3    H138012   5.946   3.994  12.076  1.2399 -2.3007  1.7839
 5507TIP3    H238013   5.798   3.998  12.107  0.7339 -2.6052 -0.5219
 5508TIP3   OH238014   0.489   6.607   1.168  0.3468  0.4457  0.5054
 5508TIP3    H138015   0.574   6.650   1.157  1.2589 -1.6591 -0.7889
 5508TIP3    H238016   0.500   6.551   1.245 -0.3249  1.1741  1.1551
 5509TIP3   OH238017   2.233   1.272   3.194 -0.0372  0.2020  0.2214
 5509TIP3    H138018   2.291   1.196   3.184  0.8890  1.1305 -1.7944
 5509TIP3    H238019   2.145   1.235   3.190  0.3976 -0.7310 -1.2832
 5510TIP3   OH238020   5.084   3.290   3.264  0.5955  0.4156 -0.4585
 5510TIP3    H138021   5.150   3.322   3.202  1.8902  0.8160  1.0718
 5510TIP3    H238022   5.125   3.214   3.306  0.0153  0.5478  0.3717
 5511TIP3   OH238023   0.210   6.357  12.667  0.4890  0.5252  0.2317
 5511TIP3    H138024   0.232   6.337  12.576 -0.5499  1.4169 -0.2192
 5511TIP3    H238025   0.135   6.415  12.662 -0.8828 -1.0557  1.7171
 5512TIP3   OH238026   6.211   2.963   4.102 -0.5528  0.0920 -0.4315
 5512TIP3    H138027   6.230   2.979   4.010  0.9849 -0.6419 -0.2515
 5512TIP3    H238028   6.159   2.883   4.102  2.1518 -1.7106 -0.4595
 5513TIP3   OH238029   4.628   4.088  13.758 -0.2022 -0.2191  0.6980
 5513TIP3    H138030   4.723   4.093  13.765 -0.1983 -0.4223  0.7854
 5513TIP3    H238031   4.609   3.995  13.748 -0.2309  0.0110 -1.5994
 5514TIP3   OH238032   6.199   4.415   4.857  0.2610  0.2131 -0.0981
 5514TIP3    H138033   6.188   4.432   4.763 -0.5084 -1.1032 -0.2468
 5514TIP3    H238034   6.144   4.481   4.900  1.3150  1.4092 -0.5190
 5515TIP3   OH238035   5.241   4.278   0.490 -0.4838  0.2761  0.5382
 5515TIP3    H138036   5.220   4.204   0.547 -0.7510  0.0330  0.1326
 5515TIP3    H238037   5.240   4.354   0.548  0.5368 -0.1341  1.1016
 5516TIP3   OH238038   0.425   2.221  15.372 -0.3286  0.1078 -0.0357
 5516TIP3    H138039   0.476   2.278  15.314 -2.2530  0.1227 -1.7717
 5516TIP3    H238040   0.411   2.142  15.321 -0.9621 -0.3919  0.9065
 5517TIP3   OH238041   6.114   1.488   2.670 -0.2177  0.2105  0.5819
 5517TIP3    H138042   6.179   1.499   2.601  1.8500  0.8394  2.5554
 5517TIP3    H238043   6.037   1.535   2.639  0.0484 -1.0173 -2.0480
 5518TIP3   OH238044   1.376   4.918   4.202  0.1733  0.5165  0.4379
 5518TIP3    H138045   1.422   4.858   4.259 -0.6912 -0.3132  0.2668
 5518TIP3    H238046   1.434   4.929   4.126 -0.7617 -2.1105 -0.7231
 5519TIP3   OH238047   0.223   3.608  15.235  0.0088 -0.2819 -0.6354
 5519TIP3    H138048   0.130   3.586  15.225 -0.2484  0.8675 -0.8334
 5519TIP3    H238049   0.266   3.560  15.165 -0.4659 -0.6438 -0.6835
 5520TIP3   OH238050   5.023   4.200   2.824  0.2329  0.3566 -0.1585
 5520TIP3    H138051   4.978   4.269   2.872  0.4690  0.5495 -0.2136
 5520TIP3    H238052   5.114   4.228   2.821  0.1399  0.5706 -1.1167
 5521TIP3   OH238053   2.684   4.572  11.011 -0.0347  0.0522 -0.0562
 5521TIP3    H138054   2.621   4.623  10.961  0.4251 -0.5624 -1.2913
 5521TIP3    H238055   2.639   4.551  11.093 -1.2660  0.0056 -0.7328
 5522TIP3   OH238056   5.304   5.275  14.336 -0.5471 -0.1208  0.2382
 5522TIP3    H138057   5.371   5.328  14.291 -0.3403  0.6894  1.4678
 5522TIP3    H238058   5.221   5.309  14.303 -0.3786 -0.9056 -1.0467
 5523TIP3   OH238059   6.266   6.271   4.577  0.0127 -0.0894  0.1495
 5523TIP3    H138060   6.235   6.290   4.489  2.4261 -0.2864 -0.7769
 5523TIP3    H238061   6.309   6.186   4.569  0.3497 -0.0611  1.5075
 5524TIP3   OH238062   0.508   2.179   1.847 -0.0514  0.6843  0.1735
 5524TIP3    H138063   0.559   2.175   1.927 -4.0950 -2.2756  2.8190
 5524TIP3    H238064   0.435   2.237   1.868 -0.2745  1.2023 -1.9339
 5525TIP3   OH238065   6.692   4.766   1.080  0.4467  0.0821 -0.0052
 5525TIP3    H138066   6.630   4.766   1.153  3.1371  0.3875  2.3524
 5525TIP3    H238067   6.751   4.693   1.099 -0.5982 -1.7689 -3.5120
 5526TIP3   OH238068   0.508   1.818   5.534  0.1205  0.2653 -0.1603
 5526TIP3    H138069   0.602   1.801   5.521  0.3396 -0.0271  1.6444
 5526TIP3    H238070   0.504   1.910   5.559 -0.0599  0.2540 -0.1539
 5527TIP3   OH238071   0.745   4.485  12.125  0.4515 -0.2502 -0.6204
 5527TIP3    H138072   0.840   4.471  12.131  0.2959 -0.8020  0.9504
 5527TIP3    H238073   0.723   4.459  12.036  1.7884 -0.0514 -1.0252
 5528TIP3   OH238074   5.403   1.105  16.477  0.5179 -0.2740 -0.2801
 5528TIP3    H138075   5.308   1.111  16.489  0.6186  0.0372  0.4365
 5528TIP3    H238076   5.420   1.145  16.392 -0.1155 -1.4116 -0.9652
 5529TIP3   OH238077   2.576   2.027   4.580  0.0678  0.2001 -0.7397
 5529TIP3    H138078   2.651   1.968   4.587 -0.9958 -1.1538 -0.3400
 5529TIP3    H238079   2.583   2.065   4.493  2.3039  1.6175  0.0170
 5530TIP3   OH238080   0.660   6.224  14.984 -0.2875  0.2066  0.0015
 5530TIP3    H138081   0.728   6.267  14.932  0.1584  0.3749  0.7064
 5530TIP3    H238082   0.578   6.264  14.956 -0.1178 -0.1775 -1.0398
 5531TIP3   OH238083   0.225   0.727  14.794  0.2229  0.0855 -0.1293
 5531TIP3    H138084   0.293   0.762  14.853  1.0502 -0.0313 -1.0011
 5531TIP3    H238085   0.180   0.660  14.846  1.8676 -1.0157 -0.0902
 5532TIP3   OH238086   4.184   0.717  16.623  0.0943  0.3299  0.0838
 5532TIP3    H138087   4.232   0.654  16.677  0.6071 -0.8468 -1.6914
 5532TIP3    H238088   4.251   0.759  16.570 -0.4410  1.2533  0.1364
 5533TIP3   OH238089   2.740   0.671  16.209  0.4483  0.5952 -0.5557
 5533TIP3    H138090   2.675   0.735  16.236  0.6540  0.2343  0.8056
 5533TIP3    H238091   2.782   0.711  16.132 -2.7705 -0.0822 -2.7431
 5534TIP3   OH238092   2.979   5.696  12.228  0.1665 -0.0525  0.0397
 5534TIP3    H138093   2.888   5.688  12.255 -0.1698  0.9810 -0.7684
 5534TIP3    H238094   2.997   5.790  12.227  1.7422 -0.2952  1.7949
 5535TIP3   OH238095   2.348   5.680  13.111 -0.3161  0.0860  0.4744
 5535TIP3    H138096   2.346   5.624  13.189 -0.0543 -1.0366 -0.3079
 5535TIP3    H238097   2.421   5.740  13.127 -0.7386  0.3641  1.4274
 5536TIP3   OH238098   2.053   1.454  13.037 -0.2995 -0.0607  0.5510
 5536TIP3    H138099   2.131   1.432  12.985 -0.0071  0.2969  0.8322
 5536TIP3    H238100   2.037   1.546  13.018 -0.6182 -0.1160  0.5465
 5537TIP3   OH238101   0.701   2.625   4.524  0.0996 -0.2049 -0.5339
 5537TIP3    H138102   0.741   2.671   4.597 -0.2140 -1.4500  0.4346
 5537TIP3    H238103   0.741   2.538   4.525  0.1178 -0.2320 -1.8676
 5538TIP3   OH238104   4.936   4.841   2.832  0.4369  0.2246 -0.0116
 5538TIP3    H138105   4.942   4.921   2.781  2.7808 -0.2391 -0.5244
 5538TIP3    H238106   4.955   4.868   2.922  0.1049  0.4155  0.0026
 5539TIP3   OH238107   0.723   5.775  11.093  0.6209  0.6207 -0.0956
 5539TIP3    H138108   0.733   5.836  11.020 -1.5819 -0.0021 -0.9728
 5539TIP3    H238109   0.642   5.728  11.074  1.5737 -1.6619  1.2403
 5540TIP3   OH238110   1.679   2.935   4.839  0.0001  0.4671 -0.0507
 5540TIP3    H138111   1.667   2.861   4.899 -1.2499  0.2693 -0.5401
 5540TIP3    H238112   1.761   2.975   4.868 -1.9607  2.0604  3.6063
 5541TIP3   OH238113   5.287   0.376  11.549  0.5658  0.0043  0.2013
 5541TIP3    H138114   5.256   0.403  11.635 -0.8896 -0.4298 -0.1725
 5541TIP3    H238115   5.249   0.440  11.489 -2.4177 -2.4641 -0.6222
 5542TIP3   OH238116   0.251   0.280   1.272  0.2614 -0.1398  0.5186
 5542TIP3    H138117   0.174   0.260   1.217  0.4795  0.7587 -0.1320
 5542TIP3    H238118   0.224   0.356   1.323  1.8105  2.2597 -2.0835
 5543TIP3   OH238119   6.035   3.753  15.317  0.8360 -0.2745 -0.5320
 5543TIP3    H138120   6.072   3.666  15.304 -0.5375 -0.8885 -0.4825
 5543TIP3    H238121   6.108   3.813  15.304  2.2251 -1.5101  1.2357
 5544TIP3   OH238122   3.437   3.112   0.836  0.1466 -0.0901 -0.0477
 5544TIP3    H138123   3.453   3.190   0.890 -3.0444  0.3431  0.3760
 5544TIP3    H238124   3.406   3.046   0.898 -1.3609 -0.3000 -1.0020
 5545TIP3   OH238125   0.966   5.859  17.014  0.0782 -0.4605 -0.4702
 5545TIP3    H138126   1.026   5.808  17.068 -0.1311  1.5317  1.7373
 5545TIP3    H238127   0.989   5.835  16.924  3.5531 -0.5123  0.3336
 5546TIP3   OH238128   3.308   3.713  13.586  0.2704  0.0798  0.0157
 5546TIP3    H138129   3.346   3.627  13.606  0.0345 -0.0147  0.0674
 5546TIP3    H238130   3.213   3.698  13.590  0.2246  0.5362  0.8536
 5547TIP3   OH238131   2.038   4.951   3.180 -0.5789 -0.1689 -0.6286
 5547TIP3    H138132   1.957   5.000   3.192 -0.0507  0.3782  0.8233
 5547TIP3    H238133   2.049   4.946   3.085 -2.3368 -0.3137 -0.8514
 5548TIP3   OH238134   5.148   3.380   4.392 -0.0676  0.2633  0.5492
 5548TIP3    H138135   5.071   3.341   4.351 -0.0413  0.1488  0.6072
 5548TIP3    H238136   5.147   3.346   4.481 -0.6388  1.2409  0.9229
 5549TIP3   OH238137   5.610   4.229  12.925  0.2055 -0.1826  0.4731
 5549TIP3    H138138   5.610   4.269  12.838  0.2735 -0.3487  0.3946
 5549TIP3    H238139   5.519   4.236  12.955 -0.2605 -1.9117 -0.4482
 5550TIP3   OH238140   1.805   0.518   5.781  0.1766  0.0210 -0.0892
 5550TIP3    H138141   1.816   0.470   5.863 -1.3474 -0.6034 -0.2229
 5550TIP3    H238142   1.722   0.565   5.791  0.7032  1.0825 -0.7112
 5551TIP3   OH238143   1.990   3.005  17.194  0.6768  1.0685 -0.4711
 5551TIP3    H138144   1.906   2.981  17.155  0.1985  3.4922 -1.0348
 5551TIP3    H238145   2.055   2.958  17.142 -0.1280  2.0261 -2.3930
 5552TIP3   OH238146   0.486   5.865  11.736 -0.1070  0.0534  0.3088
 5552TIP3    H138147   0.541   5.787  11.748  1.4558  0.9263 -1.0016
 5552TIP3    H238148   0.547   5.932  11.705 -1.9607  0.9884 -1.3745
 5553TIP3   OH238149   3.853   5.166   3.444  0.0896  0.3011 -0.3800
 5553TIP3    H138150   3.835   5.119   3.526  0.6008 -0.6294 -0.7988
 5553TIP3    H238151   3.810   5.251   3.456 -1.5958 -0.5802  0.0459
 5554TIP3   OH238152   5.464   0.409   5.189 -0.2878  0.1241 -0.5150
 5554TIP3    H138153   5.439   0.493   5.229  0.9348 -0.6544  1.9928
 5554TIP3    H238154   5.540   0.431   5.134  0.0401  0.6875  0.1502
 5555TIP3   OH238155   2.735   5.616  15.453 -0.0320 -0.6656 -0.3514
 5555TIP3    H138156   2.793   5.641  15.524 -0.1911  1.2518 -0.8690
 5555TIP3    H238157   2.657   5.581  15.496  0.1790 -0.2029  0.3971
 5556TIP3   OH238158   0.111   5.925   0.906  0.4304 -0.2949 -0.3866
 5556TIP3    H138159   0.139   5.895   0.992 -1.4134 -0.9654  0.0166
 5556TIP3    H238160   0.057   6.002   0.925  0.5035 -0.0944 -0.9877
 5557TIP3   OH238161   0.039   1.853   2.691 -0.0953 -0.2489 -0.3294
 5557TIP3    H138162  -0.039   1.871   2.742 -1.6525 -2.0866 -1.9996
 5557TIP3    H238163   0.016   1.877   2.601  2.1090  1.5441 -0.4679
 5558TIP3   OH238164   4.666   5.602  12.930  0.0245 -0.2716  0.0045
 5558TIP3    H138165   4.610   5.528  12.904 -0.2153 -0.7990  1.9596
 5558TIP3    H238166   4.610   5.655  12.987  1.1756 -0.2365  1.1173
 5559TIP3   OH238167   5.418   1.241   5.308  0.0621 -0.4544 -0.1411
 5559TIP3    H138168   5.396   1.287   5.389  0.3199 -3.3535  1.6290
 5559TIP3    H238169   5.334   1.226   5.265 -0.1073  0.7497 -0.2611
 5560TIP3   OH238170   2.694   3.406   1.528 -0.2949 -0.1451  0.5919
 5560TIP3    H138171   2.736   3.332   1.572  1.3764  0.7236  0.4752
 5560TIP3    H238172   2.762   3.442   1.472 -1.9861 -0.3833 -1.6876
 5561TIP3   OH238173   6.477   1.648  15.074 -0.0168  0.1980 -0.1718
 5561TIP3    H138174   6.499   1.574  15.018  0.6863 -0.0766  0.4461
 5561TIP3    H238175   6.416   1.612  15.138 -1.2046  0.6313 -1.0611
 5562TIP3   OH238176   2.306   2.885  11.458  0.1646  0.2002  0.2865
 5562TIP3    H138177   2.273   2.803  11.493  0.2776 -0.8861 -2.0292
 5562TIP3    H238178   2.396   2.865  11.431  0.3631  1.2225  0.1734
 5563TIP3   OH238179   6.434   3.290   3.507 -0.5635  0.1026  0.0354
 5563TIP3    H138180   6.450   3.197   3.489  2.0851  0.8227 -1.6556
 5563TIP3    H238181   6.437   3.331   3.421 -1.4312  1.7970  0.8080
 5564TIP3   OH238182   0.553   5.011   1.477 -0.1134  0.1958  0.1975
 5564TIP3    H138183   0.512   5.098   1.479  1.4839  0.9616  0.2249
 5564TIP3    H238184   0.531   4.971   1.561 -1.3270  0.3487 -0.0431
 5565TIP3   OH238185   0.912   5.384  13.849 -0.3162 -0.6718  0.1638
 5565TIP3    H138186   0.981   5.447  13.869 -0.2834 -0.1559 -1.4628
 5565TIP3    H238187   0.838   5.437  13.819 -0.6185 -1.3466 -0.3160
 5566TIP3   OH238188   4.766   2.224   1.754 -0.1463 -0.2356 -0.2254
 5566TIP3    H138189   4.733   2.135   1.771  0.6124  0.0600  3.0779
 5566TIP3    H238190   4.836   2.211   1.691  0.4096 -2.0973  0.7352
 5567TIP3   OH238191   2.150   2.381   6.262  0.2360  0.2192 -0.3444
 5567TIP3    H138192   2.229   2.432   6.280 -0.1072  0.8912 -0.7256
 5567TIP3    H238193   2.106   2.429   6.193 -1.6036  1.0196  1.3571
 5568TIP3   OH238194   2.121   2.548  17.076  0.2273  0.3325  0.4436
 5568TIP3    H138195   2.043   2.522  17.027  0.3824 -0.8901  0.8384
 5568TIP3    H238196   2.089   2.617  17.135 -0.3122  0.6178 -0.1767
 5569TIP3   OH238197   1.017   5.196  13.610  0.5197 -0.5941 -0.3521
 5569TIP3    H138198   0.932   5.226  13.643  0.7783 -0.7947  0.5104
 5569TIP3    H238199   0.996   5.124  13.551 -0.0211  0.4466 -1.4584
 5570TIP3   OH238200   4.485   1.984   2.199 -0.4209  0.6591 -0.0201
 5570TIP3    H138201   4.428   1.998   2.124 -0.3649 -2.3289 -0.7056
 5570TIP3    H238202   4.506   1.890   2.195  2.6447  1.2225  1.5460
 5571TIP3   OH238203   0.907   4.818   4.706  0.0799  0.1003 -0.2988
 5571TIP3    H138204   0.986   4.854   4.667  0.4882 -0.1081  0.3272
 5571TIP3    H238205   0.936   4.737   4.748 -0.1754  0.7630  1.1773
 5572TIP3   OH238206   5.415   0.200   0.095 -0.2345 -0.4626 -0.7635
 5572TIP3    H138207   5.404   0.187   0.001 -0.9044  0.3960 -0.8112
 5572TIP3    H238208   5.442   0.291   0.104 -0.2280 -0.5230 -0.1180
 5573TIP3   OH238209   5.891   6.526  15.531 -0.3576  0.0291 -0.0612
 5573TIP3    H138210   5.977   6.557  15.506 -0.6267  1.0598  0.2743
 5573TIP3    H238211   5.907   6.466  15.604  0.0156  0.7903  0.4820
 5574TIP3   OH238212   4.616   0.677   2.652  0.3500  0.4603  0.8260
 5574TIP3    H138213   4.598   0.756   2.602  0.2174  0.1432  0.3653
 5574TIP3    H238214   4.694   0.697   2.704  1.7522  0.0857 -1.0867
 5575TIP3   OH238215   0.800   5.544  14.408 -0.4250 -0.3872 -0.7111
 5575TIP3    H138216   0.884   5.581  14.381 -1.2978  0.9491 -1.6342
 5575TIP3    H238217   0.806   5.539  14.504 -0.0615  1.6011 -0.6094
 5576TIP3   OH238218   2.291   0.746  16.133  0.0533  0.2578  0.1791
 5576TIP3    H138219   2.360   0.722  16.072  1.0631  1.4208  0.8464
 5576TIP3    H238220   2.262   0.662  16.170  1.4343 -0.2075  0.2400
 5577TIP3   OH238221   4.898   1.477  16.697 -0.0737  0.9226 -0.1415
 5577TIP3    H138222   4.990   1.481  16.723  0.0039 -0.2333 -0.2076
 5577TIP3    H238223   4.864   1.565  16.715  1.4127  1.8092 -1.5381
 5578TIP3   OH238224   0.085   3.075  13.653 -0.0440 -0.3903 -0.1748
 5578TIP3    H138225   0.001   3.119  13.663  0.6469  0.7054  0.9217
 5578TIP3    H238226   0.143   3.142  13.615  0.0859 -1.4314 -1.8894
 5579TIP3   OH238227   2.815   2.621   4.752 -0.7053 -0.0394  0.1820
 5579TIP3    H138228   2.765   2.646   4.830  3.1914  3.5882  1.6900
 5579TIP3    H238229   2.803   2.694   4.692  2.7402  0.9928  0.6416
 5580TIP3   OH238230   5.610   2.935  12.570 -0.0082 -0.4223  0.1870
 5580TIP3    H138231   5.570   2.848  12.564  0.0570 -0.4623  0.3286
 5580TIP3    H238232   5.550   2.984  12.627 -0.1195 -0.3339 -0.0085
 5581TIP3   OH238233   4.088   5.443   4.928  0.2175 -0.1017  0.2047
 5581TIP3    H138234   4.079   5.406   5.016 -0.9157 -0.6766 -0.1399
 5581TIP3    H238235   4.181   5.435   4.908  0.7878  1.6188  2.0232
 5582TIP3   OH238236   2.654   2.800  15.285 -0.3475 -0.6764  0.0772
 5582TIP3    H138237   2.634   2.719  15.238  1.8954 -2.1207  1.5003
 5582TIP3    H238238   2.672   2.864  15.216  0.3010 -2.0581 -1.0566
 5583TIP3   OH238239   5.578   3.640   4.170  0.2461  0.5789 -0.1772
 5583TIP3    H138240   5.616   3.709   4.116 -0.2970  1.3606  0.4241
 5583TIP3    H238241   5.562   3.568   4.109  0.7003  1.0342 -0.8360
 5584TIP3   OH238242   1.879   4.962   4.017 -0.0609  0.0919  0.2161
 5584TIP3    H138243   1.919   4.921   4.094  0.4630 -0.5660 -0.4029
 5584TIP3    H238244   1.953   4.985   3.961 -0.5145 -0.8673 -0.8003
 5585TIP3   OH238245   6.816   1.218  12.853  0.3463 -0.7158 -0.7740
 5585TIP3    H138246   6.862   1.134  12.850  2.1735  0.2207  0.0467
 5585TIP3    H238247   6.736   1.200  12.902  0.6805 -1.9941 -0.6833
 5586TIP3   OH238248   3.268   0.370   0.084  0.0168  0.4084 -0.1347
 5586TIP3    H138249   3.202   0.414   0.138 -0.2819 -1.7382  1.2820
 5586TIP3    H238250   3.283   0.431   0.011 -2.0355  1.8316  0.5870
 5587TIP3   OH238251   0.255   3.833  14.445  0.2093 -0.2132 -0.1336
 5587TIP3    H138252   0.254   3.753  14.498 -2.1219 -1.5657 -2.1191
 5587TIP3    H238253   0.307   3.894  14.496  0.2859 -2.3175  2.4504
 5588TIP3   OH238254   4.498   2.887   1.833 -0.2496 -0.4523 -0.0556
 5588TIP3    H138255   4.534   2.969   1.866 -0.2312 -0.3387 -0.3557
 5588TIP3    H238256   4.464   2.843   1.910  1.4932 -1.0466  0.3903
 5589TIP3   OH238257   0.172   6.351  16.028 -0.0452 -0.6198 -0.7715
 5589TIP3    H138258   0.101   6.287  16.036 -0.3234 -0.5349 -2.2599
 5589TIP3    H238259   0.246   6.299  15.997  0.1093 -0.4485 -0.6859
 5590TIP3   OH238260   3.845   4.723  12.728 -0.2268  0.7745  0.0111
 5590TIP3    H138261   3.831   4.725  12.822 -0.3329 -0.1328  0.0183
 5590TIP3    H238262   3.805   4.804  12.696 -1.7667  0.2186  0.5317
 5591TIP3   OH238263   3.755   2.478  16.376  0.3150 -0.1049  0.8623
 5591TIP3    H138264   3.703   2.435  16.444  0.4409 -0.0841  0.9716
 5591TIP3    H238265   3.835   2.424  16.371  0.0706 -0.4194  0.3538
 5592TIP3   OH238266   3.951   4.390  13.866  0.4330  0.4438  0.0691
 5592TIP3    H138267   3.858   4.397  13.890 -0.2436 -2.2245 -1.4814
 5592TIP3    H238268   3.995   4.457  13.918 -2.0870  0.4396  2.3020
 5593TIP3   OH238269   3.469   0.625  12.474 -0.2968  0.3921 -0.3284
 5593TIP3    H138270   3.387   0.646  12.428 -0.5426 -1.3434 -0.7077
 5593TIP3    H238271   3.523   0.704  12.464 -0.9328  0.6088 -2.2548
 5594TIP3   OH238272   5.969   0.749   3.309 -0.0383  0.2020  0.3961
 5594TIP3    H138273   5.973   0.806   3.232 -1.9292  1.4020  1.1836
 5594TIP3    H238274   6.056   0.758   3.349  1.1277 -0.7663 -1.8013
 5595TIP3   OH238275   2.020   6.100  13.586  0.7877  0.7127  0.7288
 5595TIP3    H138276   1.944   6.043  13.584 -0.0929  1.8557  0.6499
 5595TIP3    H238277   2.082   6.056  13.644 -0.5742  0.5481  2.1014
 5596TIP3   OH238278   1.563   0.710   3.168 -0.0852 -0.6509 -0.3606
 5596TIP3    H138279   1.643   0.657   3.165 -0.8414 -1.9318  1.4338
 5596TIP3    H238280   1.496   0.650   3.200 -1.3078  0.9674  0.1445
 5597TIP3   OH238281   0.047   3.849  14.269  0.0063  1.0705 -0.1065
 5597TIP3    H138282   0.109   3.872  14.337  1.7724 -3.2129 -0.1066
 5597TIP3    H238283  -0.024   3.804  14.315  0.5679 -0.6635 -0.8632
 5598TIP3   OH238284   4.341   4.263  14.249  0.2680  0.0028  0.3190
 5598TIP3    H138285   4.297   4.241  14.167  0.7464  0.0672  0.0382
 5598TIP3    H238286   4.314   4.195  14.310 -1.6231  1.0419  0.6541
 5599TIP3   OH238287   4.376   2.657  14.633 -0.1258 -0.3280 -0.4083
 5599TIP3    H138288   4.339   2.746  14.635  0.0048 -0.2746 -0.3347
 5599TIP3    H238289   4.430   2.656  14.555 -1.6306 -0.9539 -1.4728
 5600TIP3   OH238290   2.309   4.514  17.250 -0.0462 -0.0790 -0.1803
 5600TIP3    H138291   2.371   4.441  17.252 -0.3859 -0.3537  0.1982
 5600TIP3    H238292   2.224   4.475  17.267 -0.0901  0.5468  1.0723
 5601TIP3   OH238293   2.657   3.436  13.361  0.6071  0.2867 -0.1616
 5601TIP3    H138294   2.647   3.531  13.373 -0.4790 -0.1144  2.4475
 5601TIP3    H238295   2.568   3.404  13.345  1.1369 -0.1677 -2.4532
 5602TIP3   OH238296   3.359   4.397  15.841 -0.6242  0.0350 -1.2086
 5602TIP3    H138297   3.402   4.481  15.827  2.8949 -1.3638  0.8067
 5602TIP3    H238298   3.408   4.335  15.787 -0.7304 -1.4020  0.2966
 5603TIP3   OH238299   3.293   5.679  13.507  0.2413  0.3431 -0.1397
 5603TIP3    H138300   3.203   5.689  13.538  0.2477  0.4974 -0.1727
 5603TIP3    H238301   3.344   5.740  13.559  0.0576  1.5312 -1.3200
 5604TIP3   OH238302   4.814   5.049  12.703  0.0170 -0.0793  0.3741
 5604TIP3    H138303   4.797   5.023  12.612 -1.4613 -1.7221  1.0913
 5604TIP3    H238304   4.873   4.983  12.737  0.0997  0.2017  0.7800
 5605TIP3   OH238305   3.578   2.074   5.237 -0.0685  0.3260 -0.2376
 5605TIP3    H138306   3.498   2.115   5.271 -1.6672 -0.9409 -2.3955
 5605TIP3    H238307   3.631   2.057   5.316 -1.7311  1.5390  1.1859
 5606TIP3   OH238308   3.796   2.316   1.630 -0.2814 -0.0149  0.1023
 5606TIP3    H138309   3.876   2.325   1.683  0.1364 -0.7047 -0.4023
 5606TIP3    H238310   3.729   2.290   1.693  0.0884 -0.2665  0.3962
 5607TIP3   OH238311   4.854   1.025   5.529 -0.0245  0.5084  0.2207
 5607TIP3    H138312   4.885   0.935   5.539  1.5233  1.1434  1.3253
 5607TIP3    H238313   4.765   1.016   5.493 -0.8469 -1.5446  2.6175
 5608TIP3   OH238314   4.627   3.971  12.878 -0.5507  0.7289 -0.2221
 5608TIP3    H138315   4.585   4.057  12.867 -1.3308  0.4129  0.2684
 5608TIP3    H238316   4.645   3.942  12.789 -1.4013  0.8519 -0.4341
 5609TIP3   OH238317   5.332   5.512   2.005 -0.2281 -0.7477 -0.1173
 5609TIP3    H138318   5.286   5.503   2.089 -0.0443  3.8529  0.5729
 5609TIP3    H238319   5.301   5.595   1.969  2.0181 -1.1566 -3.1729
 5610TIP3   OH238320   2.853   3.360  16.647 -0.6514 -0.4103 -0.0718
 5610TIP3    H138321   2.934   3.381  16.599 -1.4696  0.6159 -1.0286
 5610TIP3    H238322   2.784   3.363  16.581 -1.6266 -0.2491  0.9347
 5611TIP3   OH238323   1.745   6.269  14.319  0.1660 -0.6013  0.0716
 5611TIP3    H138324   1.701   6.192  14.284 -0.8921  0.1255 -0.2515
 5611TIP3    H238325   1.709   6.279  14.407  0.0377 -0.2940 -0.0127
 5612TIP3   OH238326   6.113   4.257   6.673  0.0874  0.1282 -0.0439
 5612TIP3    H138327   6.093   4.190   6.738  0.7560  0.0639  0.1005
 5612TIP3    H238328   6.156   4.327   6.723 -0.6184  0.6703 -0.1890
 5613TIP3   OH238329   5.360   4.690  11.933  0.0278 -0.3105  0.9532
 5613TIP3    H138330   5.363   4.738  11.851  0.7982 -1.1205  0.5020
 5613TIP3    H238331   5.271   4.654  11.938  0.1827 -0.8057  0.1574
 5614TIP3   OH238332   6.363   3.220   0.795 -0.2590  0.1244  0.6087
 5614TIP3    H138333   6.446   3.247   0.835  0.0505  2.2882 -1.3991
 5614TIP3    H238334   6.388   3.149   0.735  0.2430  1.1172 -0.3756
 5615TIP3   OH238335   2.567   4.545   2.111  0.6259  0.1327  0.1677
 5615TIP3    H138336   2.615   4.615   2.155  2.2858  0.5201 -2.1683
 5615TIP3    H238337   2.617   4.465   2.131  0.8091  0.1600 -0.1785
 5616TIP3   OH238338   2.126   2.858  11.726 -0.2254 -0.0246  0.3546
 5616TIP3    H138339   2.166   2.939  11.757  0.4622  0.1638 -1.0055
 5616TIP3    H238340   2.172   2.789  11.773  0.4984  0.2828  0.1053
 5617TIP3   OH238341   0.504   3.175  16.062  0.4510 -0.3131 -0.0264
 5617TIP3    H138342   0.545   3.088  16.061  1.7793  0.2754  1.0366
 5617TIP3    H238343   0.577   3.236  16.074 -0.4165  0.9898 -1.1455
 5618TIP3   OH238344   4.588   6.588  11.184  0.0117  0.1723 -0.4407
 5618TIP3    H138345   4.527   6.530  11.228  0.5027 -0.2319 -0.2918
 5618TIP3    H238346   4.601   6.549  11.097  2.7738 -1.7109  0.7393
 5619TIP3   OH238347   2.306   3.583   1.689 -0.7051 -0.2969  0.3142
 5619TIP3    H138348   2.216   3.613   1.681 -0.8250 -0.8407 -0.4031
 5619TIP3    H238349   2.356   3.640   1.631 -0.7036 -0.4814  0.1332
 5620TIP3   OH238350   6.307   2.455  11.843 -0.1902  0.2525  0.0262
 5620TIP3    H138351   6.328   2.362  11.834 -1.1107 -0.0949  1.3429
 5620TIP3    H238352   6.369   2.488  11.908  0.3730  0.6492 -0.7054
 5621TIP3   OH238353   3.367   6.172   1.241  0.7982 -0.1824 -0.3919
 5621TIP3    H138354   3.354   6.088   1.198 -1.6157  0.5138 -1.1340
 5621TIP3    H238355   3.314   6.233   1.190 -0.5917  1.0504  2.4202
 5622TIP3   OH238356   2.952   3.208  15.836 -0.7879 -0.5363 -0.8037
 5622TIP3    H138357   2.890   3.135  15.832  1.0634 -2.1731 -0.5641
 5622TIP3    H238358   3.035   3.170  15.805  0.2776  1.3849 -0.3426
 5623TIP3   OH238359   5.445   6.225   2.660 -0.4985 -0.1136 -0.2924
 5623TIP3    H138360   5.376   6.278   2.620 -2.0568 -1.0274  1.1540
 5623TIP3    H238361   5.430   6.136   2.626 -2.0567 -0.9734  2.5695
 5624TIP3   OH238362   5.258   3.838  14.326 -0.4537 -0.5186 -0.0182
 5624TIP3    H138363   5.286   3.892  14.401 -2.2386 -2.5258  2.1784
 5624TIP3    H238364   5.175   3.875  14.299 -0.6355 -0.8455  0.0923
 5625TIP3   OH238365   0.790   5.090  17.132 -0.0077 -0.4618 -0.3558
 5625TIP3    H138366   0.747   5.162  17.086  1.8701  0.9942  0.1141
 5625TIP3    H238367   0.790   5.116  17.224  1.7322 -0.4793 -0.3298
 5626TIP3   OH238368   6.040   6.664  11.079 -0.1961  0.2353  0.0118
 5626TIP3    H138369   6.036   6.691  10.987  1.0507 -0.5819 -0.2927
 5626TIP3    H238370   5.994   6.733  11.126  2.4425  2.6490 -0.8184
 5627TIP3   OH238371   5.852   4.848   3.424 -0.1534 -0.2097 -0.3203
 5627TIP3    H138372   5.826   4.788   3.355  0.2724 -0.6829 -0.0721
 5627TIP3    H238373   5.816   4.933   3.397  1.9115  0.1066 -2.2703
 5628TIP3   OH238374   0.127   0.549   4.427 -0.2472  0.4925 -0.2045
 5628TIP3    H138375   0.186   0.499   4.483 -0.0585 -0.4796 -1.2319
 5628TIP3    H238376   0.068   0.594   4.487  0.8395  0.5896  0.8031
 5629TIP3   OH238377   5.916   4.694  13.899 -0.4859  0.2304 -0.0030
 5629TIP3    H138378   5.890   4.778  13.862 -2.0721 -0.4406 -0.4814
 5629TIP3    H238379   6.011   4.692  13.891 -0.6140  0.9651 -2.2195
 5630TIP3   OH238380   4.715   2.942   5.723 -0.1828 -0.1701 -0.3604
 5630TIP3    H138381   4.796   2.892   5.717 -0.6237 -0.9394  0.0016
 5630TIP3    H238382   4.707   2.963   5.816 -0.9313 -0.9860 -0.2403
 5631TIP3   OH238383   1.664   4.013   1.399  0.5853 -0.0979 -0.3461
 5631TIP3    H138384   1.633   3.923   1.399 -1.6753  0.6449  0.1475
 5631TIP3    H238385   1.678   4.034   1.307 -0.1123 -0.5567 -0.5577
 5632TIP3   OH238386   6.307   4.189  15.288  0.1632  0.4472 -0.0907
 5632TIP3    H138387   6.296   4.220  15.378 -0.3616 -0.0308  0.0158
 5632TIP3    H238388   6.229   4.221  15.242  0.0409  0.0178 -0.1853
 5633TIP3   OH238389   2.865   6.724   0.935  0.1404  0.1528  0.8093
 5633TIP3    H138390   2.907   6.704   0.851  0.2777 -0.0216  0.9194
 5633TIP3    H238391   2.778   6.686   0.928 -0.9771  2.7633 -0.4390
 5634TIP3   OH238392   3.514   0.770  15.012 -0.1891 -0.3886  0.2521
 5634TIP3    H138393   3.550   0.735  14.930  1.5215  1.1115  0.3496
 5634TIP3    H238394   3.458   0.843  14.985  1.4671  0.9940  0.4892
 5635TIP3   OH238395   0.886   0.117  13.500  0.1992  0.3954 -0.1756
 5635TIP3    H138396   0.917   0.159  13.420 -1.7614  0.8452 -0.7334
 5635TIP3    H238397   0.879   0.188  13.564  1.8996  0.0128  0.4442
 5636TIP3   OH238398   6.807   4.338   1.740  0.5758 -0.5341  0.0695
 5636TIP3    H138399   6.737   4.286   1.700  1.5328 -1.3802 -0.5559
 5636TIP3    H238400   6.806   4.312   1.832 -0.1466 -0.2953  0.1310
 5637TIP3   OH238401   0.996   5.415   0.319 -0.1538 -0.1599 -0.1503
 5637TIP3    H138402   0.972   5.414   0.226  0.7751  0.3629 -0.4044
 5637TIP3    H238403   0.917   5.442   0.364 -1.4812 -3.2082 -0.5205
 5638TIP3   OH238404   3.521   0.111  14.668 -0.2276 -0.0793 -0.5119
 5638TIP3    H138405   3.487   0.137  14.754 -0.9054 -0.7467 -0.5699
 5638TIP3    H238406   3.482   0.173  14.607 -0.5998 -0.2640 -0.4643
 5639TIP3   OH238407   1.175   3.201  16.051  0.1097 -0.6626 -0.2722
 5639TIP3    H138408   1.206   3.285  16.018  0.6298 -1.3379 -1.5178
 5639TIP3    H238409   1.255   3.154  16.075 -0.1657 -0.8946  0.1984
 5640TIP3   OH238410   1.970   3.551   4.944  0.0839  0.1644  0.5008
 5640TIP3    H138411   2.041   3.560   5.006  0.1369  0.6570  0.3665
 5640TIP3    H238412   1.894   3.588   4.988  0.0627  0.2699  0.3758
 5641TIP3   OH238413   1.360   3.546   5.070 -0.1076  0.3167 -0.0228
 5641TIP3    H138414   1.364   3.501   5.154 -0.8352  0.6103  0.1732
 5641TIP3    H238415   1.330   3.634   5.091  0.5735  0.6627 -0.4897
 5642TIP3   OH238416   4.135   4.067  10.626 -0.1581  0.2965 -0.5671
 5642TIP3    H138417   4.180   3.984  10.612 -2.1539 -0.7742 -0.7186
 5642TIP3    H238418   4.092   4.086  10.543  0.0377  1.3327 -0.4408
 5643TIP3   OH238419   1.975   6.415  17.210  0.0432  0.5316  0.0476
 5643TIP3    H138420   1.929   6.333  17.227 -0.3661  1.0341  1.4332
 5643TIP3    H238421   2.068   6.391  17.208 -0.2220 -0.3935 -2.2099
 5644TIP3   OH238422   0.200   0.016  15.699  0.2108  0.9033 -0.5991
 5644TIP3    H138423   0.168  -0.072  15.718  1.2189  0.5014 -0.7433
 5644TIP3    H238424   0.214   0.016  15.604  0.0395  1.2723 -0.6235
 5645TIP3   OH238425   3.874   2.814   5.649 -0.2491 -0.4730  0.3306
 5645TIP3    H138426   3.878   2.878   5.578 -3.1750 -1.0781 -0.4217
 5645TIP3    H238427   3.866   2.867   5.728  1.3686  0.1552  0.1019
 5646TIP3   OH238428   0.459   4.308  12.907  0.1707 -0.0712  0.3477
 5646TIP3    H138429   0.420   4.394  12.895  0.2859 -0.4615 -3.3772
 5646TIP3    H238430   0.553   4.324  12.917  0.1192  0.2665  0.2657
 5647TIP3   OH238431   1.959   5.895  10.889  0.0174  0.2234 -0.8988
 5647TIP3    H138432   1.904   5.819  10.906  2.5751 -1.3463  0.7844
 5647TIP3    H238433   2.015   5.869  10.816 -0.5337  1.2913 -1.7165
 5648TIP3   OH238434   2.899   3.697  11.123  0.5653  0.1922 -0.1409
 5648TIP3    H138435   2.831   3.704  11.056  0.7055 -0.8277 -0.4024
 5648TIP3    H238436   2.981   3.691  11.073  0.6768 -0.4890  0.1212
 5649TIP3   OH238437   0.618   6.104  11.452  0.4222 -0.2991 -0.0021
 5649TIP3    H138438   0.688   6.107  11.386 -0.7852  1.0280 -1.2466
 5649TIP3    H238439   0.566   6.027  11.429  0.3456 -0.1730 -0.2537
 5650TIP3   OH238440   4.635   6.784  16.958  0.2660 -0.4477  0.0006
 5650TIP3    H138441   4.553   6.735  16.962 -0.7229  1.1527 -0.1182
 5650TIP3    H238442   4.641   6.829  17.042 -0.2903  1.4486 -0.9407
 5651TIP3   OH238443   1.294   5.284   1.334  0.1758  0.0321 -0.1951
 5651TIP3    H138444   1.376   5.285   1.284  0.0278 -2.0510 -0.5123
 5651TIP3    H238445   1.294   5.199   1.378 -0.8039  0.8873  1.5252
 5652TIP3   OH238446   2.314   3.698  13.323 -0.1192 -0.0868  0.0041
 5652TIP3    H138447   2.323   3.791  13.301 -0.0712  0.2109  1.2596
 5652TIP3    H238448   2.228   3.692  13.365 -1.0056 -0.9759 -1.8861
 5653TIP3   OH238449   1.956   1.014  12.495  0.3296 -0.6474  0.3449
 5653TIP3    H138450   1.996   1.065  12.565  0.4987 -0.5286  0.1630
 5653TIP3    H238451   1.991   1.051  12.415  0.1540 -0.7982  0.1969
 5654TIP3   OH238452   6.429   4.571   5.622  0.1877  0.0082  0.2762
 5654TIP3    H138453   6.442   4.483   5.659 -0.1464 -0.4522 -0.6937
 5654TIP3    H238454   6.481   4.628   5.679  1.4600 -0.9923  0.1494
 5655TIP3   OH238455   5.646   0.711   1.417  0.2235  0.3102 -0.4789
 5655TIP3    H138456   5.573   0.761   1.455 -0.1192  0.7019 -1.6265
 5655TIP3    H238457   5.645   0.735   1.324  1.8405  0.3404 -0.4983
 5656TIP3   OH238458   0.393   5.976  14.435  0.2682 -0.4629 -0.1307
 5656TIP3    H138459   0.338   6.051  14.413 -2.7387 -2.5863 -0.3333
 5656TIP3    H238460   0.429   5.947  14.351 -0.0090 -0.2935 -0.3081
 5657TIP3   OH238461   3.058   4.961  16.046 -0.0720 -0.4162 -0.1263
 5657TIP3    H138462   3.110   4.999  16.117  1.3247 -0.1268 -1.2844
 5657TIP3    H238463   3.071   4.867  16.053 -1.6289 -0.5557  1.2716
 5658TIP3   OH238464   0.397   2.539   3.609 -0.6369  0.0707  0.6199
 5658TIP3    H138465   0.428   2.545   3.699  0.0750 -1.1699  0.4708
 5658TIP3    H238466   0.470   2.499   3.561 -1.2723  0.0784 -0.3722
 5659TIP3   OH238467   2.109   5.715   0.304 -0.3891 -0.5570 -0.1115
 5659TIP3    H138468   2.113   5.808   0.328  1.3332 -0.3571 -1.1298
 5659TIP3    H238469   2.089   5.670   0.387  0.2402  0.5822  0.6705
 5660TIP3   OH238470   2.429   5.518   0.246 -0.2904  0.8409  0.3137
 5660TIP3    H138471   2.372   5.455   0.290  1.1076  0.3362  1.4135
 5660TIP3    H238472   2.479   5.465   0.183 -0.4053  1.1527 -0.0474
 5661TIP3   OH238473   5.593   2.258  16.763  0.0199  0.1194 -0.1306
 5661TIP3    H138474   5.535   2.310  16.819  1.1281  0.5952  0.5972
 5661TIP3    H238475   5.666   2.234  16.820  1.1802  0.6289 -1.3860
 5662TIP3   OH238476   1.491   0.647   0.671 -0.3857  0.3082  0.6243
 5662TIP3    H138477   1.422   0.585   0.695 -0.7307  0.7454  0.7802
 5662TIP3    H238478   1.446   0.732   0.667  0.0567  0.5272  0.2967
 5663TIP3   OH238479   5.804   3.267  15.399 -0.5399 -0.1723 -0.4299
 5663TIP3    H138480   5.783   3.360  15.396  0.9993  0.1823 -0.8499
 5663TIP3    H238481   5.721   3.222  15.383 -1.1611  1.1410 -0.9033
 5664TIP3   OH238482   4.686   1.891  13.951 -0.3330 -0.2942  0.3432
 5664TIP3    H138483   4.631   1.966  13.932 -0.9033 -0.9778 -0.7403
 5664TIP3    H238484   4.766   1.905  13.901 -0.4446 -0.4086  0.1327
 5665TIP3   OH238485   0.969   1.621  15.725  0.3924  0.1796 -0.2991
 5665TIP3    H138486   1.027   1.573  15.785 -1.2385 -1.0725  0.3069
 5665TIP3    H238487   0.894   1.645  15.780 -0.6525 -0.0958 -1.5960
 5666TIP3   OH238488   1.892   3.248   5.321 -0.3590 -0.0506  0.8369
 5666TIP3    H138489   1.807   3.236   5.363  0.0931 -3.0769  1.0649
 5666TIP3    H238490   1.949   3.281   5.390 -1.5262  2.8615  0.4522
 5667TIP3   OH238491   3.027   3.657  13.519 -0.5635  0.5202  0.5259
 5667TIP3    H138492   3.047   3.674  13.427 -0.7420 -0.0570  0.3813
 5667TIP3    H238493   2.940   3.694  13.532 -0.7310  0.1834  0.3459
 5668TIP3   OH238494   6.135   2.455  12.062  0.8792 -0.0499  0.1043
 5668TIP3    H138495   6.054   2.465  12.011  1.6060 -1.0053 -1.3012
 5668TIP3    H238496   6.200   2.429  11.997  2.3063  0.6395  1.2333
 5669TIP3   OH238497   0.607   3.650   0.020 -0.6581  0.0325 -0.3495
 5669TIP3    H138498   0.670   3.685  -0.044  0.6168 -1.1327  0.2265
 5669TIP3    H238499   0.616   3.707   0.096  0.0531 -0.4056 -0.0984
 5670TIP3   OH238500   2.831   0.484   5.669  0.5875 -0.0900  0.2778
 5670TIP3    H138501   2.888   0.418   5.629 -0.6075 -0.6445 -0.5517
 5670TIP3    H238502   2.822   0.552   5.601 -1.1390 -0.8490 -0.2913
 5671TIP3   OH238503   6.597   1.219   1.049 -0.2683 -0.0446  0.3218
 5671TIP3    H138504   6.636   1.146   1.097  0.4504  0.0749 -0.0840
 5671TIP3    H238505   6.573   1.182   0.964  2.1883  0.7403 -0.7414
 5672TIP3   OH238506   6.559   5.528  11.129 -0.9055  0.1365  0.4354
 5672TIP3    H138507   6.496   5.478  11.076 -0.0614  0.2107 -0.6649
 5672TIP3    H238508   6.523   5.617  11.132 -1.2492 -0.0045  0.4549
 5673TIP3   OH238509   2.703   3.745  15.998  0.3342 -0.1143 -0.4155
 5673TIP3    H138510   2.785   3.772  16.039 -0.0934 -0.5617  0.7334
 5673TIP3    H238511   2.634   3.782  16.053 -0.2505 -2.0171  0.1771
 5674TIP3   OH238512   0.094   5.924  12.671  0.3886 -0.1734  0.1040
 5674TIP3    H138513   0.169   5.979  12.693  0.8795 -1.3585  1.4283
 5674TIP3    H238514   0.019   5.983  12.674  0.8320  0.3162  2.0980
 5675TIP3   OH238515   5.506   1.691   0.698  0.6168 -0.2962 -0.0521
 5675TIP3    H138516   5.480   1.681   0.607  3.4308  1.0180 -1.0375
 5675TIP3    H238517   5.493   1.785   0.716  0.8122 -0.4073  0.6830
 5676TIP3   OH238518   5.289   2.635   0.032 -0.3319 -0.0647 -0.2814
 5676TIP3    H138519   5.261   2.721   0.065  1.6156  0.0372  1.1910
 5676TIP3    H238520   5.312   2.585   0.110  0.2827 -1.3139 -1.2321
 5677TIP3   OH238521   5.615   3.497  11.542 -0.7137  0.7325  0.1529
 5677TIP3    H138522   5.522   3.517  11.534 -0.6372  0.1595 -2.7430
 5677TIP3    H238523   5.660   3.571  11.501 -0.0746 -0.6493 -1.7278
 5678TIP3   OH238524   2.136   3.677  10.447  0.0609 -0.3475  0.1096
 5678TIP3    H138525   2.097   3.746  10.500  0.9793 -0.2510  0.6713
 5678TIP3    H238526   2.202   3.721  10.393  1.5726 -0.9478  1.4125
 5679TIP3   OH238527   4.366   3.328  15.028 -0.2515  0.1355  0.7902
 5679TIP3    H138528   4.278   3.302  15.053  0.0618 -0.7449  1.0090
 5679TIP3    H238529   4.423   3.267  15.075  0.4049 -0.3712 -0.6373
 5680TIP3   OH238530   6.002   0.940  14.263  0.6487 -0.5012 -0.3605
 5680TIP3    H138531   5.954   0.913  14.342 -1.1583 -0.6655 -1.4740
 5680TIP3    H238532   6.079   0.883  14.262  0.3307 -0.9988  0.9056
 5681TIP3   OH238533   5.912   6.540  13.056 -0.9097  0.6871  0.3429
 5681TIP3    H138534   5.937   6.450  13.036 -0.9389  0.5141  1.0747
 5681TIP3    H238535   5.838   6.558  12.999 -0.8177  0.2892  0.0985
 5682TIP3   OH238536   6.199   5.984  13.618 -0.2561 -0.3334 -0.3953
 5682TIP3    H138537   6.143   6.058  13.643 -0.2811 -0.5489  0.2027
 5682TIP3    H238538   6.188   5.921  13.689  2.1606  0.4005  0.6760
 5683TIP3   OH238539   0.208   1.374   3.859  0.5929 -0.1102 -0.1966
 5683TIP3    H138540   0.229   1.324   3.780  2.9130 -0.5707  0.6518
 5683TIP3    H238541   0.172   1.310   3.920  1.2067 -0.2761  0.0000
 5684TIP3   OH238542   5.419   2.944   2.048  0.0053  0.0824  0.1947
 5684TIP3    H138543   5.437   2.938   1.954  1.0585 -0.3589  0.4220
 5684TIP3    H238544   5.323   2.945   2.054 -0.0634  0.8274 -0.9255
 5685TIP3   OH238545   4.602   1.951   4.087  0.0071  0.0599  0.2479
 5685TIP3    H138546   4.521   1.939   4.137  0.1801 -0.4494  0.4133
 5685TIP3    H238547   4.590   2.033   4.040 -0.9028 -0.3958 -0.3085
 5686TIP3   OH238548   6.156   6.335   1.218  0.6266 -0.9151 -0.0911
 5686TIP3    H138549   6.191   6.405   1.273  0.0718  0.5211 -1.5547
 5686TIP3    H238550   6.227   6.270   1.215  1.8880  0.4421 -0.2719
 5687TIP3   OH238551   1.405   1.412  12.442  0.2037 -0.4411 -0.7771
 5687TIP3    H138552   1.363   1.453  12.367 -0.9811 -0.6576 -0.2511
 5687TIP3    H238553   1.483   1.464  12.458  0.1331 -0.0261 -1.7723
 5688TIP3   OH238554   0.303   6.596  11.913 -0.8678 -0.2888 -0.7148
 5688TIP3    H138555   0.291   6.521  11.971 -1.1389  0.1799 -0.1668
 5688TIP3    H238556   0.357   6.562  11.841  0.6733 -0.5019  0.5180
 5689TIP3   OH238557   6.230   2.674   0.139  0.0159  0.1726  0.1595
 5689TIP3    H138558   6.272   2.723   0.068  0.0558  0.1621  0.1757
 5689TIP3    H238559   6.302   2.629   0.183 -0.1380 -0.7362 -0.4999
 5690TIP3   OH238560   5.356   0.461  15.269 -0.5984 -0.2753 -0.5447
 5690TIP3    H138561   5.451   0.451  15.277 -0.9788 -3.1227  0.9913
 5690TIP3    H238562   5.341   0.473  15.175  1.2406 -0.1566 -0.8449
 5691TIP3   OH238563   0.618   3.792  16.834  0.0809  0.2597  0.1666
 5691TIP3    H138564   0.540   3.753  16.793 -0.7231  1.0823  0.9013
 5691TIP3    H238565   0.610   3.885  16.814  1.5015  0.1988 -0.7616
 5692TIP3   OH238566   5.170   5.535  14.414  0.1092 -0.4974 -0.1620
 5692TIP3    H138567   5.112   5.568  14.346  0.6282 -0.6236 -0.6692
 5692TIP3    H238568   5.155   5.593  14.489 -0.5608 -0.4465 -0.3410
 5693TIP3   OH238569   0.367   5.664   3.745  0.2702  0.3000  0.3151
 5693TIP3    H138570   0.409   5.713   3.815 -0.1409  0.1475  0.6718
 5693TIP3    H238571   0.432   5.662   3.675  0.4621  0.9514  0.4711
 5694TIP3   OH238572   5.018   2.967  16.486 -0.7655  0.6053 -0.5031
 5694TIP3    H138573   4.923   2.981  16.483 -0.6311  1.4918 -0.8381
 5694TIP3    H238574   5.048   3.023  16.557 -0.4599  0.5127 -0.5601
 5695TIP3   OH238575   5.596   5.528   6.983 -0.4932  0.4126  0.0230
 5695TIP3    H138576   5.678   5.564   6.948 -0.6238  1.0011  0.3205
 5695TIP3    H238577   5.576   5.454   6.925 -0.1715  0.7511 -0.5298
 5696TIP3   OH238578   4.246   5.565   5.255  0.5145 -0.5576  0.1690
 5696TIP3    H138579   4.259   5.494   5.192  0.4937 -0.2914 -0.1300
 5696TIP3    H238580   4.331   5.609   5.259  0.9848 -1.5308  1.4877
 5697TIP3   OH238581   3.717   2.728  14.651 -0.3989  0.7088 -0.3590
 5697TIP3    H138582   3.746   2.795  14.714 -1.6373  1.4130 -0.5313
 5697TIP3    H238583   3.796   2.706  14.602  0.2448  1.2821  0.4029
 5698TIP3   OH238584   0.594   5.398  12.854  0.3293 -0.3806 -0.1683
 5698TIP3    H138585   0.508   5.378  12.816 -0.0880  0.0013  0.5613
 5698TIP3    H238586   0.643   5.316  12.848 -0.2210 -0.7039 -0.2301
 5699TIP3   OH238587   3.004   1.165   1.770 -0.1886  0.7087 -0.3632
 5699TIP3    H138588   3.003   1.258   1.749 -0.4921  0.3794 -1.8604
 5699TIP3    H238589   2.912   1.138   1.759 -0.0405  0.1660 -0.2558
 5700TIP3   OH238590   5.785   5.201   5.652 -0.1201  0.4209  0.1644
 5700TIP3    H138591   5.698   5.170   5.629  0.5420 -0.3168 -1.3794
 5700TIP3    H238592   5.835   5.122   5.672  1.0221  0.6117 -1.8552
 5701TIP3   OH238593   2.564   1.553   2.236 -0.3509 -0.4038 -0.3360
 5701TIP3    H138594   2.612   1.481   2.276  1.3898  1.0062  0.1845
 5701TIP3    H238595   2.514   1.512   2.165 -0.0411 -2.2266  0.4627
 5702TIP3   OH238596   2.147   5.089   1.648 -0.7710  0.0337 -0.1304
 5702TIP3    H138597   2.159   5.000   1.682 -2.4694 -0.0765  0.2109
 5702TIP3    H238598   2.102   5.136   1.719 -2.8023  0.2602 -1.5215
 5703TIP3   OH238599   3.854   6.144   5.500  0.1881 -0.6424 -0.2761
 5703TIP3    H138600   3.801   6.073   5.537 -0.5717  0.8041  1.4836
 5703TIP3    H238601   3.852   6.129   5.405 -3.2981 -0.7191 -0.2496
 5704TIP3   OH238602   1.137   4.983   0.229 -0.3007 -0.2351 -0.0676
 5704TIP3    H138603   1.177   4.896   0.233  1.5766  0.5984 -0.4382
 5704TIP3    H238604   1.118   5.005   0.321  2.0847  0.2553  0.3345
 5705TIP3   OH238605   3.883   0.278   0.276 -0.3086  0.2772  0.0589
 5705TIP3    H138606   3.794   0.245   0.264  0.3261 -1.2203 -0.5847
 5705TIP3    H238607   3.907   0.249   0.364 -0.9840  1.9689  0.8291
 5706TIP3   OH238608   2.785   1.551  12.884  0.4721 -0.3111  0.1830
 5706TIP3    H138609   2.801   1.632  12.932  3.3374 -2.1960  2.5934
 5706TIP3    H238610   2.844   1.555  12.809 -0.9593  0.7711 -0.8975
 5707TIP3   OH238611   3.573   3.000   5.089 -0.1052  0.1987 -0.1815
 5707TIP3    H138612   3.615   3.023   5.006 -1.3513  0.1557 -0.8284
 5707TIP3    H238613   3.589   2.906   5.099  0.3341  0.2683 -0.1921
 5708TIP3   OH238614   2.391   6.431  13.797 -0.4962  0.3504 -0.8671
 5708TIP3    H138615   2.416   6.385  13.878  0.8090  2.3766 -0.0873
 5708TIP3    H238616   2.389   6.362  13.730  1.3467 -0.8625  0.2853
 5709TIP3   OH238617   3.713   4.358   4.668 -0.5017 -0.1829  0.2376
 5709TIP3    H138618   3.781   4.328   4.728 -1.2780 -2.0290  0.2041
 5709TIP3    H238619   3.761   4.404   4.599  0.4771  1.0552  1.6880
 5710TIP3   OH238620   1.535   0.400  16.326 -0.4031 -0.4018 -0.8436
 5710TIP3    H138621   1.597   0.378  16.256 -1.8663 -1.4308 -1.8465
 5710TIP3    H238622   1.449   0.382  16.288 -1.2947  0.4252  0.7424
 5711TIP3   OH238623   5.811   2.701  12.371  0.3480  0.2106 -0.3851
 5711TIP3    H138624   5.818   2.780  12.426 -2.3709 -0.9092  1.6623
 5711TIP3    H238625   5.877   2.642  12.406 -0.0350  0.2436  0.3994
 5712TIP3   OH238626   0.051   5.487   1.984 -0.2788 -0.2430 -0.7316
 5712TIP3    H138627  -0.003   5.500   2.062 -0.0061 -3.3273  0.0379
 5712TIP3    H238628  -0.011   5.469   1.914 -0.4501  1.0729 -0.9341
 5713TIP3   OH238629   0.670   4.923   4.113  0.5323  0.2296  0.0095
 5713TIP3    H138630   0.576   4.918   4.133  0.6321  0.2765  0.5040
 5713TIP3    H238631   0.680   4.873   4.033  0.0015  0.6392 -0.3226
 5714TIP3   OH238632   6.113   4.489  12.379 -0.5117  0.2134  0.7135
 5714TIP3    H138633   6.063   4.569  12.393 -1.7023 -0.2825 -0.5142
 5714TIP3    H238634   6.049   4.428  12.342  1.2257 -0.1099 -1.8662
 5715TIP3   OH238635   2.325   5.208  16.507  0.0310  0.0032  0.2166
 5715TIP3    H138636   2.404   5.159  16.486  0.4447  0.8597 -0.2564
 5715TIP3    H238637   2.336   5.292  16.462  0.4197  1.4487  2.8849
 5716TIP3   OH238638   2.879   3.136   3.568 -0.2689 -0.4263 -0.6250
 5716TIP3    H138639   2.903   3.118   3.477 -1.7320 -0.3121 -1.0429
 5716TIP3    H238640   2.932   3.212   3.592  0.9132 -1.1023 -1.0310
 5717TIP3   OH238641   4.033   2.755  12.362  0.1076  0.3642 -0.8373
 5717TIP3    H138642   4.105   2.791  12.414 -0.5421  0.0812  0.2949
 5717TIP3    H238643   4.074   2.690  12.305  0.6917 -0.1614  0.1616
 5718TIP3   OH238644   1.947   5.784   1.547 -0.4149  0.1221  0.0749
 5718TIP3    H138645   1.931   5.721   1.617  0.3860 -0.9318 -0.6910
 5718TIP3    H238646   2.037   5.768   1.519 -1.0196 -0.0883 -1.8202
 5719TIP3   OH238647   1.731   2.652  15.492  0.1475 -0.2002 -0.2308
 5719TIP3    H138648   1.676   2.604  15.554 -1.5516  0.7531 -0.9753
 5719TIP3    H238649   1.794   2.587  15.461 -0.7364 -1.3894  0.4196
 5720TIP3   OH238650   1.039   5.873  12.714 -0.2239 -0.2463  0.0841
 5720TIP3    H138651   1.086   5.895  12.633  1.3905  0.0363  1.0731
 5720TIP3    H238652   0.947   5.894  12.696  0.1993  0.2390 -1.5103
 5721TIP3   OH238653   1.978   6.712  13.148 -0.0897 -0.4385  0.7018
 5721TIP3    H138654   2.017   6.799  13.139  1.4466 -1.3757 -2.2805
 5721TIP3    H238655   1.885   6.725  13.128  0.5384  0.1782 -1.9713
 5722TIP3   OH238656   1.926   3.981   2.391 -0.3264  0.5517  0.4361
 5722TIP3    H138657   1.911   3.987   2.297  0.5391 -1.8629  0.1189
 5722TIP3    H238658   2.000   4.039   2.407 -0.5499  1.0650 -0.3588
 5723TIP3   OH238659   1.920   0.850  15.660 -0.4881 -0.2168 -0.1974
 5723TIP3    H138660   1.913   0.838  15.755 -0.9549 -0.9933 -0.3321
 5723TIP3    H238661   1.990   0.790  15.634  0.0590  0.4352 -0.2656
 5724TIP3   OH238662   3.169   2.002   1.121 -0.0211 -0.0128  0.4817
 5724TIP3    H138663   3.159   2.072   1.057  1.3447  0.2233  0.5233
 5724TIP3    H238664   3.224   1.937   1.078  0.5160 -0.0629  1.2376
 5725TIP3   OH238665   3.711   5.208   4.141 -0.0067  0.0251  0.8730
 5725TIP3    H138666   3.747   5.148   4.075 -1.0018  2.1123 -1.6519
 5725TIP3    H238667   3.788   5.248   4.182  0.6163 -1.1072  0.8307
 5726TIP3   OH238668   5.911   0.940   3.799  0.4905 -0.1793  0.0127
 5726TIP3    H138669   5.822   0.966   3.777  0.8477  0.8802 -0.1920
 5726TIP3    H238670   5.941   0.888   3.724  0.6289  0.8546 -0.6483
 5727TIP3   OH238671   0.647   1.165   3.860  0.2286  0.3085  0.0071
 5727TIP3    H138672   0.642   1.255   3.893  0.2028 -0.2289  1.4999
 5727TIP3    H238673   0.566   1.124   3.891  0.1061 -0.1479 -0.9077
 5728TIP3   OH238674   1.136   2.791   1.984  0.9984  0.7731  0.2018
 5728TIP3    H138675   1.177   2.786   2.070 -1.2373 -0.8680  1.2217
 5728TIP3    H238676   1.157   2.707   1.942 -2.3862 -0.7353  1.3101
 5729TIP3   OH238677   0.607   3.452   3.803 -0.0991  0.2437 -0.1379
 5729TIP3    H138678   0.536   3.387   3.805 -0.4981  0.6712 -0.2969
 5729TIP3    H238679   0.687   3.400   3.799 -0.4478 -0.2355 -1.0105
 5730TIP3   OH238680   3.181   4.430   5.214  0.0709 -0.2733  0.3772
 5730TIP3    H138681   3.164   4.469   5.129  2.9296  0.0011 -0.0828
 5730TIP3    H238682   3.122   4.477   5.274  1.2909  2.6593 -0.6807
 5731TIP3   OH238683   1.859   6.391  13.290 -0.6517 -0.2329 -0.8063
 5731TIP3    H138684   1.872   6.296  13.288 -2.1779 -0.4535 -0.7372
 5731TIP3    H238685   1.933   6.426  13.240  1.0862 -1.3039  0.9529
 5732TIP3   OH238686   0.207   6.597   4.741 -0.0382 -0.0412  0.5299
 5732TIP3    H138687   0.124   6.623   4.701 -0.2619  0.6501  1.4188
 5732TIP3    H238688   0.243   6.679   4.776  0.8727 -0.3859  0.4218
 5733TIP3   OH238689   3.439   0.233   5.463  0.1223 -0.0858 -0.5943
 5733TIP3    H138690   3.439   0.327   5.443  0.1007 -0.2046 -1.1655
 5733TIP3    H238691   3.528   0.214   5.490 -0.5926  0.7103  2.4874
 5734TIP3   OH238692   3.268   1.576  15.242  0.4535 -0.0771  0.0772
 5734TIP3    H138693   3.285   1.670  15.254 -1.2182  0.6213 -2.4907
 5734TIP3    H238694   3.203   1.555  15.309  1.1346  0.5009  0.9276
 5735TIP3   OH238695   6.563   5.330  13.094  0.0695 -0.3922 -0.0564
 5735TIP3    H138696   6.652   5.308  13.066  0.9845  0.9879  1.7173
 5735TIP3    H238697   6.570   5.416  13.134 -2.5650  0.9480 -2.3058
 5736TIP3   OH238698   2.286   2.029  16.160  0.5720  0.0059  0.1055
 5736TIP3    H138699   2.260   1.993  16.075  0.1584  0.4861  0.0258
 5736TIP3    H238700   2.217   2.001  16.220  1.1008 -0.7152  0.3767
 5737TIP3   OH238701   2.184   1.513   6.296  0.0141 -0.2402  0.6498
 5737TIP3    H138702   2.274   1.513   6.266 -0.3508  0.5744 -0.4958
 5737TIP3    H238703   2.155   1.603   6.284 -0.4743 -0.1493  2.4709
 5738TIP3   OH238704   0.980   5.926   5.346 -0.1269  0.0406  0.7231
 5738TIP3    H138705   0.954   5.958   5.433 -0.5276 -0.2867  0.7268
 5738TIP3    H238706   1.019   5.840   5.363 -0.1652 -0.0047  0.5822
 5739TIP3   OH238707   1.729   1.919  12.998 -0.3621 -0.1076 -0.0799
 5739TIP3    H138708   1.773   1.892  12.918 -0.6618  0.3107 -0.3833
 5739TIP3    H238709   1.664   1.850  13.015  1.2324 -1.3887  1.0447
 5740TIP3   OH238710   6.675   2.525   3.824 -0.1110  0.6225 -0.6221
 5740TIP3    H138711   6.631   2.609   3.832  0.3864  0.7361  1.1697
 5740TIP3    H238712   6.766   2.548   3.803  0.2885  0.5935  1.0109
 5741TIP3   OH238713   6.252   4.201   0.461  0.3841  0.1837 -0.2698
 5741TIP3    H138714   6.249   4.111   0.492  0.4899  0.7433  1.4168
 5741TIP3    H238715   6.327   4.204   0.401  0.3708 -0.8435 -0.3393
 5742TIP3   OH238716   0.567   3.298   2.725  0.4413 -0.7782  0.5136
 5742TIP3    H138717   0.584   3.266   2.636 -0.6416 -0.3804  0.1518
 5742TIP3    H238718   0.491   3.248   2.754  0.8884 -1.0091  1.2731
 5743TIP3   OH238719   2.346   0.156   3.782 -0.8231  0.1197 -0.0066
 5743TIP3    H138720   2.372   0.228   3.725 -2.7969  1.1020  0.2705
 5743TIP3    H238721   2.253   0.144   3.764 -1.2178 -0.2922  2.1698
 5744TIP3   OH238722   3.022   6.083   0.589 -0.2294 -0.5341 -0.5439
 5744TIP3    H138723   2.977   5.999   0.580 -0.9451 -0.0751 -1.3464
 5744TIP3    H238724   3.040   6.111   0.499 -0.1719  0.2519 -0.2925
 5745TIP3   OH238725   3.545   1.204   4.173 -0.2263  0.3738  0.1879
 5745TIP3    H138726   3.557   1.127   4.229 -1.0535 -0.3465 -0.6059
 5745TIP3    H238727   3.522   1.274   4.234  0.3025 -0.0596  0.8976
 5746TIP3   OH238728   2.618   0.444  15.913 -0.5857 -0.1431 -0.4100
 5746TIP3    H138729   2.669   0.525  15.921  0.8876 -1.0428 -0.4240
 5746TIP3    H238730   2.620   0.422  15.820  0.4028 -1.0473 -0.1874
 5747TIP3   OH238731   3.226   3.259  11.988  0.1551  0.0483  0.4317
 5747TIP3    H138732   3.228   3.170  11.954  0.8515 -0.0929  0.8355
 5747TIP3    H238733   3.140   3.268  12.028 -0.4579  0.0236 -0.8355
 5748TIP3   OH238734   1.207   2.835   3.424  0.0434 -0.2397 -0.0753
 5748TIP3    H138735   1.154   2.883   3.488 -0.2219  1.4660 -1.5102
 5748TIP3    H238736   1.145   2.805   3.358  0.6905  1.0743 -1.3465
 5749TIP3   OH238737   2.652   3.587   0.546  0.2554 -0.5776  0.0613
 5749TIP3    H138738   2.745   3.594   0.567  0.3262  1.5849 -0.8779
 5749TIP3    H238739   2.614   3.543   0.622  2.0753 -1.7897  0.3156
 5750TIP3   OH238740   5.673   5.388  15.194 -0.3693 -0.0054 -0.0013
 5750TIP3    H138741   5.727   5.345  15.261 -1.7042 -2.1681 -0.2532
 5750TIP3    H238742   5.718   5.470  15.176  1.9518 -1.0097  0.9781
 5751TIP3   OH238743   2.575   6.688   5.544 -0.0384  0.0392  0.3510
 5751TIP3    H138744   2.595   6.622   5.478  1.0587 -0.2349  0.9331
 5751TIP3    H238745   2.546   6.638   5.620  1.3880  0.1733  1.0000
 5752TIP3   OH238746   1.260   0.592  17.072  0.2804 -0.5340 -0.1838
 5752TIP3    H138747   1.295   0.665  17.125 -0.8386 -1.1271  1.4129
 5752TIP3    H238748   1.257   0.627  16.983  1.4647  0.7664  0.2594
 5753TIP3   OH238749   1.072   6.369  16.021 -0.3751 -0.0389  0.4323
 5753TIP3    H138750   1.111   6.447  15.982 -0.8644  0.4992  0.9979
 5753TIP3    H238751   0.996   6.402  16.068 -0.5484 -0.8555  0.7277
 5754TIP3   OH238752   2.729   3.926   4.714 -0.0086  0.1004 -0.6458
 5754TIP3    H138753   2.787   3.999   4.736  0.9537 -0.7566 -0.2999
 5754TIP3    H238754   2.780   3.872   4.654 -0.9278  0.0105 -1.3556
 5755TIP3   OH238755   3.548   0.310   2.212  0.2010 -0.0689 -0.0608
 5755TIP3    H138756   3.474   0.272   2.259 -0.3805  1.8642  0.6148
 5755TIP3    H238757   3.624   0.259   2.242 -0.8696 -2.2913 -1.0288
 5756TIP3   OH238758   1.230   6.091   3.421  0.5472 -0.1182 -0.7264
 5756TIP3    H138759   1.305   6.031   3.417 -0.4916 -1.4725 -0.4258
 5756TIP3    H238760   1.158   6.037   3.453 -0.6300  1.1020 -1.2589
 5757TIP3   OH238761   4.496   3.434  17.115 -0.4978 -0.3821  0.3360
 5757TIP3    H138762   4.406   3.431  17.082 -1.1928 -0.0663  2.1326
 5757TIP3    H238763   4.489   3.476  17.201  1.5057  0.5539  0.0808
 5758TIP3   OH238764   1.300   5.429   4.740 -0.1244 -0.2610 -0.7571
 5758TIP3    H138765   1.206   5.439   4.726 -0.3791 -2.5169 -0.9286
 5758TIP3    H238766   1.325   5.504   4.793 -2.2022 -0.1313  0.0790
 5759TIP3   OH238767   5.618   1.611   0.057  0.6718 -0.2621  0.3265
 5759TIP3    H138768   5.589   1.659   0.134  2.0135  1.3487 -0.1472
 5759TIP3    H238769   5.704   1.576   0.082  0.0194 -1.8366  0.4158
 5760TIP3   OH238770   1.124   5.033   6.049  0.1971 -0.8853  0.2206
 5760TIP3    H138771   1.214   5.063   6.042  0.9061 -2.8693  0.6504
 5760TIP3    H238772   1.091   5.074   6.129  0.2894  0.8390 -0.5924
 5761TIP3   OH238773   1.939   3.879  10.548  0.1128  0.7131  0.4251
 5761TIP3    H138774   1.956   3.819  10.621 -1.1359  0.4142  0.4856
 5761TIP3    H238775   1.917   3.962  10.590  0.6242  0.8872  0.3579
 5762TIP3   OH238776   4.526   0.180  11.197  0.4342 -0.1306  0.2910
 5762TIP3    H138777   4.494   0.209  11.111 -0.4538 -0.5643  0.4646
 5762TIP3    H238778   4.609   0.226  11.208 -0.5879  1.8208  0.2432
 5763TIP3   OH238779   3.807   2.877   2.351  0.3391 -0.5307 -0.1974
 5763TIP3    H138780   3.854   2.959   2.338  0.3852 -0.2484  1.6276
 5763TIP3    H238781   3.715   2.901   2.347  0.3252  0.0925  2.9421
 5764TIP3   OH238782   4.172   2.211  16.923 -0.2433  0.2711 -0.2899
 5764TIP3    H138783   4.248   2.247  16.967 -1.5729  0.0618  2.2782
 5764TIP3    H238784   4.111   2.190  16.993 -2.8171  0.7337 -2.2880
 5765TIP3   OH238785   0.078   5.703   5.611  0.2411 -0.3026  0.8641
 5765TIP3    H138786   0.120   5.787   5.594 -0.4944  0.0524  0.7657
 5765TIP3    H238787   0.104   5.679   5.700  0.1970  0.1801  1.0038
 5766TIP3   OH238788   5.423   0.187   1.533  0.0614 -0.0191  0.3672
 5766TIP3    H138789   5.416   0.269   1.583  2.4826 -0.4165  1.4634
 5766TIP3    H238790   5.461   0.214   1.449  1.7922 -0.0847  1.0928
 5767TIP3   OH238791   5.746   5.966  13.029 -0.2247 -0.6526  0.2235
 5767TIP3    H138792   5.733   5.978  12.935 -0.6641 -0.2735  0.3338
 5767TIP3    H238793   5.775   6.052  13.060  2.8448 -1.5227 -0.0658
 5768TIP3   OH238794   6.801   5.641   0.692  0.0952  0.3069  0.2479
 5768TIP3    H138795   6.786   5.637   0.786 -0.4474 -1.4665  0.1116
 5768TIP3    H238796   6.718   5.615   0.653  1.2743 -2.3636 -0.6311
 5769TIP3   OH238797   3.141   6.719  11.875 -0.0924  0.1649  0.1185
 5769TIP3    H138798   3.212   6.782  11.883  1.1634 -1.1816 -0.0418
 5769TIP3    H238799   3.171   6.643  11.926 -1.7334 -0.1459  0.6341
 5770TIP3   OH238800   3.639   1.373  13.516 -0.0479  0.2010  0.7661
 5770TIP3    H138801   3.631   1.403  13.426  0.9329  1.9366  1.2189
 5770TIP3    H238802   3.629   1.453  13.569 -1.4102 -0.9026  2.2403
 5771TIP3   OH238803   4.038   0.085  15.787 -0.2047 -0.0362 -0.0197
 5771TIP3    H138804   4.131   0.066  15.783 -0.4727 -1.1708 -0.8926
 5771TIP3    H238805   3.995   0.007  15.752 -1.6092 -0.5236  2.6244
 5772TIP3   OH238806   2.690   6.480   4.659 -0.3537 -0.4181  0.5743
 5772TIP3    H138807   2.653   6.397   4.688 -0.1387 -0.8262 -0.2904
 5772TIP3    H238808   2.676   6.480   4.564  3.1666 -1.2675 -0.0173
 5773TIP3   OH238809   3.015   3.991  15.664 -0.5061  0.0004 -0.1792
 5773TIP3    H138810   2.944   3.983  15.601 -0.3236 -0.5339 -0.3196
 5773TIP3    H238811   2.973   3.974  15.749 -0.7216  0.5770 -0.1660
 5774TIP3   OH238812   6.430   1.238  12.483 -0.0103 -0.1079  0.0112
 5774TIP3    H138813   6.438   1.226  12.577 -1.5568  0.6374  0.2408
 5774TIP3    H238814   6.336   1.247  12.467  0.3266  0.9336 -1.4516
 5775TIP3   OH238815   0.343   3.462   2.861  0.1263  0.3290  0.2370
 5775TIP3    H138816   0.387   3.392   2.908 -0.3635  0.4199  0.8343
 5775TIP3    H238817   0.393   3.472   2.780 -0.5788 -1.6124 -0.4677
 5776TIP3   OH238818   0.826   6.347  16.825 -0.2883 -0.1926 -0.7247
 5776TIP3    H138819   0.782   6.282  16.770  0.6921  0.7281 -2.6535
 5776TIP3    H238820   0.915   6.353  16.788  0.6251 -0.0602  1.4172
 5777TIP3   OH238821   0.315   1.570   2.138 -0.1122  0.5956  0.3898
 5777TIP3    H138822   0.377   1.640   2.116  0.6751 -0.3067 -0.2910
 5777TIP3    H238823   0.229   1.611   2.128  0.3478  1.6174  0.5212
 5778TIP3   OH238824   4.040   0.619   0.563  0.5007 -0.4085  0.0850
 5778TIP3    H138825   3.983   0.665   0.502  0.6026  0.3120  0.5237
 5778TIP3    H238826   3.981   0.588   0.632  0.4669 -0.7131 -0.0828
 5779TIP3   OH238827   4.989   3.247   2.528 -0.0369  0.1284 -0.2001
 5779TIP3    H138828   4.969   3.187   2.600  1.3546  1.4807  1.3543
 5779TIP3    H238829   4.905   3.287   2.507 -0.5596 -0.6897  0.2725
 5780TIP3   OH238830   0.508   5.445   6.017 -0.2453  0.1188 -0.6011
 5780TIP3    H138831   0.518   5.531   5.976 -0.7251  0.1703 -0.6101
 5780TIP3    H238832   0.441   5.401   5.965 -1.5820  0.5560  0.7083
 5781TIP3   OH238833   4.979   5.478  15.167 -0.2414  0.0477  0.4691
 5781TIP3    H138834   4.974   5.515  15.256 -1.7016  0.6093  0.1710
 5781TIP3    H238835   4.889   5.484  15.134  0.3243 -0.0377 -1.0973
 5782TIP3   OH238836   6.300   1.209   1.158  0.0061 -0.1571  0.5982
 5782TIP3    H138837   6.367   1.254   1.210 -0.8089  0.4370  1.1449
 5782TIP3    H238838   6.282   1.129   1.207 -0.4406  0.1904  1.0131
 5783TIP3   OH238839   0.050   6.551  15.620  0.5919  0.3693  0.4841
 5783TIP3    H138840   0.052   6.458  15.643 -0.7748 -0.4371 -2.3854
 5783TIP3    H238841  -0.037   6.580  15.649  0.4962  0.3969  0.1722
 5784TIP3   OH238842   6.481   2.729  16.410  0.3828  0.2855  0.2733
 5784TIP3    H138843   6.495   2.774  16.493 -0.0995  1.2261 -0.1558
 5784TIP3    H238844   6.564   2.684  16.393  0.5160  0.1733  1.2016
 5785TIP3   OH238845   1.824   6.681   3.823  0.3979 -0.4535  0.3760
 5785TIP3    H138846   1.764   6.615   3.788 -0.0615 -1.6544  3.3012
 5785TIP3    H238847   1.767   6.752   3.852  0.5213 -0.7966  1.4742
 5786TIP3   OH238848   6.546   0.963   6.460  0.1119  0.0667  0.1225
 5786TIP3    H138849   6.556   0.956   6.555  1.9135  2.0116  0.1183
 5786TIP3    H238850   6.526   1.056   6.445 -0.4462 -0.2888 -1.3729
 5787TIP3   OH238851   3.588   6.505  17.124 -0.5015 -0.5497  0.0389
 5787TIP3    H138852   3.615   6.588  17.084  0.4671 -0.6348  0.5053
 5787TIP3    H238853   3.662   6.446  17.111 -0.7990 -1.0561  0.5813
 5788TIP3   OH238854   5.550   1.249   4.938  0.2838 -0.2872  0.3128
 5788TIP3    H138855   5.537   1.165   4.894 -2.2067 -1.2974  2.7739
 5788TIP3    H238856   5.467   1.265   4.983  0.5249  3.7914 -0.5234
 5789TIP3   OH238857   5.422   3.015   5.713 -0.8311 -0.4664 -0.2361
 5789TIP3    H138858   5.411   3.069   5.792 -1.1707  1.1140 -1.3337
 5789TIP3    H238859   5.418   2.925   5.745 -2.6218  0.1314  1.3538
 5790TIP3   OH238860   4.619   3.571  12.233 -0.3681  0.3287 -0.2106
 5790TIP3    H138861   4.675   3.571  12.311 -1.6234  0.4853  0.7068
 5790TIP3    H238862   4.657   3.504  12.176 -0.1115 -0.5961  1.0300
 5791TIP3   OH238863   6.097   0.476   0.228 -0.3339 -0.0516 -0.1499
 5791TIP3    H138864   6.087   0.441   0.140 -0.9616  0.6201 -0.3503
 5791TIP3    H238865   6.009   0.473   0.266  0.3037 -2.3200  1.2168
 5792TIP3   OH238866   2.457   2.581   5.459  0.3239 -0.4381  0.7272
 5792TIP3    H138867   2.372   2.591   5.502 -0.6768  1.6757 -1.6209
 5792TIP3    H238868   2.499   2.508   5.505 -2.5290 -1.1701  2.2843
 5793TIP3   OH238869   3.251   2.924   1.719 -0.4640  0.0230  0.7435
 5793TIP3    H138870   3.188   2.884   1.779 -0.8986 -0.6697 -0.1468
 5793TIP3    H238871   3.224   2.893   1.632  0.3338  0.7531  0.2192
 5794TIP3   OH238872   0.727   2.867   4.850  0.1105  0.0068 -0.3891
 5794TIP3    H138873   0.676   2.890   4.927  1.0646  0.5081  0.0944
 5794TIP3    H238874   0.691   2.921   4.780  1.1770  1.7242  0.3542
 5795TIP3   OH238875   3.833   6.316   4.167 -0.5301  0.6090 -0.2278
 5795TIP3    H138876   3.763   6.363   4.214 -0.9052  1.1683 -1.3158
 5795TIP3    H238877   3.842   6.364   4.085  1.2641  0.6305 -0.0227
 5796TIP3   OH238878   2.586   0.904   4.238 -0.0765  0.3616  0.2001
 5796TIP3    H138879   2.518   0.958   4.279 -1.1631 -0.3586 -0.6213
 5796TIP3    H238880   2.643   0.879   4.311 -1.1074  0.3649  1.0241
 5797TIP3   OH238881   6.487   1.363   1.365 -0.0047 -0.0330 -0.1334
 5797TIP3    H138882   6.565   1.415   1.382  0.6602 -0.6651 -1.1924
 5797TIP3    H238883   6.520   1.274   1.349 -1.1204 -0.8284  1.7668
 5798TIP3   OH238884   0.475   0.523  13.977 -0.3092 -0.8306 -0.5926
 5798TIP3    H138885   0.403   0.485  13.926 -0.6815  0.5143 -1.0870
 5798TIP3    H238886   0.478   0.471  14.057 -2.2479 -0.5116 -0.2889
 5799TIP3   OH238887   1.975   3.366  12.876 -0.0735 -0.5383 -1.1041
 5799TIP3    H138888   1.961   3.425  12.802  0.3713 -0.7135 -1.3287
 5799TIP3    H238889   1.924   3.288  12.853  0.3175 -0.7164 -1.3763
 5800TIP3   OH238890   5.460   1.992  12.801  0.3364 -0.6086 -0.2260
 5800TIP3    H138891   5.534   2.047  12.828 -0.4556 -0.0264  0.7319
 5800TIP3    H238892   5.441   2.020  12.711 -1.7838  2.5629  1.1516
 5801TIP3   OH238893   2.853   3.338  16.176 -0.1961 -0.5070  0.5108
 5801TIP3    H138894   2.827   3.314  16.265 -0.8436 -0.3701  0.3625
 5801TIP3    H238895   2.794   3.288  16.119 -2.9335  2.8226  0.2033
 5802TIP3   OH238896   5.604   6.089  11.799  0.2863 -1.2623  0.4571
 5802TIP3    H138897   5.675   6.047  11.750  0.9044  0.4008 -0.0927
 5802TIP3    H238898   5.530   6.088  11.738  0.6703 -0.4049 -0.0291
 5803TIP3   OH238899   1.925   1.937  12.764  0.0864 -0.0544 -0.3422
 5803TIP3    H138900   1.871   1.892  12.699 -0.7097  2.5804 -1.5864
 5803TIP3    H238901   2.007   1.955  12.718  0.1272  0.3949 -0.0977
 5804TIP3   OH238902   5.548   1.269  11.737 -0.3868  0.3975  0.5302
 5804TIP3    H138903   5.611   1.226  11.679  0.1876  1.1733  0.5621
 5804TIP3    H238904   5.554   1.220  11.819 -2.3162 -1.6736 -0.5092
 5805TIP3   OH238905   4.067   4.707  17.096 -0.2330  0.3693 -0.5761
 5805TIP3    H138906   4.081   4.741  17.008  0.6830  0.1844 -0.4996
 5805TIP3    H238907   3.996   4.643  17.086 -0.7791  1.0316 -1.0111
 5806TIP3   OH238908   0.831   5.273   5.408  0.0308 -0.4774 -0.2209
 5806TIP3    H138909   0.831   5.278   5.504 -0.3973  0.5955 -0.2753
 5806TIP3    H238910   0.913   5.315   5.382 -1.2726  2.0464 -0.4482
 5807TIP3   OH238911   6.283   1.021   0.619  0.3099 -0.1205 -0.3405
 5807TIP3    H138912   6.197   1.004   0.658  0.8142 -1.1100  0.3731
 5807TIP3    H238913   6.339   1.046   0.692  0.9755 -0.8418 -0.5870
 5808TIP3   OH238914   5.315   5.746   2.300  0.1679 -0.1237  0.2143
 5808TIP3    H138915   5.296   5.785   2.385  0.7595  1.9828 -0.5797
 5808TIP3    H238916   5.246   5.779   2.243  0.6479 -0.2723 -0.4629
 5809TIP3   OH238917   0.106   2.471  13.490 -0.1472 -0.0659 -0.1728
 5809TIP3    H138918   0.148   2.554  13.468 -0.3307  0.0405 -0.1233
 5809TIP3    H238919   0.028   2.468  13.435 -0.3520 -0.0198  0.1168
 5810TIP3   OH238920   5.155   5.420   5.500  0.3959  0.1677 -0.4669
 5810TIP3    H138921   5.090   5.398   5.566 -0.0431  0.1283 -0.9082
 5810TIP3    H238922   5.227   5.358   5.515 -0.3173 -0.7924 -0.9399
 5811TIP3   OH238923   3.647   3.157   2.394 -0.0539 -0.0392  0.0258
 5811TIP3    H138924   3.646   3.093   2.322  0.2260 -0.7758  0.6630
 5811TIP3    H238925   3.643   3.103   2.474  6.4688  0.2156  0.8508
 5812TIP3   OH238926   5.095   6.036   2.438  0.4930  0.2299  0.0708
 5812TIP3    H138927   5.003   6.029   2.415  0.4420 -0.5596  0.4837
 5812TIP3    H238928   5.099   6.011   2.530  0.8177  2.4090  0.6926
 5813TIP3   OH238929   3.418   4.141   0.520  0.8053  0.0211  0.2595
 5813TIP3    H138930   3.371   4.158   0.601 -0.3580 -0.6209 -0.2706
 5813TIP3    H238931   3.498   4.194   0.527 -0.6140  2.1586  0.5902
 5814TIP3   OH238932   6.175   5.664  16.746 -0.4156 -0.2653  0.3813
 5814TIP3    H138933   6.179   5.571  16.723 -0.8049 -0.5462  1.4324
 5814TIP3    H238934   6.264   5.696  16.729 -0.6042 -0.5249 -1.1958
 5815TIP3   OH238935   3.208   0.722  15.108 -0.0928  0.2983 -0.3764
 5815TIP3    H138936   3.261   0.642  15.108 -0.3777  0.0599  2.3468
 5815TIP3    H238937   3.272   0.793  15.118 -0.0405  0.2150 -0.1047
 5816TIP3   OH238938   1.396   6.372  13.644 -0.3371  0.5983  0.7213
 5816TIP3    H138939   1.467   6.392  13.584 -1.5515  1.7598 -0.3666
 5816TIP3    H238940   1.432   6.307  13.704  1.5989  1.1344  0.1521
 5817TIP3   OH238941   1.690   4.294  16.120  0.2786  0.3598  0.1554
 5817TIP3    H138942   1.726   4.232  16.056 -0.7649 -0.4438  0.3367
 5817TIP3    H238943   1.624   4.343  16.071  0.4375  0.6879  0.2680
 5818TIP3   OH238944   3.948   6.057   0.745  0.2700 -0.3659 -0.1175
 5818TIP3    H138945   4.009   6.130   0.735 -1.0208  0.8207  0.4790
 5818TIP3    H238946   3.923   6.059   0.837 -0.9983 -0.5588 -0.4480
 5819TIP3   OH238947   6.034   5.418   6.263 -0.0138  0.2481  0.2394
 5819TIP3    H138948   6.018   5.369   6.183  1.4315  0.7061 -0.3566
 5819TIP3    H238949   6.022   5.509   6.238  1.8067  0.4901  0.1612
 5820TIP3   OH238950   3.433   6.507   2.606  0.1602 -0.0018 -0.1212
 5820TIP3    H138951   3.388   6.540   2.528 -0.5953  0.2571  0.4174
 5820TIP3    H238952   3.365   6.458   2.654 -0.0208  1.8268  1.5558
 5821TIP3   OH238953   3.613   3.293   6.202 -0.1863 -0.0648 -0.1016
 5821TIP3    H138954   3.700   3.325   6.180  0.2103 -0.8726  0.2813
 5821TIP3    H238955   3.554   3.347   6.150  0.3917  2.1253  1.4751
 5822TIP3   OH238956   6.190   4.378   2.035  0.0547 -0.5679  0.6377
 5822TIP3    H138957   6.200   4.463   2.078 -2.1101  0.0708 -0.0738
 5822TIP3    H238958   6.192   4.398   1.941  1.3387 -1.5462  0.4358
 5823TIP3   OH238959   5.069   0.859  12.395 -0.3615 -0.0671  0.6247
 5823TIP3    H138960   5.117   0.939  12.418 -0.4939  0.3441 -0.5107
 5823TIP3    H238961   5.082   0.801  12.470  1.6285  0.1774  0.4953
 5824TIP3   OH238962   3.776   5.273  11.660 -0.3865 -0.7603 -0.0473
 5824TIP3    H138963   3.845   5.237  11.715  1.2543  0.9520 -0.9331
 5824TIP3    H238964   3.796   5.367  11.654 -1.1258 -0.7353 -2.6979
 5825TIP3   OH238965   4.881   6.810   2.845  0.4608 -0.5931  0.8034
 5825TIP3    H138966   4.939   6.829   2.919 -0.7525 -1.7770  2.1108
 5825TIP3    H238967   4.925   6.740   2.796  1.0115 -0.1945  0.7374
 5826TIP3   OH238968   0.416   4.882   2.080  0.2014  0.5969 -0.2585
 5826TIP3    H138969   0.465   4.950   2.034  2.0319 -0.7005 -0.2659
 5826TIP3    H238970   0.398   4.920   2.166  2.2039  0.6824  0.1468
 5827TIP3   OH238971   2.618   6.435   0.673  0.7562 -0.5656 -0.0151
 5827TIP3    H138972   2.693   6.380   0.651  0.7671 -0.5935  0.0923
 5827TIP3    H238973   2.542   6.383   0.651  0.7650 -0.6782  0.2182
 5828TIP3   OH238974   4.729   1.752  14.503 -0.2386  0.3340 -0.4098
 5828TIP3    H138975   4.694   1.677  14.454 -1.1553  0.8488 -0.5615
 5828TIP3    H238976   4.702   1.828  14.451 -0.8411  0.8607  0.6695
 5829TIP3   OH238977   6.468   0.661   4.691 -0.7626  0.0506 -0.5780
 5829TIP3    H138978   6.531   0.702   4.632 -0.8232  1.5164  0.3540
 5829TIP3    H238979   6.462   0.721   4.766 -2.4313 -0.6126 -0.1533
 5830TIP3   OH238980   3.548   0.399   3.785  0.0377  0.6327  0.1300
 5830TIP3    H138981   3.623   0.453   3.759  0.7298 -0.0339  0.6992
 5830TIP3    H238982   3.473   0.438   3.741  0.7520  1.2117 -0.5750
 5831TIP3   OH238983   1.449   0.656   1.075 -0.0495  0.0277 -0.3030
 5831TIP3    H138984   1.510   0.716   1.033 -0.6853  1.3682  0.6551
 5831TIP3    H238985   1.364   0.678   1.038 -0.6020  1.1531  1.5861
 5832TIP3   OH238986   2.546   5.467   5.959 -0.1116  0.3373 -0.1792
 5832TIP3    H138987   2.603   5.542   5.939 -1.1310  0.6817 -1.8083
 5832TIP3    H238988   2.592   5.421   6.030  1.7260  1.1352 -0.8204
 5833TIP3   OH238989   1.383   3.990  15.416 -0.0652  0.1519  0.8599
 5833TIP3    H138990   1.428   4.056  15.469 -1.9884  0.2150  2.5045
 5833TIP3    H238991   1.373   4.030  15.330  1.0578  0.9749  1.1008
 5834TIP3   OH238992   2.770   6.229  11.231  0.3896  0.0205 -0.2426
 5834TIP3    H138993   2.686   6.185  11.238  0.3367  0.2891  1.0597
 5834TIP3    H238994   2.819   6.179  11.166 -0.7118 -0.2262 -0.8961
 5835TIP3   OH238995   6.242   6.089   4.885  0.4384 -0.7673  0.0784
 5835TIP3    H138996   6.153   6.094   4.852 -0.1548 -1.0097  1.6062
 5835TIP3    H238997   6.245   6.150   4.959  1.3090 -1.3098  0.5134
 5836TIP3   OH238998   0.248   3.106  12.483 -1.0174  0.1380  0.4386
 5836TIP3    H138999   0.321   3.132  12.426 -1.4733  0.1851 -0.1264
 5836TIP3    H239000   0.286   3.038  12.539 -0.6709 -0.2042 -0.1994
 5837TIP3   OH239001   4.584   1.081   1.466 -0.3350 -0.1530 -0.4723
 5837TIP3    H139002   4.527   1.040   1.531  1.0947 -0.4211  0.6300
 5837TIP3    H239003   4.596   1.014   1.399  0.3128 -0.8084  0.2933
 5838TIP3   OH239004   6.463   1.676  12.647  0.2603 -0.1367  0.1007
 5838TIP3    H139005   6.492   1.636  12.565  1.2463 -0.8963  0.8023
 5838TIP3    H239006   6.367   1.670  12.644  0.1959  1.1874 -1.6456
 5839TIP3   OH239007   2.266   4.928   2.400  0.4100 -0.1250  0.3309
 5839TIP3    H139008   2.262   4.841   2.361 -1.7079  0.8776 -1.7699
 5839TIP3    H239009   2.215   4.920   2.481  1.6081 -1.2292  0.9969
 5840TIP3   OH239010   1.074   6.788   3.801  0.0756  0.2663  0.3212
 5840TIP3    H139011   1.056   6.831   3.885 -0.2211 -1.1351  0.9838
 5840TIP3    H239012   1.063   6.858   3.736 -0.4957  1.1716  1.3650
 5841TIP3   OH239013   3.183   5.589  12.356 -0.0331  0.3921  0.1872
 5841TIP3    H139014   3.250   5.656  12.341  0.1264 -0.0825 -1.3910
 5841TIP3    H239015   3.109   5.616  12.301 -0.2383 -0.3409  0.0955
 5842TIP3   OH239016   3.352   1.858  11.544  0.6458 -0.6129  0.3286
 5842TIP3    H139017   3.286   1.886  11.480  0.5096 -1.5214  0.0679
 5842TIP3    H239018   3.384   1.940  11.582  0.8103 -0.0582 -0.9813
 5843TIP3   OH239019   2.331   6.763   4.813 -0.1757  0.1947  0.0840
 5843TIP3    H139020   2.404   6.714   4.850 -0.7699 -0.6572  0.1458
 5843TIP3    H239021   2.333   6.847   4.858  2.5849  1.3565 -2.0282
 5844TIP3   OH239022   5.735   3.855   4.469 -0.8562 -0.6397  0.0946
 5844TIP3    H139023   5.708   3.764   4.458  1.1390 -1.2859  0.2960
 5844TIP3    H239024   5.831   3.851   4.477 -0.6815  1.5219 -0.4829
 5845TIP3   OH239025   4.578   2.501   1.272 -0.3636 -0.1628  0.0877
 5845TIP3    H139026   4.574   2.406   1.267 -0.8681 -0.0863 -1.0025
 5845TIP3    H239027   4.527   2.532   1.198  1.0111  0.9594 -0.4141
 5846TIP3   OH239028   2.846   2.178  13.338  0.1834 -0.1163 -0.0797
 5846TIP3    H139029   2.776   2.166  13.274 -0.5100 -0.3306  0.7124
 5846TIP3    H239030   2.805   2.228  13.409  0.6749 -0.7570  0.6569
 5847TIP3   OH239031   4.200   5.081  13.268  0.2308 -0.6941 -0.0685
 5847TIP3    H139032   4.131   5.143  13.241  1.2051  0.1275 -0.7040
 5847TIP3    H239033   4.258   5.132  13.323  0.2523 -1.4412  0.6166
 5848TIP3   OH239034   4.953   2.625  16.168 -0.3243  0.0114 -0.0076
 5848TIP3    H139035   5.027   2.583  16.125  0.2296 -0.3686  1.2965
 5848TIP3    H239036   4.954   2.590  16.257  0.3745  3.0284  1.2459
 5849TIP3   OH239037   3.689   0.985   3.996 -0.2270  0.0595 -0.0794
 5849TIP3    H139038   3.734   0.983   4.080  0.6539  0.2338 -0.5402
 5849TIP3    H239039   3.632   1.063   4.001 -0.0848  0.1414  0.2992
 5850TIP3   OH239040   4.465   3.370  12.588  0.2112  0.4939 -0.4852
 5850TIP3    H139041   4.477   3.434  12.658  1.7672 -2.5787  2.2281
 5850TIP3    H239042   4.373   3.377  12.565 -2.0234 -2.3365  6.1832
 5851TIP3   OH239043   4.127   6.537   4.614  0.3920  0.0639  0.1967
 5851TIP3    H139044   4.103   6.505   4.527  1.0474  1.2773 -0.4417
 5851TIP3    H239045   4.093   6.470   4.674 -0.9682 -0.2821 -0.9199
 5852TIP3   OH239046   5.220   3.705  12.137  0.5689 -1.0207  0.2827
 5852TIP3    H139047   5.292   3.686  12.077  1.7725  1.4324  0.8916
 5852TIP3    H239048   5.258   3.692  12.225  0.2610  0.2148  0.6038
 5853TIP3   OH239049   6.705   2.436   0.338 -1.1524  0.2737 -0.1000
 5853TIP3    H139050   6.762   2.375   0.291  0.6636  0.6932  1.4589
 5853TIP3    H239051   6.663   2.382   0.405 -0.4802  0.4746  0.4941
 5854TIP3   OH239052   6.455   4.826   5.749 -0.2051  0.1774  0.1112
 5854TIP3    H139053   6.416   4.871   5.674 -0.7025 -1.4229 -0.6109
 5854TIP3    H239054   6.546   4.813   5.725 -0.5945 -1.2108 -0.6456
 5855TIP3   OH239055   1.066   0.225   3.706  0.0455  0.4627  0.2249
 5855TIP3    H139056   1.008   0.288   3.664 -0.5440 -1.4575 -1.9737
 5855TIP3    H239057   1.154   0.260   3.692 -0.3856  1.9328  1.0602
 5856TIP3   OH239058   5.318   5.104  12.877 -0.3763  0.1042  0.2270
 5856TIP3    H139059   5.331   5.011  12.858 -1.4706  0.0701 -0.3409
 5856TIP3    H239060   5.301   5.107  12.971 -0.8266 -0.3189  0.1595
 5857TIP3   OH239061   1.822   2.153  14.397 -0.4124 -0.1966  0.3678
 5857TIP3    H139062   1.741   2.104  14.404  0.1470 -1.0159  1.2353
 5857TIP3    H239063   1.847   2.172  14.488  0.5525 -0.2795  0.1341
 5858TIP3   OH239064   2.648   0.236  13.910  0.2067 -0.4018 -0.5420
 5858TIP3    H139065   2.673   0.315  13.863  0.9294  0.5178  1.3390
 5858TIP3    H239066   2.684   0.164  13.857 -1.1287  0.4498 -2.6693
 5859TIP3   OH239067   2.815   3.846  12.593  0.8070 -0.4211 -0.5075
 5859TIP3    H139068   2.798   3.932  12.632 -2.1704 -0.0593 -2.3606
 5859TIP3    H239069   2.781   3.783  12.656  1.8446 -0.1957  0.2913
 5860TIP3   OH239070   0.872   5.815  11.518 -0.2973 -0.3274  0.7634
 5860TIP3    H139071   0.924   5.761  11.577 -1.7667 -0.2497  2.1503
 5860TIP3    H239072   0.806   5.756  11.483  0.1989 -0.2286 -0.3812
 5861TIP3   OH239073   6.077   2.584   1.616  0.0462 -0.2469  0.2910
 5861TIP3    H139074   6.084   2.500   1.663  0.1801 -0.9559 -0.9735
 5861TIP3    H239075   6.134   2.643   1.664  2.3023 -1.6929 -0.5602
 5862TIP3   OH239076   1.288   1.592   4.354  0.7387 -0.9724 -0.5331
 5862TIP3    H139077   1.346   1.530   4.309  2.1629 -0.3635  0.4461
 5862TIP3    H239078   1.326   1.602   4.441 -0.4953 -0.0822 -0.0858
 5863TIP3   OH239079   1.262   0.521   0.727  0.3519  0.5616  0.5928
 5863TIP3    H139080   1.238   0.449   0.785  1.4420  1.2345  1.9128
 5863TIP3    H239081   1.180   0.549   0.687 -0.1286 -1.1727  0.3381
 5864TIP3   OH239082   4.671   2.326  15.274  0.2270  0.5706 -0.2341
 5864TIP3    H139083   4.710   2.286  15.197 -1.1386  0.0526 -0.6582
 5864TIP3    H239084   4.691   2.420  15.265 -0.1833  0.5513 -1.3699
 5865TIP3   OH239085   1.344   0.795  13.685 -0.0609  0.3091  0.4165
 5865TIP3    H139086   1.434   0.780  13.715  0.8537  2.9131 -0.8450
 5865TIP3    H239087   1.291   0.793  13.765  1.4422  1.0582  1.4484
 5866TIP3   OH239088   5.323   1.686   3.276 -0.1732 -0.2415 -0.4759
 5866TIP3    H139089   5.268   1.657   3.349  0.0341  2.4168  0.8102
 5866TIP3    H239090   5.262   1.697   3.203 -1.2931  2.0934  0.7678
 5867TIP3   OH239091   6.181   4.727   6.121  0.2253  0.3052 -0.2500
 5867TIP3    H139092   6.201   4.804   6.067 -2.4296  1.3247  0.1534
 5867TIP3    H239093   6.124   4.673   6.066  1.2888 -0.9303 -0.1638
 5868TIP3   OH239094   5.030   5.408   5.749  0.3560  0.0383  0.2606
 5868TIP3    H139095   5.062   5.413   5.839  0.2930 -0.3259  0.3031
 5868TIP3    H239096   4.943   5.448   5.753  0.3134 -0.0646  0.3815
 5869TIP3   OH239097   1.356   1.612  13.878 -0.3180  0.2670 -0.3938
 5869TIP3    H139098   1.392   1.611  13.967 -1.0439  0.2464 -0.0970
 5869TIP3    H239099   1.396   1.537  13.835  0.4111  0.5546 -0.2370
 5870TIP3   OH239100   5.251   5.307   0.573 -0.1207 -0.1234 -0.1752
 5870TIP3    H139101   5.299   5.276   0.495  2.6435 -1.8916  2.1088
 5870TIP3    H239102   5.275   5.399   0.580 -0.3667  0.0435 -1.4120
 5871TIP3   OH239103   4.531   6.805   5.138 -0.1747  0.2963  0.2680
 5871TIP3    H139104   4.447   6.833   5.176  0.7046  0.6850  1.9743
 5871TIP3    H239105   4.564   6.883   5.094 -0.1547  0.4690  0.5909
 5872TIP3   OH239106   1.069   6.105   4.317  0.3746 -0.4145  0.4607
 5872TIP3    H139107   1.157   6.068   4.320 -0.1430 -1.6671  0.2381
 5872TIP3    H239108   1.082   6.194   4.283  1.7945  0.1845  2.4429
 5873TIP3   OH239109   4.851   0.845  12.644 -0.1244  0.4642  0.4055
 5873TIP3    H139110   4.895   0.827  12.727 -0.5150  2.0720  0.9682
 5873TIP3    H239111   4.913   0.900  12.596 -0.5931  0.8881  0.2934
 5874TIP3   OH239112   2.101   4.427   1.559  0.1588  0.3416  0.4558
 5874TIP3    H139113   2.150   4.368   1.502 -1.5716 -1.2912  0.6138
 5874TIP3    H239114   2.160   4.446   1.631  1.0637 -0.4722 -0.0677
 5875TIP3   OH239115   6.113   2.499  13.330 -0.4059 -0.6993 -0.0049
 5875TIP3    H139116   6.065   2.437  13.385 -0.0110  0.2413  1.4300
 5875TIP3    H239117   6.046   2.534  13.271 -1.3324 -0.0288  1.4076
 5876TIP3   OH239118   5.172   3.312   3.844  0.3884  0.4245  0.0019
 5876TIP3    H139119   5.102   3.309   3.778 -0.9885 -0.1780  1.4717
 5876TIP3    H239120   5.252   3.321   3.792 -0.6405 -0.2555 -1.7733
 5877TIP3   OH239121   4.878   3.946   5.429 -0.5295  0.3168 -0.7523
 5877TIP3    H139122   4.939   4.020   5.435  1.2925 -1.2059  0.1560
 5877TIP3    H239123   4.791   3.985   5.438  0.3218  2.4805 -1.5124
 5878TIP3   OH239124   1.185   5.564  13.584 -0.1462 -0.0320 -0.4868
 5878TIP3    H139125   1.092   5.552  13.603 -0.0689 -0.0991 -0.1568
 5878TIP3    H239126   1.186   5.627  13.512 -0.3727  1.5040  0.8323
 5879TIP3   OH239127   1.738   6.614  11.344 -0.0036  0.1630  0.3635
 5879TIP3    H139128   1.758   6.531  11.301  0.6767  0.1926  0.6083
 5879TIP3    H239129   1.820   6.639  11.386 -0.2499  0.8793  0.4249
 5880TIP3   OH239130   5.593   3.016  16.713  0.0225  0.5348  0.5965
 5880TIP3    H139131   5.677   2.993  16.752 -0.1948 -1.4373 -0.0509
 5880TIP3    H239132   5.583   2.957  16.638 -0.8268  2.3976 -0.8155
 5881TIP3   OH239133   3.970   6.072   6.239  0.1371  0.0938 -0.7200
 5881TIP3    H139134   3.928   5.998   6.283  0.3477 -0.0515 -0.7635
 5881TIP3    H239135   3.969   6.048   6.146  1.7583 -0.6340 -0.5606
 5882TIP3   OH239136   6.400   0.111   4.382  0.0990 -0.2508  0.0794
 5882TIP3    H139137   6.331   0.168   4.346  0.9737  0.5707 -0.3249
 5882TIP3    H239138   6.420   0.050   4.311  2.4173  1.9059 -1.1877
 5883TIP3   OH239139   1.320   3.636   5.616 -0.6063 -0.1523  0.2823
 5883TIP3    H139140   1.232   3.631   5.655 -0.3096 -0.2242  0.9460
 5883TIP3    H239141   1.308   3.693   5.540 -1.5791 -1.5248 -0.6236
 5884TIP3   OH239142   0.436   3.486  12.738 -0.1110  0.1377 -0.0744
 5884TIP3    H139143   0.440   3.580  12.720 -0.8280 -0.2602 -2.5134
 5884TIP3    H239144   0.429   3.480  12.833 -2.2852  2.6226 -0.0210
 5885TIP3   OH239145   0.650   3.761  15.274 -0.2964 -0.4339  0.5776
 5885TIP3    H139146   0.710   3.798  15.210 -0.4941  0.5411  0.9423
 5885TIP3    H239147   0.690   3.781  15.359 -0.3410 -1.1680  0.7690
 5886TIP3   OH239148   6.262   2.872   1.936 -0.3003 -0.3530 -0.4151
 5886TIP3    H139149   6.301   2.785   1.929  0.2083 -0.3115  1.5683
 5886TIP3    H239150   6.329   2.925   1.977 -0.2122  1.2856 -2.5992
 5887TIP3   OH239151   6.623   1.652   3.146 -0.7885 -0.0376 -0.4649
 5887TIP3    H139152   6.678   1.711   3.094 -1.2421  0.7320 -0.0767
 5887TIP3    H239153   6.684   1.586   3.179 -0.3383  0.0092 -1.1884
 5888TIP3   OH239154   4.479   5.114  16.967 -0.0100  0.0397 -0.0574
 5888TIP3    H139155   4.491   5.208  16.983  0.0136  0.0427 -0.0916
 5888TIP3    H239156   4.553   5.089  16.913  0.1191 -0.0521  0.1585
 5889TIP3   OH239157   6.660   6.555   3.855 -0.4487  0.3529 -0.3450
 5889TIP3    H139158   6.670   6.491   3.925 -1.9908 -0.1993 -0.6019
 5889TIP3    H239159   6.569   6.583   3.862  0.1629  2.4301 -0.3279
 5890TIP3   OH239160   3.933   0.837  13.551 -0.7933 -0.3170  0.4671
 5890TIP3    H139161   3.865   0.770  13.544 -0.2096 -0.8848  0.1609
 5890TIP3    H239162   3.932   0.882  13.467  0.1073 -1.2116 -0.0423
 5891TIP3   OH239163   0.460   6.585  11.225  0.1060 -0.0695  0.3131
 5891TIP3    H139164   0.514   6.507  11.227 -0.9163 -0.7940  0.5361
 5891TIP3    H239165   0.387   6.563  11.166 -1.5254 -0.2344  2.3120
 5892TIP3   OH239166   3.621   0.632   2.397  0.4010 -0.0845  0.0692
 5892TIP3    H139167   3.696   0.579   2.426 -0.2865 -0.8706  0.4163
 5892TIP3    H239168   3.595   0.592   2.314 -0.2013 -0.3896  0.3971
 5893TIP3   OH239169   1.467   1.406   4.228 -0.1278  0.5662  0.5529
 5893TIP3    H139170   1.547   1.452   4.252  0.8823 -0.3117 -1.0667
 5893TIP3    H239171   1.493   1.346   4.159 -1.9023 -0.7822  1.0185
 5894TIP3   OH239172   1.907   4.382  12.547 -0.2969  0.0160  0.1982
 5894TIP3    H139173   1.936   4.438  12.619  0.6392 -0.9396  0.5665
 5894TIP3    H239174   1.937   4.426  12.468  0.2018  0.1680  0.4758
 5895TIP3   OH239175   3.394   6.706  17.046  0.1440  0.0094 -0.0994
 5895TIP3    H139176   3.435   6.624  17.074  1.9724  0.6309 -0.8351
 5895TIP3    H239177   3.323   6.679  16.989  1.0868 -1.0619 -0.7899
 5896TIP3   OH239178   5.381   2.192   4.252  0.7858 -0.1370 -0.4083
 5896TIP3    H139179   5.293   2.166   4.225  0.6180  0.1227 -0.1203
 5896TIP3    H239180   5.395   2.277   4.210 -0.2554  1.2205  1.8825
 5897TIP3   OH239181   3.620   1.416   2.865  0.9667  0.1862  0.4443
 5897TIP3    H139182   3.641   1.328   2.835  0.7999  0.3646 -0.2101
 5897TIP3    H239183   3.621   1.410   2.960 -1.2774 -1.0402  0.4188
 5898TIP3   OH239184   5.774   6.523  13.603  0.1775  0.0546 -0.0444
 5898TIP3    H139185   5.795   6.435  13.573  0.8896  0.1314  0.2307
 5898TIP3    H239186   5.835   6.580  13.558 -0.3614  0.4243 -0.3113
 5899TIP3   OH239187   3.009   2.557   2.042 -0.3573  0.4537  0.6311
 5899TIP3    H139188   3.055   2.640   2.029 -1.0117  1.1373  2.4320
 5899TIP3    H239189   3.075   2.490   2.027  0.4865  1.3511  0.3163
 5900TIP3   OH239190   3.659   4.386  16.128  0.6213  0.1661 -0.4718
 5900TIP3    H139191   3.747   4.419  16.108  0.2636  1.6366  0.2925
 5900TIP3    H239192   3.641   4.323  16.058  2.5502 -0.6561 -0.2614
 5901TIP3   OH239193   2.206   0.999   0.943  0.6093  0.2853  0.1507
 5901TIP3    H139194   2.289   0.991   0.988 -0.1329 -1.0232  1.3014
 5901TIP3    H239195   2.140   0.981   1.010 -0.5650  0.3187 -0.9758
 5902TIP3   OH239196   0.059   0.706   4.087 -0.6431  0.4479 -0.1388
 5902TIP3    H139197  -0.033   0.730   4.092 -0.4099  1.2414  0.3555
 5902TIP3    H239198   0.101   0.756   4.157  0.1896  0.2337 -0.4821
 5903TIP3   OH239199   2.271   1.361  14.275  0.0059 -0.3023  0.3909
 5903TIP3    H139200   2.292   1.319  14.359  1.0022 -0.2509  0.1720
 5903TIP3    H239201   2.296   1.453  14.288  0.4200 -0.3516 -0.0541
 5904TIP3   OH239202   3.867   4.444   3.902  0.3336  0.0001  0.2744
 5904TIP3    H139203   3.849   4.401   3.985 -1.4863 -1.5203 -0.8688
 5904TIP3    H239204   3.885   4.373   3.841  3.8852  1.1903 -0.1589
 5905TIP3   OH239205   3.407   5.055   4.051  0.1268 -0.2609  0.4834
 5905TIP3    H139206   3.336   5.091   3.997  1.7242  0.8460 -0.9480
 5905TIP3    H239207   3.410   4.962   4.029 -1.6071 -0.5549  1.4107
 5906TIP3   OH239208   3.189   2.699  12.684  0.0931 -0.2289 -1.0944
 5906TIP3    H139209   3.103   2.703  12.641  0.0817 -0.2136 -1.0702
 5906TIP3    H239210   3.250   2.679  12.613  0.2724  1.2588 -1.3813
 5907TIP3   OH239211   1.763   4.983   3.463  0.7123  0.2660  0.4627
 5907TIP3    H139212   1.713   4.953   3.539 -0.4388 -1.2354 -0.8315
 5907TIP3    H239213   1.791   5.071   3.486  2.5772 -1.0652  3.6550
 5908TIP3   OH239214   4.902   3.513   4.137 -0.3216 -0.0233  0.0095
 5908TIP3    H139215   4.914   3.444   4.201  0.3688 -0.6131 -0.7427
 5908TIP3    H239216   4.848   3.578   4.181 -0.4419 -0.7486  0.9372
 5909TIP3   OH239217   4.458   1.770  14.985 -0.2210  0.4761  0.0575
 5909TIP3    H139218   4.498   1.857  14.973  1.5933 -0.5932 -2.0121
 5909TIP3    H239219   4.504   1.714  14.923 -2.1355 -1.7575  0.5948
 5910TIP3   OH239220   4.485   3.562  15.653  0.1100  0.2546 -0.5880
 5910TIP3    H139221   4.477   3.587  15.561 -0.9631 -1.1758 -0.9046
 5910TIP3    H239222   4.564   3.509  15.657 -0.7154 -1.0570 -1.0347
 5911TIP3   OH239223   1.723   1.571  11.894 -0.2594 -0.3786  0.4821
 5911TIP3    H139224   1.681   1.572  11.808 -0.1873  0.9331  0.4514
 5911TIP3    H239225   1.779   1.649  11.894 -0.6332 -0.0967  1.8929
 5912TIP3   OH239226   6.327   3.627  16.073 -0.2910 -0.8301 -0.2682
 5912TIP3    H139227   6.371   3.620  16.158  2.0378 -1.5907 -1.4889
 5912TIP3    H239228   6.234   3.633  16.095  0.2984 -0.5108  2.3520
 5913TIP3   OH239229   4.291   4.442  12.230 -0.0575  0.1133 -0.3040
 5913TIP3    H139230   4.272   4.418  12.321 -2.1075 -3.3298 -1.5280
 5913TIP3    H239231   4.385   4.461  12.229  0.1710 -0.7334  2.3558
 5914TIP3   OH239232   2.751   1.255   4.122  0.6841  0.4843  0.3384
 5914TIP3    H139233   2.669   1.279   4.080  0.8443 -1.1804 -0.9873
 5914TIP3    H239234   2.726   1.225   4.209 -0.3023 -1.4725 -0.6013
 5915TIP3   OH239235   4.383   0.195  12.393 -0.0874 -0.3531 -0.5459
 5915TIP3    H139236   4.364   0.260  12.326  1.5087 -0.2530 -0.9250
 5915TIP3    H239237   4.339   0.227  12.472 -1.2889 -0.0550 -1.3384
 5916TIP3   OH239238   1.437   5.845  13.204 -0.1697  0.0192  0.4055
 5916TIP3    H139239   1.347   5.815  13.192  0.2612 -0.7400 -1.0173
 5916TIP3    H239240   1.430   5.940  13.215 -0.9300  0.3099 -2.2742
 5917TIP3   OH239241   0.501   0.923  14.398 -0.0861  0.3532  0.4043
 5917TIP3    H139242   0.525   0.833  14.418  1.5609  1.4024  3.3371
 5917TIP3    H239243   0.573   0.956  14.344 -0.9455 -0.1835 -1.1304
 5918TIP3   OH239244   1.398   5.026   0.224 -0.1368  0.1279 -0.1644
 5918TIP3    H139245   1.421   5.114   0.253  0.6757 -0.7441  1.9416
 5918TIP3    H239246   1.305   5.032   0.201 -0.1602  1.4744  0.2162
 5919TIP3   OH239247   4.464   5.023  15.483 -0.5015 -0.3847  0.3205
 5919TIP3    H139248   4.488   4.987  15.398 -0.8806 -0.7166  0.3539
 5919TIP3    H239249   4.451   5.117  15.467  0.1703 -0.3169  0.1711
 5920TIP3   OH239250   3.188   5.640  15.016  0.6005  0.1083 -0.4457
 5920TIP3    H139251   3.129   5.645  15.091  0.8479 -0.4086 -0.2216
 5920TIP3    H239252   3.205   5.732  14.994  1.6164  0.2750  0.9844
 5921TIP3   OH239253   1.935   4.355  15.282 -0.0732 -0.1894  0.4135
 5921TIP3    H139254   1.951   4.389  15.194 -0.7573 -1.0214 -0.0538
 5921TIP3    H239255   1.867   4.412  15.317  0.6475  0.5306  0.6465
 5922TIP3   OH239256   5.019   4.519   3.421  0.0274  0.5911  0.4876
 5922TIP3    H139257   5.042   4.537   3.512 -0.1281 -0.9320  0.8407
 5922TIP3    H239258   5.081   4.452   3.392 -0.5469  0.3497 -0.2192
 5923TIP3   OH239259   0.710   2.821   1.357  0.2315 -0.0052 -0.5440
 5923TIP3    H139260   0.789   2.778   1.389  0.0849  1.9804  2.7467
 5923TIP3    H239261   0.653   2.750   1.327  1.3521 -1.8244  1.5392
 5924TIP3   OH239262   0.578   0.793   1.864  0.6423  0.2234  0.1094
 5924TIP3    H139263   0.520   0.760   1.933  0.3804 -0.3485 -0.3802
 5924TIP3    H239264   0.666   0.766   1.892  0.4163 -1.0270 -0.3522
 5925TIP3   OH239265   5.074   5.402  11.547 -0.1341  0.0473 -0.0674
 5925TIP3    H139266   5.001   5.355  11.506 -0.4526 -0.1877  0.7593
 5925TIP3    H239267   5.041   5.491  11.559 -0.2655 -0.0404  0.2389
 5926TIP3   OH239268   0.723   5.693  15.546  0.1224  0.3929 -0.1019
 5926TIP3    H139269   0.746   5.686  15.638  0.5399  1.3088 -0.1276
 5926TIP3    H239270   0.734   5.786  15.525  2.0979 -0.1417 -1.6059
 5927TIP3   OH239271   2.388   3.533  16.778  0.3194 -0.2213 -0.1127
 5927TIP3    H139272   2.483   3.522  16.769  0.1741 -2.3910  0.6098
 5927TIP3    H239273   2.358   3.449  16.813 -1.8674  0.4679 -0.2801
 5928TIP3   OH239274   5.877   4.522  14.578  0.1452 -0.6557  0.2894
 5928TIP3    H139275   5.956   4.558  14.616 -0.4533 -1.2903  2.1939
 5928TIP3    H239276   5.898   4.430  14.560  0.3933 -0.3858 -0.8593
 5929TIP3   OH239277   1.696   0.479  14.624 -0.8485  0.1140 -0.3251
 5929TIP3    H139278   1.702   0.410  14.558 -1.0480  1.1166 -1.4190
 5929TIP3    H239279   1.736   0.555  14.581  0.7679  0.2747  1.4177
 5930TIP3   OH239280   4.794   5.542   5.803 -0.1999  0.1245  0.2281
 5930TIP3    H139281   4.758   5.457   5.828 -0.4430  0.5339  1.2736
 5930TIP3    H239282   4.749   5.564   5.721  0.1073 -0.8967 -0.2277
 5931TIP3   OH239283   4.289   6.395   3.149  0.2265 -0.1179 -0.3688
 5931TIP3    H139284   4.196   6.409   3.129 -0.0682  0.6098  1.4560
 5931TIP3    H239285   4.324   6.483   3.161  0.0955 -0.5353  3.5524
 5932TIP3   OH239286   6.780   4.746   6.325 -0.4736 -0.4205 -0.1376
 5932TIP3    H139287   6.686   4.759   6.322 -0.9034 -2.8691  1.5899
 5932TIP3    H239288   6.798   4.682   6.256 -0.0642  0.0618 -0.4837
 5933TIP3   OH239289   2.046   2.028   0.044 -0.0685 -0.2284  0.0667
 5933TIP3    H139290   2.099   2.043   0.123 -0.4611 -1.1491  0.5141
 5933TIP3    H239291   2.001   2.111   0.030 -0.5908 -0.2888  1.2780
 5934TIP3   OH239292   3.621   0.618  16.889  0.1318  0.0471 -0.1738
 5934TIP3    H139293   3.689   0.595  16.826 -0.7363  1.5983 -1.7227
 5934TIP3    H239294   3.563   0.677  16.841  0.4338  2.7361  2.6324
 5935TIP3   OH239295   1.824   1.956   1.336  0.5400  0.6518  0.0709
 5935TIP3    H139296   1.775   1.984   1.258  0.6499  0.1664 -0.1724
 5935TIP3    H239297   1.807   2.025   1.400  2.1605  2.1698 -1.0766
 5936TIP3   OH239298   3.705   5.122   2.999  0.0716  0.4341 -0.1079
 5936TIP3    H139299   3.654   5.102   2.920  0.0542 -1.3504  0.3245
 5936TIP3    H239300   3.646   5.100   3.071  0.2290  1.6949  0.4047
 5937TIP3   OH239301   0.058   2.762  14.131  0.3240  0.4207 -0.0550
 5937TIP3    H139302   0.058   2.780  14.225 -0.7828 -0.1429  0.0597
 5937TIP3    H239303   0.032   2.845  14.090 -1.3559  0.0551  0.2672
 5938TIP3   OH239304   2.310   0.325  11.786  0.7358 -0.1408 -0.7486
 5938TIP3    H139305   2.327   0.378  11.708  0.2456 -0.8232 -1.3253
 5938TIP3    H239306   2.396   0.312  11.826  1.1250 -0.6341 -1.7283
 5939TIP3   OH239307   3.366   3.650  17.254 -0.0070  0.1134 -0.4315
 5939TIP3    H139308   3.352   3.555  17.258 -1.3233  0.2818 -1.0201
 5939TIP3    H239309   3.362   3.671  17.161  2.3571  0.4642 -0.5021
 5940TIP3   OH239310   1.721   2.397   2.643 -0.1886  0.4848 -0.0020
 5940TIP3    H139311   1.688   2.390   2.554 -3.0226  0.6025  0.9677
 5940TIP3    H239312   1.669   2.468   2.682  0.3629 -0.1646  1.9973
 5941TIP3   OH239313   4.706   0.383  10.497  0.6788 -0.0297 -0.0759
 5941TIP3    H139314   4.681   0.440  10.424 -0.3076  0.3954  0.5804
 5941TIP3    H239315   4.623   0.347  10.529  1.1944 -0.9177  0.2540
 5942TIP3   OH239316   4.208   0.549   5.642 -0.0807  0.3099  0.3561
 5942TIP3    H139317   4.220   0.614   5.572  0.2695  1.9228  1.8745
 5942TIP3    H239318   4.169   0.474   5.598  3.7783 -0.2727 -2.3417
 5943TIP3   OH239319   0.296   5.324  11.245  0.4251  0.0603 -0.1269
 5943TIP3    H139320   0.305   5.261  11.316  0.4468  0.6514  0.3940
 5943TIP3    H239321   0.203   5.349  11.246  0.5682  0.5878  0.1383
 5944TIP3   OH239322   4.432   0.494  15.214 -0.3660  0.1235  0.1312
 5944TIP3    H139323   4.453   0.556  15.145 -1.2710  0.7863  0.4372
 5944TIP3    H239324   4.511   0.440  15.223  0.3083  1.0110 -0.3668
 5945TIP3   OH239325   0.612   0.877  11.728 -0.1065 -0.3386  0.3269
 5945TIP3    H139326   0.674   0.950  11.723 -1.0480  0.3681 -1.3169
 5945TIP3    H239327   0.649   0.810  11.671 -0.1866 -0.4408  0.3939
 5946TIP3   OH239328   0.662   4.185  15.133 -0.6531 -0.3955  0.5580
 5946TIP3    H139329   0.583   4.237  15.147 -0.5295 -0.5179  1.8053
 5946TIP3    H239330   0.733   4.249  15.130 -0.7101 -0.3474  0.2497
 5947TIP3   OH239331   6.657   2.071  14.056 -0.0548 -0.4641 -0.2702
 5947TIP3    H139332   6.721   2.071  14.127  0.8342  1.9874 -1.0050
 5947TIP3    H239333   6.678   1.993  14.005  1.3589 -0.5138  0.3536
 5948TIP3   OH239334   2.000   0.614  16.555 -0.1996 -0.1786 -0.2720
 5948TIP3    H139335   2.021   0.578  16.641  0.3556 -0.5202 -0.5452
 5948TIP3    H239336   1.932   0.679  16.572 -0.3314 -0.4832  0.3826
 5949TIP3   OH239337   1.788   0.537  15.162 -0.3686  0.1502  0.1532
 5949TIP3    H139338   1.746   0.622  15.149  0.4913  0.5015 -0.4226
 5949TIP3    H239339   1.758   0.483  15.090  0.1552  0.4013 -0.2575
 5950TIP3   OH239340   0.227   5.017   5.462 -0.4205  0.3413 -0.3493
 5950TIP3    H139341   0.317   5.031   5.493 -0.7027  0.1266  0.5967
 5950TIP3    H239342   0.198   4.939   5.508 -1.3678  0.8646 -0.0420
 5951TIP3   OH239343   2.958   3.649   3.919 -0.3290  0.4754  0.1956
 5951TIP3    H139344   3.012   3.595   3.862 -2.3291 -0.2891 -1.0341
 5951TIP3    H239345   2.996   3.639   4.006  0.5591 -1.2787 -0.3921
 5952TIP3   OH239346   6.564   2.374   2.517 -0.0272  0.6084  0.0244
 5952TIP3    H139347   6.485   2.426   2.503  0.4199  1.2189 -0.2201
 5952TIP3    H239348   6.549   2.330   2.601 -0.4537  1.0330  0.1713
 5953TIP3   OH239349   0.666   3.971  12.891  0.7581  0.1636  0.3147
 5953TIP3    H139350   0.629   3.979  12.803 -2.0179 -1.2720  1.2912
 5953TIP3    H239351   0.760   3.967  12.877  0.3849  0.2148 -2.5731
 5954TIP3   OH239352   5.829   5.361  10.776 -0.4297 -0.9902 -0.6586
 5954TIP3    H139353   5.751   5.332  10.728 -2.3385 -0.8211  2.1795
 5954TIP3    H239354   5.863   5.282  10.817  0.1901 -0.8376 -0.8666
 5955TIP3   OH239355   2.270   1.746   5.488 -0.2895 -0.0358 -0.0054
 5955TIP3    H139356   2.183   1.735   5.525 -0.9965  0.0299 -1.6269
 5955TIP3    H239357   2.260   1.815   5.423  0.9254 -0.1925 -0.3695
 5956TIP3   OH239358   5.191   2.374  12.830  0.3299 -0.5539 -0.0860
 5956TIP3    H139359   5.224   2.326  12.906  1.8080  0.3761 -0.1285
 5956TIP3    H239360   5.120   2.427  12.864 -0.0302 -1.2929  0.3404
 5957TIP3   OH239361   2.033   0.648  15.913 -0.0214  0.3342 -0.0913
 5957TIP3    H139362   1.991   0.719  15.962 -1.3101 -0.6586  0.2544
 5957TIP3    H239363   2.048   0.580  15.978  1.2612  0.2998 -0.4182
 5958TIP3   OH239364   2.193   2.266  15.060  0.3765 -0.3942  0.3856
 5958TIP3    H139365   2.188   2.174  15.088  0.6972 -0.6998 -0.5367
 5958TIP3    H239366   2.274   2.271  15.009 -1.2951 -0.3977 -2.3870
 5959TIP3   OH239367   1.044   5.713   3.924 -0.4555 -0.1620  0.0114
 5959TIP3    H139368   0.992   5.634   3.936 -0.7857 -0.3219 -2.1755
 5959TIP3    H239369   1.121   5.700   3.979 -1.2708 -1.2838  0.9054
 5960TIP3   OH239370   4.220   1.911   1.429 -0.2066 -0.1099  0.7860
 5960TIP3    H139371   4.315   1.900   1.429  0.0725  1.9902  1.7302
 5960TIP3    H239372   4.207   2.005   1.444 -2.4317 -0.4059  0.8814
 5961TIP3   OH239373   5.548   2.462  11.579 -0.4366 -0.0331 -0.5119
 5961TIP3    H139374   5.464   2.507  11.574 -1.5823 -2.0031  0.1382
 5961TIP3    H239375   5.570   2.462  11.672 -0.7210 -1.2763 -0.4383
 5962TIP3   OH239376   6.648   5.824  12.487 -0.3479  0.4355  0.1267
 5962TIP3    H139377   6.717   5.869  12.439  1.2005 -1.5845  0.3789
 5962TIP3    H239378   6.612   5.890  12.546 -1.5730  2.6749 -2.9839
 5963TIP3   OH239379   4.052   5.779  13.274 -0.4232 -0.1623  0.1776
 5963TIP3    H139380   4.107   5.849  13.309 -2.9053  1.6892  0.5421
 5963TIP3    H239381   3.994   5.755  13.347  0.0317 -2.2677 -0.1060
 5964TIP3   OH239382   2.599   6.437  15.016  0.0062 -0.7188 -0.4064
 5964TIP3    H139383   2.635   6.469  14.933 -1.2173 -0.6380 -0.9080
 5964TIP3    H239384   2.533   6.501  15.041 -0.5053 -1.3929 -0.0009
 5965TIP3   OH239385   1.202   5.444  13.031 -0.2926 -0.3011 -0.0610
 5965TIP3    H139386   1.295   5.421  13.034 -0.6868 -1.8256  1.2133
 5965TIP3    H239387   1.174   5.421  12.943  0.5764  0.3873 -0.5311
 5966TIP3   OH239388   5.263   5.931  11.630 -0.3978 -0.0198 -0.2985
 5966TIP3    H139389   5.336   5.993  11.622  0.3874 -0.8360  0.4148
 5966TIP3    H239390   5.255   5.891  11.543 -0.0112  0.0963 -0.3869
 5967TIP3   OH239391   2.476   3.605   5.129  0.3699 -0.6825  0.4934
 5967TIP3    H139392   2.400   3.638   5.080  1.0223  0.9004  0.5024
 5967TIP3    H239393   2.549   3.613   5.068  1.0805  0.7500  1.4965
 5968TIP3   OH239394   4.775   2.497   2.292 -0.4609 -0.0014 -0.1371
 5968TIP3    H139395   4.729   2.579   2.278  1.4029  0.7753 -2.1077
 5968TIP3    H239396   4.737   2.436   2.229 -1.0887 -0.3294  0.5589
 5969TIP3   OH239397   1.299   3.913  11.591 -0.3800  0.4890  0.5398
 5969TIP3    H139398   1.244   3.835  11.596 -0.3863  0.3493 -1.4478
 5969TIP3    H239399   1.241   3.980  11.555  0.5057  0.5732 -0.7219
 5970TIP3   OH239400   3.902   3.760  14.823  0.6680 -0.3378  0.2770
 5970TIP3    H139401   3.923   3.849  14.794 -1.0055 -0.7448 -2.4320
 5970TIP3    H239402   3.978   3.732  14.873  1.2382  2.5957  1.1270
 5971TIP3   OH239403   4.812   2.448   4.825 -0.5280  0.2302  0.1515
 5971TIP3    H139404   4.748   2.410   4.766 -1.9828  2.3498  0.3366
 5971TIP3    H239405   4.897   2.431   4.783 -1.1099 -3.1099  0.2093
 5972TIP3   OH239406   2.296   1.897  14.408  0.5191  0.0236  0.6345
 5972TIP3    H139407   2.293   1.801  14.403 -0.7681 -0.0698  2.6677
 5972TIP3    H239408   2.243   1.926  14.334  0.2905 -0.8583  0.4484
 5973TIP3   OH239409   1.856   0.415  12.971 -0.2453  0.3931 -0.6801
 5973TIP3    H139410   1.761   0.418  12.974 -0.2272  1.0420 -0.6912
 5973TIP3    H239411   1.884   0.443  13.059 -0.0607  0.6039 -0.8035
 5974TIP3   OH239412   2.588   1.684   0.484  0.0096  0.2664  0.5445
 5974TIP3    H139413   2.632   1.769   0.473 -0.0332  0.1954 -0.1613
 5974TIP3    H239414   2.583   1.673   0.579 -0.2648  1.2032  0.6472
 5975TIP3   OH239415   4.626   1.017  12.840  0.1485 -0.0292  0.1551
 5975TIP3    H139416   4.705   1.066  12.816  0.7322 -0.3124  1.4129
 5975TIP3    H239417   4.570   1.022  12.763  0.3481  2.2916  0.1053
 5976TIP3   OH239418   0.824   3.040  10.565 -0.5043 -0.6870 -0.2581
 5976TIP3    H139419   0.736   3.077  10.558 -1.5598 -3.1782 -0.5603
 5976TIP3    H239420   0.822   2.960  10.512  1.6675 -1.2835  0.4637
 5977TIP3   OH239421   2.338   5.290   0.391 -0.2307  0.1277  0.2547
 5977TIP3    H139422   2.361   5.208   0.348 -0.8556 -0.5337  1.1573
 5977TIP3    H239423   2.244   5.297   0.380  0.1118  1.8940 -1.8140
 5978TIP3   OH239424   2.808   4.194  16.998  0.1613  0.3907  0.2098
 5978TIP3    H139425   2.719   4.224  17.013  0.6513  1.6128  0.7880
 5978TIP3    H239426   2.822   4.206  16.904 -0.0151  0.9943  0.2552
 5979TIP3   OH239427   5.185   0.759  16.372 -0.3807 -0.3072 -0.0466
 5979TIP3    H139428   5.257   0.788  16.428  0.1468  1.0539 -1.4254
 5979TIP3    H239429   5.186   0.663  16.380 -0.9677 -0.1142  3.0683
 5980TIP3   OH239430   3.088   2.215   0.539 -0.3884  0.3692  0.4483
 5980TIP3    H139431   3.035   2.146   0.579 -1.1000  0.2825 -0.5989
 5980TIP3    H239432   3.082   2.288   0.600 -2.0117  0.4673  0.2011
 5981TIP3   OH239433   0.429   6.786   0.948  0.6281  0.1812 -0.1989
 5981TIP3    H139434   0.428   6.880   0.967  1.3862  0.2307 -0.3669
 5981TIP3    H239435   0.439   6.744   1.033 -0.1221  0.2344 -0.0820
 5982TIP3   OH239436   3.397   4.800   4.010 -0.4176 -0.4031  0.0485
 5982TIP3    H139437   3.310   4.760   4.002  0.3291 -2.0337 -0.1556
 5982TIP3    H239438   3.458   4.730   3.987  0.9753  0.6312  0.4923
 5983TIP3   OH239439   4.112   2.530   2.892 -0.1601  0.5882  0.1822
 5983TIP3    H139440   4.170   2.525   2.816  1.2736  3.3432  1.0823
 5983TIP3    H239441   4.165   2.501   2.965 -0.3211  1.8119  0.7886
 5984TIP3   OH239442   1.507   2.857  17.215  0.5385 -0.0525 -0.0248
 5984TIP3    H139443   1.428   2.804  17.220  0.3044  0.1669 -1.1571
 5984TIP3    H239444   1.507   2.892  17.126  0.5615  2.0205  0.7550
 5985TIP3   OH239445   4.805   1.122  16.018 -0.1682  0.2785 -0.0119
 5985TIP3    H139446   4.780   1.108  15.927 -1.2899 -1.7211  0.5547
 5985TIP3    H239447   4.724   1.151  16.061  0.3556  1.2225  0.3500
 5986TIP3   OH239448   2.675   1.743   0.192  0.3738 -0.3722 -0.0489
 5986TIP3    H139449   2.599   1.689   0.172  1.1532 -1.6134  0.3143
 5986TIP3    H239450   2.656   1.779   0.279 -0.2985  0.2389 -0.4368
 5987TIP3   OH239451   5.010   2.861   6.902  0.3287  0.2171 -0.0417
 5987TIP3    H139452   4.926   2.895   6.872  0.1830  0.2899  0.4586
 5987TIP3    H239453   4.995   2.834   6.992  0.7012 -0.2669 -0.1262
 5988TIP3   OH239454   0.116   1.114   1.310  0.2437 -0.5602  0.0622
 5988TIP3    H139455   0.202   1.155   1.317  0.7921 -1.6589 -0.0598
 5988TIP3    H239456   0.113   1.052   1.383 -0.1799 -1.0041 -0.3272
 5989TIP3   OH239457   5.173   1.415   3.076 -0.3029 -0.3153  0.0700
 5989TIP3    H139458   5.253   1.446   3.035 -0.7075 -0.6195 -0.9512
 5989TIP3    H239459   5.186   1.321   3.088 -1.3185 -0.7361 -1.9865
 5990TIP3   OH239460   1.463   0.348   4.426  0.6250 -0.2016 -0.1495
 5990TIP3    H139461   1.423   0.301   4.500  0.1073  0.3905 -0.0451
 5990TIP3    H239462   1.487   0.433   4.463  1.2711 -0.2716 -0.4139
 5991TIP3   OH239463   3.783   2.240  10.617 -0.4085  0.2666  0.5992
 5991TIP3    H139464   3.801   2.182  10.543 -0.9631 -2.3167  2.4056
 5991TIP3    H239465   3.755   2.322  10.577 -1.3570 -1.2822 -2.0630
 5992TIP3   OH239466   2.445   5.801  14.479  0.1096 -0.4359 -0.0070
 5992TIP3    H139467   2.480   5.732  14.422 -0.0446  0.1755 -0.8452
 5992TIP3    H239468   2.487   5.786  14.563  0.6799 -1.0791 -0.4045
 5993TIP3   OH239469   3.763   1.332  15.860  0.0036  0.0028 -0.7199
 5993TIP3    H139470   3.815   1.389  15.916 -0.1536 -0.0435 -0.5300
 5993TIP3    H239471   3.764   1.375  15.774 -0.9166  0.7805 -0.3414
 5994TIP3   OH239472   1.106   0.863   3.880 -0.1559 -0.6493 -0.1961
 5994TIP3    H139473   1.036   0.922   3.907 -1.5155 -2.5268  0.5067
 5994TIP3    H239474   1.069   0.813   3.808  0.4706 -1.6171  0.1372
 5995TIP3   OH239475   5.211   6.656  15.007  0.1533 -0.0659  0.2372
 5995TIP3    H139476   5.140   6.596  14.982  0.5052  0.0862 -1.1989
 5995TIP3    H239477   5.173   6.743  14.997 -0.3798 -0.0300  2.3948
 5996TIP3   OH239478   2.513   1.119   2.963 -0.2464  0.3789 -0.2644
 5996TIP3    H139479   2.435   1.135   2.910 -1.2481  0.4662  1.1741
 5996TIP3    H239480   2.501   1.176   3.040  0.3606 -0.9070  0.8019
 5997TIP3   OH239481   1.899   0.062  15.236 -0.1139  0.5817  0.5541
 5997TIP3    H139482   1.834   0.047  15.168 -0.5409  1.5731  0.7283
 5997TIP3    H239483   1.964   0.120  15.194  1.8564 -2.1553 -0.3316
 5998TIP3   OH239484   0.371   5.278   1.479 -0.7499  0.3337 -0.0711
 5998TIP3    H139485   0.431   5.297   1.406 -0.4145 -0.1887  0.0661
 5998TIP3    H239486   0.378   5.354   1.536  0.1092  0.0840  0.1605
 5999TIP3   OH239487   0.445   1.183  15.397 -0.0640 -0.6320 -0.4315
 5999TIP3    H139488   0.467   1.266  15.440  1.2744 -0.5108 -1.3201
 5999TIP3    H239489   0.431   1.121  15.469  0.4243 -0.0044  0.2099
 6000TIP3   OH239490   6.067   1.864  16.198  0.0536 -0.8109 -0.4660
 6000TIP3    H139491   6.041   1.882  16.288  2.3624 -0.9903  0.2828
 6000TIP3    H239492   6.060   1.768  16.190  3.1248 -1.1958  0.6683
 6001TIP3   OH239493   6.132   0.939  16.578  0.1446  0.5509  0.3950
 6001TIP3    H139494   6.177   1.012  16.535  0.0649  0.0728 -0.5138
 6001TIP3    H239495   6.149   0.864  16.521 -1.6545  0.3276  0.1250
 6002TIP3   OH239496   1.916   1.166  13.068 -0.5844 -0.1933 -0.0426
 6002TIP3    H139497   1.941   1.078  13.097 -0.2643 -0.7946 -2.1021
 6002TIP3    H239498   1.995   1.218  13.080 -0.6136 -0.3072  0.6750
 6003TIP3   OH239499   4.892   2.514  17.005 -0.0318 -0.1224  0.0635
 6003TIP3    H139500   4.939   2.553  17.078  1.2833 -0.8177 -0.4048
 6003TIP3    H239501   4.891   2.583  16.938  0.8642 -0.3253 -0.1600
 6004TIP3   OH239502   3.878   3.813  13.660  0.3196  0.0670 -0.0544
 6004TIP3    H139503   3.891   3.719  13.674 -0.2174  0.0558  0.3971
 6004TIP3    H239504   3.784   3.826  13.671  0.5943  0.9148  1.4234
 6005TIP3   OH239505   5.054   2.701  17.118 -0.4415  0.0952  0.1295
 6005TIP3    H139506   5.115   2.775  17.108 -1.2206  0.6770 -0.4520
 6005TIP3    H239507   4.996   2.727  17.190 -0.1901 -0.3267  0.4861
 6006TIP3   OH239508   0.710   4.303  11.111 -0.1772  0.0010  0.6707
 6006TIP3    H139509   0.704   4.349  11.195  1.7040 -0.7105  1.2024
 6006TIP3    H239510   0.639   4.239  11.115  0.5880 -0.7656  2.1771
 6007TIP3   OH239511   0.825   3.245  13.722 -0.4607  0.3145  0.5643
 6007TIP3    H139512   0.823   3.164  13.773  0.0404  0.2238  0.4441
 6007TIP3    H239513   0.867   3.308  13.780  0.5235  0.0946  0.1022
 6008TIP3   OH239514   0.078   1.857   5.049 -0.3723 -0.0521  0.2421
 6008TIP3    H139515   0.034   1.847   5.133  0.5677 -0.6988  0.6674
 6008TIP3    H239516   0.086   1.767   5.016 -0.3014  0.1552 -0.3132
 6009TIP3   OH239517   3.946   5.035   5.023  0.2415  1.0187  0.4238
 6009TIP3    H139518   3.974   5.111   4.971  1.2517  1.7493  2.0151
 6009TIP3    H239519   4.028   4.999   5.058 -0.2750 -0.5479  0.0423
 6010TIP3   OH239520   0.068   0.346   4.779  0.2040  0.2678 -0.5408
 6010TIP3    H139521   0.147   0.360   4.726 -0.3233  0.5741 -1.2469
 6010TIP3    H239522   0.002   0.316   4.717 -0.2780  0.1556  0.0258
 6011TIP3   OH239523   5.085   2.012  15.701  0.3595  0.9256  0.6059
 6011TIP3    H139524   5.001   2.057  15.711  0.4318  0.8225  1.8108
 6011TIP3    H239525   5.151   2.082  15.703  0.3395  0.9497  0.3558
 6012TIP3   OH239526   0.133   5.598  15.906  0.0744 -0.3550 -0.0205
 6012TIP3    H139527   0.131   5.668  15.972  1.1091 -0.0001 -0.3507
 6012TIP3    H239528   0.046   5.559  15.910  0.6846 -1.5455  2.8267
 6013TIP3   OH239529   0.667   3.107   0.543  0.0522 -0.1416 -0.0873
 6013TIP3    H139530   0.707   3.189   0.512 -3.2790  1.0774 -1.4027
 6013TIP3    H239531   0.679   3.109   0.638  0.8197  1.4447 -0.1994
 6014TIP3   OH239532   3.348   4.961   2.093  0.1612  0.1809  0.0199
 6014TIP3    H139533   3.262   4.919   2.100 -0.6513  1.6134 -1.0227
 6014TIP3    H239534   3.385   4.927   2.011 -0.3693  1.2000 -0.6677
 6015TIP3   OH239535   3.755   0.447   2.750  0.1897 -0.1166 -0.5965
 6015TIP3    H139536   3.751   0.374   2.812  0.9299  0.4600  0.1465
 6015TIP3    H239537   3.839   0.490   2.769 -0.5977  1.4165 -0.4611
 6016TIP3   OH239538   5.474   3.935   5.184  0.5062 -0.0648 -0.3782
 6016TIP3    H139539   5.564   3.968   5.183  0.5298 -0.1412 -1.0686
 6016TIP3    H239540   5.430   3.985   5.115 -0.0165  0.0791  0.0657
 6017TIP3   OH239541   3.443   2.041  13.971 -0.6293  0.2788 -0.4234
 6017TIP3    H139542   3.440   1.963  14.026 -0.0444  1.8258  1.9102
 6017TIP3    H239543   3.354   2.051  13.937 -1.5662  0.4627  2.0102
 6018TIP3   OH239544   6.382   0.797  14.054  0.2310  0.6475 -0.1817
 6018TIP3    H139545   6.377   0.768  13.963  2.9911  1.2135 -0.5631
 6018TIP3    H239546   6.358   0.719  14.105  3.4926 -1.1635 -1.3034
 6019TIP3   OH239547   5.961   1.077   1.770 -0.0851  0.1997 -0.0290
 6019TIP3    H139548   5.867   1.093   1.780  0.1057  1.9851 -0.8590
 6019TIP3    H239549   6.000   1.164   1.773  1.5405 -0.5218  0.1748
 6020TIP3   OH239550   3.676   2.185  13.638  0.1974  0.2028  0.1307
 6020TIP3    H139551   3.642   2.100  13.666 -0.7986  0.2741 -0.8105
 6020TIP3    H239552   3.750   2.164  13.581  0.0494 -0.0354  0.0236
 6021TIP3   OH239553   4.642   0.334   1.942 -0.4095  0.0887  0.0675
 6021TIP3    H139554   4.714   0.322   1.880 -1.5840  1.5404 -1.6489
 6021TIP3    H239555   4.665   0.280   2.017  0.6310 -2.4256 -1.9951
 6022TIP3   OH239556   2.376   3.654  14.335 -0.0769  0.8954 -0.4468
 6022TIP3    H139557   2.413   3.654  14.423 -1.4275 -0.9238  0.1676
 6022TIP3    H239558   2.363   3.747  14.314 -0.2336  1.3347  1.4894
 6023TIP3   OH239559   2.655   6.419   0.361 -0.2584 -0.0921  0.2017
 6023TIP3    H139560   2.658   6.469   0.279 -0.4668  0.5862  0.6118
 6023TIP3    H239561   2.662   6.485   0.430  0.0949 -0.6789  0.7312
 6024TIP3   OH239562   3.624   3.168   1.163 -0.2637  0.2624  0.3072
 6024TIP3    H139563   3.698   3.186   1.105 -2.3390 -0.0916 -2.5765
 6024TIP3    H239564   3.615   3.073   1.161  1.5631 -0.0762  3.8089
 6025TIP3   OH239565   0.723   0.858  14.926 -0.0014  0.2603  0.0691
 6025TIP3    H139566   0.769   0.940  14.910  0.7855 -0.0999  0.4764
 6025TIP3    H239567   0.764   0.821  15.004 -0.3990 -0.4880 -0.0592
 6026TIP3   OH239568   6.474   1.327   3.880 -0.4935  0.3078  0.1760
 6026TIP3    H139569   6.433   1.325   3.966  0.9954 -1.0591  0.8715
 6026TIP3    H239570   6.568   1.332   3.898 -0.1779  0.3039 -1.3758
 6027TIP3   OH239571   6.020   6.754   6.532  0.1748 -0.1723 -0.0873
 6027TIP3    H139572   6.052   6.674   6.491  0.7114 -0.1578  0.2966
 6027TIP3    H239573   5.940   6.776   6.484 -0.3829 -1.3431  0.2789
 6028TIP3   OH239574   6.344   5.200  14.269  0.1112  0.1471  0.0207
 6028TIP3    H139575   6.373   5.259  14.339 -1.9191  2.4478 -1.0163
 6028TIP3    H239576   6.265   5.158  14.304  1.2010 -1.5606  0.5132
 6029TIP3   OH239577   2.448   3.140  15.261 -0.3828  0.2856 -0.2167
 6029TIP3    H139578   2.390   3.077  15.218  0.6442  0.2757 -1.6231
 6029TIP3    H239579   2.474   3.097  15.343 -0.5856 -0.6441 -0.6375
 6030TIP3   OH239580   1.649   4.167   4.519  0.1634  0.1836  0.4610
 6030TIP3    H139581   1.676   4.196   4.606 -1.7210  0.9313  0.8174
 6030TIP3    H239582   1.571   4.113   4.533  0.0741 -0.0264 -0.7238
 6031TIP3   OH239583   0.245   2.945   2.011 -0.1252  0.5221  0.3218
 6031TIP3    H139584   0.193   2.996   2.072 -1.2011  0.8178 -0.8274
 6031TIP3    H239585   0.305   3.008   1.971 -0.7692  0.7063 -0.3631
 6032TIP3   OH239586   4.272   5.359  16.910 -0.1981 -0.6412  0.4558
 6032TIP3    H139587   4.287   5.409  16.990  0.5509  0.6918 -0.5028
 6032TIP3    H239588   4.356   5.361  16.864 -1.2932  0.8167 -1.5769
 6033TIP3   OH239589   3.631   4.266  13.416  0.1983  0.1429  0.1700
 6033TIP3    H139590   3.629   4.296  13.507  0.4571  1.2762 -0.1866
 6033TIP3    H239591   3.692   4.326  13.372  0.0689 -0.3849 -0.7489
 6034TIP3   OH239592   1.746   2.191  15.245  0.4128  0.2864 -0.1311
 6034TIP3    H139593   1.736   2.150  15.159 -1.2883  0.2577  0.0739
 6034TIP3    H239594   1.833   2.163  15.274 -0.0489 -1.8355 -0.7103
 6035TIP3   OH239595   2.182   4.479   0.503  0.3698 -0.1412  0.3118
 6035TIP3    H139596   2.128   4.508   0.576  0.6954 -2.4670  1.5291
 6035TIP3    H239597   2.180   4.551   0.441 -0.0015  1.8475  2.5785
 6036TIP3   OH239598   1.133   0.407  10.578 -0.5981  0.0538  0.1240
 6036TIP3    H139599   1.126   0.313  10.563  0.0865 -0.2791  1.7634
 6036TIP3    H239600   1.195   0.437  10.511  0.9150 -1.0427  0.9968
 6037TIP3   OH239601   5.046   1.822  11.428 -0.1745 -0.3500  0.6745
 6037TIP3    H139602   4.981   1.762  11.391 -0.9427 -0.0089  1.4547
 6037TIP3    H239603   5.003   1.908  11.426  0.3567 -0.0761  0.9495
 6038TIP3   OH239604   4.067   3.018  15.097  0.2396 -0.6154 -0.0642
 6038TIP3    H139605   4.040   2.939  15.051  0.0405  0.3204 -1.5874
 6038TIP3    H239606   4.131   3.060  15.038 -0.1303  0.6778  0.4316
 6039TIP3   OH239607   6.648   0.278  16.075  0.3083  0.2193 -0.3075
 6039TIP3    H139608   6.719   0.243  16.021 -0.4900 -1.6729 -0.1663
 6039TIP3    H239609   6.691   0.334  16.139  1.5996 -0.3423 -0.6840
 6040TIP3   OH239610   3.955   2.450  12.820  0.3732 -0.0093  0.6203
 6040TIP3    H139611   3.908   2.513  12.875 -0.3841 -0.4544  0.4943
 6040TIP3    H239612   3.963   2.494  12.735 -1.0591 -0.4753  0.2331
 6041TIP3   OH239613   4.227   3.001   4.237 -0.4704  0.0053  0.1107
 6041TIP3    H139614   4.158   2.947   4.275 -1.3412  0.4354 -0.8099
 6041TIP3    H239615   4.213   3.088   4.275 -0.1172 -0.0219  0.3076
 6042TIP3   OH239616   0.229   0.750   1.346 -0.0891  0.0125  0.1129
 6042TIP3    H139617   0.202   0.745   1.254  0.9107  1.3985 -0.2689
 6042TIP3    H239618   0.192   0.833   1.377  0.2880 -0.0513  0.7363
 6043TIP3   OH239619   4.815   3.672   2.756 -0.4696 -0.0900  0.4905
 6043TIP3    H139620   4.739   3.728   2.773  0.2474  0.9054  0.4326
 6043TIP3    H239621   4.845   3.699   2.669  1.7166  1.5714  1.7063
 6044TIP3   OH239622   5.431   2.469  12.605  0.4564  0.1925 -0.5922
 6044TIP3    H139623   5.360   2.462  12.668  0.1325  3.1564 -0.5508
 6044TIP3    H239624   5.510   2.477  12.659  1.0043 -3.9452 -0.6354
 6045TIP3   OH239625   3.151   2.267  13.197  0.2951  0.1541  0.3373
 6045TIP3    H139626   3.135   2.180  13.159 -0.7542  0.0913  0.9105
 6045TIP3    H239627   3.105   2.327  13.139  0.1789  0.2308  0.5090
 6046TIP3   OH239628   5.605   1.667   3.363  0.1896  0.0068  0.4896
 6046TIP3    H139629   5.577   1.644   3.452 -0.4313 -0.6263  0.1432
 6046TIP3    H239630   5.527   1.706   3.323  0.9034  1.6776  0.6932
 6047TIP3   OH239631   5.719   3.460  16.572 -0.4342  0.0185  0.0294
 6047TIP3    H139632   5.775   3.433  16.499 -0.0803  0.0222  0.3041
 6047TIP3    H239633   5.710   3.555  16.562 -0.4618  0.0070 -0.0594
 6048TIP3   OH239634   0.236   5.946  16.478 -0.2384  0.1625 -0.4465
 6048TIP3    H139635   0.179   5.900  16.417 -0.2568  0.2037 -0.4610
 6048TIP3    H239636   0.324   5.938  16.441 -0.2539  0.2141 -0.4953
 6049TIP3   OH239637   6.244   5.360  12.821  0.0516 -0.3113  0.3847
 6049TIP3    H139638   6.210   5.377  12.734  1.3297  2.8463  0.4413
 6049TIP3    H239639   6.249   5.446  12.862  0.0590 -1.6687  3.3700
 6050TIP3   OH239640   3.906   1.642   2.975 -0.0803  0.4572 -0.6948
 6050TIP3    H139641   3.880   1.628   2.884 -1.0563  0.2673 -0.3979
 6050TIP3    H239642   3.851   1.715   3.005 -0.7194 -0.3463  0.1254
 6051TIP3   OH239643   2.677   4.364   1.404  0.3992  0.2999 -0.4031
 6051TIP3    H139644   2.683   4.428   1.334  0.0444  0.5456 -0.2120
 6051TIP3    H239645   2.765   4.326   1.410  0.6798  0.9674 -0.3255
 6052TIP3   OH239646   3.644   0.003   0.629 -0.3851 -0.2926 -0.3996
 6052TIP3    H139647   3.590  -0.008   0.550  0.7394 -0.4464 -1.1682
 6052TIP3    H239648   3.621  -0.072   0.684 -1.9546  0.3891 -0.1171
 6053TIP3   OH239649   6.439   4.939  12.917 -0.2859 -0.1303 -0.1801
 6053TIP3    H139650   6.346   4.920  12.905 -0.2670  0.4368 -1.3399
 6053TIP3    H239651   6.442   5.029  12.949 -0.0959  0.4437 -1.7253
 6054TIP3   OH239652   5.399   6.725   1.209  0.4651 -0.1687 -0.3476
 6054TIP3    H139653   5.330   6.759   1.152 -0.1351 -0.3192  0.2937
 6054TIP3    H239654   5.354   6.697   1.288  1.2052 -0.6695 -0.0972
 6055TIP3   OH239655   4.440   4.834   0.619 -0.1768  0.6637 -0.2490
 6055TIP3    H139656   4.365   4.859   0.674 -0.0511  0.4999  0.0012
 6055TIP3    H239657   4.496   4.782   0.678  0.9427  2.1567  0.0361
 6056TIP3   OH239658   0.029   0.163  13.734  0.0567 -0.1510  0.0441
 6056TIP3    H139659   0.085   0.111  13.791  0.8722  0.0277 -0.5822
 6056TIP3    H239660  -0.058   0.123  13.742  0.5419 -1.2207  0.0353
 6057TIP3   OH239661   5.090   0.738  15.826  0.3946  0.1529  0.1362
 6057TIP3    H139662   5.066   0.828  15.846  1.1845 -0.2860  3.3910
 6057TIP3    H239663   5.166   0.721  15.882 -0.6557 -2.9934  0.7154
 6058TIP3   OH239664   2.654   2.173   1.386 -0.3688 -0.0373  0.0425
 6058TIP3    H139665   2.559   2.177   1.401 -0.6641  0.6217 -1.9070
 6058TIP3    H239666   2.665   2.100   1.325  0.5806 -1.2129  1.5692
 6059TIP3   OH239667   3.390   1.221  12.646 -0.2925  0.3915 -0.0459
 6059TIP3    H139668   3.387   1.147  12.586 -0.5938 -2.5929  3.4473
 6059TIP3    H239669   3.483   1.230  12.667 -0.5110 -0.9089  1.6517
 6060TIP3   OH239670   3.052   4.469  14.033  0.4016 -0.4675 -0.0202
 6060TIP3    H139671   3.135   4.433  14.065  0.7879 -1.0468 -1.5806
 6060TIP3    H239672   3.077   4.548  13.986  0.2155 -1.1414 -1.2979
 6061TIP3   OH239673   5.731   2.102  12.942 -0.2060 -0.1491 -0.4992
 6061TIP3    H139674   5.703   2.147  13.021  0.7185 -0.2181 -0.1309
 6061TIP3    H239675   5.760   2.016  12.972  0.3342 -0.1067 -0.8928
 6062TIP3   OH239676   2.025   1.938   1.596 -0.7015 -0.2235  0.5194
 6062TIP3    H139677   2.073   1.958   1.677 -0.3658 -0.7871  0.4585
 6062TIP3    H239678   2.051   2.008   1.536  2.5222 -2.2366 -0.5548
 6063TIP3   OH239679   2.016   0.535   3.455 -0.2943 -0.3265  0.0564
 6063TIP3    H139680   1.938   0.585   3.430 -0.5797 -0.7985 -0.0025
 6063TIP3    H239681   1.984   0.446   3.470 -0.0021 -0.2004  1.4232
 6064TIP3   OH239682   4.764   0.410  12.105  0.0986  0.2618 -0.7571
 6064TIP3    H139683   4.788   0.408  12.197 -0.6560 -1.7480 -0.5685
 6064TIP3    H239684   4.668   0.414  12.105  0.1587  1.9534 -1.4682
 6065TIP3   OH239685   3.708   2.528  17.057 -0.9447 -0.3193  0.1987
 6065TIP3    H139686   3.716   2.454  16.997 -2.5074 -1.5885  1.5126
 6065TIP3    H239687   3.614   2.538  17.072 -0.6699  0.9266  1.2675
 6066TIP3   OH239688   2.737   5.634  13.029  0.3034 -0.5795  0.3299
 6066TIP3    H139689   2.760   5.571  12.961 -0.8165  0.2162 -0.8098
 6066TIP3    H239690   2.756   5.588  13.111  1.0488 -1.7921 -0.4982
 6067TIP3   OH239691   2.632   5.635  16.373  0.0773  0.3424 -0.3310
 6067TIP3    H139692   2.725   5.646  16.394 -0.1594 -0.4143  1.1540
 6067TIP3    H239693   2.592   5.718  16.399  0.5754  1.2715 -2.4493
 6068TIP3   OH239694   4.154   6.256  12.347 -0.0951 -0.0091 -0.3548
 6068TIP3    H139695   4.078   6.207  12.316  1.0487 -1.9379 -0.1745
 6068TIP3    H239696   4.122   6.305  12.423 -1.5325  0.4332 -1.2203
 6069TIP3   OH239697   5.260   3.612   3.623  0.0638  0.2123 -0.3434
 6069TIP3    H139698   5.178   3.660   3.618  1.0344  1.9295 -0.3481
 6069TIP3    H239699   5.286   3.599   3.532 -0.4884 -0.8500 -0.3534
 6070TIP3   OH239700   1.528   4.194  12.819  0.5314 -0.3242 -0.3437
 6070TIP3    H139701   1.468   4.193  12.894 -0.7076 -1.6952 -1.3235
 6070TIP3    H239702   1.541   4.287  12.800  0.2050  0.0193  1.0449
 6071TIP3   OH239703   0.126   2.655   2.806  0.0563 -0.3350  0.1387
 6071TIP3    H139704   0.104   2.569   2.842 -0.9362 -0.3494 -0.4924
 6071TIP3    H239705   0.196   2.637   2.743 -1.6185 -1.0000 -1.5843
 6072TIP3   OH239706   6.431   5.414   2.711  0.1136  0.2786 -0.4871
 6072TIP3    H139707   6.426   5.495   2.762  0.7442 -0.5558  0.9348
 6072TIP3    H239708   6.393   5.347   2.768  1.8461 -0.8830 -0.6471
 6073TIP3   OH239709   2.987   4.733  15.239  0.0220 -0.2746  0.1669
 6073TIP3    H139710   3.036   4.669  15.290 -0.4121 -0.1412  0.7472
 6073TIP3    H239711   3.054   4.779  15.188  0.6458  0.7385  1.8577
 6074TIP3   OH239712   2.228   5.156   0.648  0.2396  0.0568  0.1489
 6074TIP3    H139713   2.251   5.248   0.633  0.8829 -0.0752  0.3100
 6074TIP3    H239714   2.147   5.144   0.599 -0.9457  1.2375  1.7960
 6075TIP3   OH239715   4.139   2.482  15.557  0.8225  0.2796 -0.6049
 6075TIP3    H139716   4.169   2.431  15.482 -0.2701 -0.4194 -0.5783
 6075TIP3    H239717   4.142   2.573  15.528  2.4772  0.1835 -0.7595
 6076TIP3   OH239718   0.058   1.778  12.971  0.3351  0.1962 -0.6733
 6076TIP3    H139719  -0.012   1.841  12.987 -0.0668 -0.3949 -0.0690
 6076TIP3    H239720   0.044   1.748  12.882  0.0299  0.3449 -0.6748
 6077TIP3   OH239721   3.232   0.936   4.382  0.5635 -0.1491  0.3672
 6077TIP3    H139722   3.250   1.005   4.446  2.9193  1.6235 -2.1102
 6077TIP3    H239723   3.312   0.884   4.380  0.8858  0.3944 -1.7852
 6078TIP3   OH239724   1.209   6.330   2.978  0.1232 -0.1878  0.0353
 6078TIP3    H139725   1.221   6.250   3.030  1.3627 -0.3888 -0.5412
 6078TIP3    H239726   1.167   6.392   3.038 -1.6617 -1.5457  0.2406
 6079TIP3   OH239727   2.264   4.342   5.304  0.2177  0.1877  0.0006
 6079TIP3    H139728   2.184   4.291   5.292  0.5035 -0.1273 -0.6033
 6079TIP3    H239729   2.234   4.426   5.337 -0.2022 -0.6276  1.7339
 6080TIP3   OH239730   3.448   1.112  11.562 -0.1751 -0.2528 -0.0462
 6080TIP3    H139731   3.406   1.192  11.532 -0.0835 -0.4596 -0.7407
 6080TIP3    H239732   3.406   1.042  11.512 -0.0976 -0.6124  0.3926
 6081TIP3   OH239733   5.338   6.381  15.654 -0.2432  0.1180 -0.1218
 6081TIP3    H139734   5.422   6.409  15.619 -0.2992  0.9169  0.3528
 6081TIP3    H239735   5.335   6.420  15.742 -0.8815 -0.3330  0.0585
 6082TIP3   OH239736   6.766   1.300   2.626  0.1778 -0.1973 -0.5430
 6082TIP3    H139737   6.862   1.298   2.618  0.1057  1.4494 -1.9875
 6082TIP3    H239738   6.736   1.347   2.548 -1.9202 -1.9835 -0.8451
 6083TIP3   OH239739   6.650   2.015  15.000 -0.0898 -0.1460 -0.0294
 6083TIP3    H139740   6.650   2.087  15.063  0.2691 -0.3384  0.1885
 6083TIP3    H239741   6.737   2.018  14.960  0.1754 -0.8985  0.4825
 6084TIP3   OH239742   2.079   5.148   4.776  0.2686 -0.4337  0.1776
 6084TIP3    H139743   2.000   5.180   4.733  0.8341 -0.8391 -1.1821
 6084TIP3    H239744   2.094   5.061   4.740  0.4911 -0.9913  1.5591
 6085TIP3   OH239745   5.228   6.126   0.678  0.5046  0.5706  0.2883
 6085TIP3    H139746   5.196   6.105   0.590 -0.2716 -1.1245  0.9462
 6085TIP3    H239747   5.323   6.138   0.667  0.5417 -0.4839 -0.6418
 6086TIP3   OH239748   2.156   2.983  16.542 -0.0723 -0.3771  0.4081
 6086TIP3    H139749   2.109   3.044  16.599 -2.6991 -1.9433 -0.0016
 6086TIP3    H239750   2.140   3.015  16.453  0.8170 -0.1208  0.3350
 6087TIP3   OH239751   2.449   5.735  13.658  1.3097 -0.2842  0.5265
 6087TIP3    H139752   2.502   5.754  13.581  0.5649  1.2833  0.3791
 6087TIP3    H239753   2.425   5.821  13.692 -0.1183 -0.9663  1.2843
 6088TIP3   OH239754   4.673   3.353  12.996  0.2439 -0.1774 -0.0613
 6088TIP3    H139755   4.705   3.273  13.036 -2.0547 -1.1682 -0.1626
 6088TIP3    H239756   4.645   3.408  13.069  0.3596 -0.0873 -0.0833
 6089TIP3   OH239757   0.488   5.982  11.120  0.1113 -0.0301 -0.7059
 6089TIP3    H139758   0.449   5.929  11.050  0.9270 -0.9431 -0.4742
 6089TIP3    H239759   0.517   5.918  11.185 -1.9473  0.8719  1.1679
 6090TIP3   OH239760   2.704   0.285  13.213  0.2092 -0.0611  0.0421
 6090TIP3    H139761   2.685   0.219  13.279  1.2206 -0.9054 -0.4807
 6090TIP3    H239762   2.793   0.315  13.234  0.8844 -0.9532 -1.4019
 6091TIP3   OH239763   5.836   6.469   0.747 -0.4639 -0.1155  0.0998
 6091TIP3    H139764   5.790   6.438   0.826 -0.8219 -2.3012 -0.9510
 6091TIP3    H239765   5.812   6.407   0.679  0.7971  1.0860 -1.4772
 6092TIP3   OH239766   5.840   0.813  12.778  0.2048  0.1675  1.1449
 6092TIP3    H139767   5.913   0.857  12.821  0.2939 -0.8333  2.0542
 6092TIP3    H239768   5.763   0.839  12.828  0.1065  0.2371  0.9573
 6093TIP3   OH239769   3.073   0.569   3.430 -0.6463 -0.0009 -0.1673
 6093TIP3    H139770   3.071   0.476   3.449 -0.1573 -0.1938 -1.0226
 6093TIP3    H239771   3.148   0.580   3.372 -0.6295  0.9419  0.0268
 6094TIP3   OH239772   4.396   2.401  13.298 -0.3839  0.3031  0.3224
 6094TIP3    H139773   4.408   2.411  13.393  0.8854  0.7123  0.1247
 6094TIP3    H239774   4.306   2.427  13.283 -0.6963 -0.0595  1.4659
 6095TIP3   OH239775   0.979   4.929   0.490  0.1159  0.3582 -0.6524
 6095TIP3    H139776   0.929   4.964   0.564 -1.0839 -1.7317 -0.4210
 6095TIP3    H239777   0.916   4.928   0.418 -0.8541 -3.9096  0.0732
 6096TIP3   OH239778   4.120   5.364  14.530 -0.7108 -0.0180  0.1596
 6096TIP3    H139779   4.146   5.272  14.522 -0.6729  0.0650 -0.6343
 6096TIP3    H239780   4.075   5.384  14.448 -0.9923  0.5874  0.4568
 6097TIP3   OH239781   6.045   2.678   2.911  0.3606 -0.2035  0.2956
 6097TIP3    H139782   5.968   2.733   2.895 -0.0933 -1.3446 -1.5896
 6097TIP3    H239783   6.012   2.605   2.962  0.4833  0.0388  0.7236
 6098TIP3   OH239784   3.350   3.339  11.574  0.0116  0.1490  0.1233
 6098TIP3    H139785   3.373   3.422  11.617 -0.9590 -0.2687  1.4796
 6098TIP3    H239786   3.421   3.280  11.597 -1.4169 -0.6164  2.7984
 6099TIP3   OH239787   5.271   3.090   2.809 -0.3592  0.0875 -0.6320
 6099TIP3    H139788   5.339   3.084   2.876  1.6847  0.5494 -2.6296
 6099TIP3    H239789   5.201   3.140   2.852  0.7695  0.1007  1.2598
 6100TIP3   OH239790   4.912   0.718  11.346  0.0937  0.5912  0.6787
 6100TIP3    H139791   4.908   0.624  11.332 -2.4551  0.8435 -0.4409
 6100TIP3    H239792   4.939   0.754  11.262 -3.3619  1.1779 -0.2244
 6101TIP3   OH239793   0.023   4.821  15.468  0.0528  0.0191 -0.4836
 6101TIP3    H139794  -0.012   4.896  15.517  0.8928 -0.1165  0.3299
 6101TIP3    H239795  -0.025   4.746  15.502 -1.9296  0.3430 -2.4079
 6102TIP3   OH239796   0.264   4.582   6.125  0.0329 -0.0555 -0.1368
 6102TIP3    H139797   0.333   4.569   6.190 -0.5700  1.9182  0.9251
 6102TIP3    H239798   0.235   4.672   6.138  0.5674  0.7268 -3.7928
 6103TIP3   OH239799   0.342   5.268   5.048  0.1127 -0.2126 -0.0188
 6103TIP3    H139800   0.326   5.239   5.138  0.5558  2.0211  0.8036
 6103TIP3    H239801   0.434   5.296   5.048 -0.0129  0.2086 -1.0519
 6104TIP3   OH239802   2.711   5.800   1.204 -0.1810  0.2261 -0.2865
 6104TIP3    H139803   2.745   5.863   1.268  0.4300  0.4384 -0.8166
 6104TIP3    H239804   2.784   5.785   1.144  0.1970 -2.1588  0.7048
 6105TIP3   OH239805   1.202   1.334   4.683  0.2314  0.2806  0.0141
 6105TIP3    H139806   1.190   1.284   4.602 -0.7270 -0.5760  0.6744
 6105TIP3    H239807   1.297   1.336   4.696  0.3485 -0.2446 -0.7109
 6106TIP3   OH239808   6.447   6.081  12.865 -0.0740 -0.0646  0.3809
 6106TIP3    H139809   6.440   6.101  12.772  0.2958  0.7877  0.5308
 6106TIP3    H239810   6.537   6.049  12.876  0.2474  0.8968  0.6302
 6107TIP3   OH239811   5.704   6.105  15.117 -0.0555 -0.4314  0.2093
 6107TIP3    H139812   5.613   6.101  15.146 -0.5758 -1.4682 -1.5308
 6107TIP3    H239813   5.727   6.015  15.096  1.1173 -0.0561 -0.1892
 6108TIP3   OH239814   5.034   0.228  17.195  0.0155 -0.2825 -0.0079
 6108TIP3    H139815   5.049   0.270  17.110 -3.2516 -1.5697 -1.2732
 6108TIP3    H239816   5.086   0.148  17.191  2.5694  1.2707  0.6029
 6109TIP3   OH239817   3.927   3.045  16.700  0.8279  0.0889 -0.0029
 6109TIP3    H139818   3.947   3.125  16.750  0.7832  0.8477 -1.1867
 6109TIP3    H239819   3.950   2.974  16.760 -0.8695  0.9706  1.7613
 6110TIP3   OH239820   1.681   4.774   4.564 -0.0478 -0.3673 -0.2494
 6110TIP3    H139821   1.671   4.853   4.617 -0.5981  0.9932 -2.3335
 6110TIP3    H239822   1.774   4.754   4.568  0.1279  0.5149  0.0962
 6111TIP3   OH239823   1.238   3.869   5.487  0.1683  0.0855 -0.2460
 6111TIP3    H139824   1.304   3.935   5.510  0.2610  0.0769 -0.4840
 6111TIP3    H239825   1.232   3.874   5.391 -0.8416  0.7327 -0.1555
 6112TIP3   OH239826   6.555   4.411   0.281  0.3814 -0.6569 -0.3337
 6112TIP3    H139827   6.481   4.464   0.311 -0.8144 -2.1070 -0.7015
 6112TIP3    H239828   6.609   4.400   0.359 -1.4221 -2.2618  0.7156
 6113TIP3   OH239829   4.004   0.423   4.382  0.8086  0.0100  0.4937
 6113TIP3    H139830   3.934   0.361   4.361 -0.0901  0.9327  0.6802
 6113TIP3    H239831   3.996   0.437   4.477  1.3788 -0.0322  0.5491
 6114TIP3   OH239832   1.107   0.163  16.392 -0.2576 -0.2767  0.2211
 6114TIP3    H139833   1.127   0.078  16.353 -4.3065 -1.3345  0.2771
 6114TIP3    H239834   1.126   0.152  16.485 -0.6301 -1.0912  0.2043
 6115TIP3   OH239835   6.233   1.462  12.855  0.2894 -0.2031 -0.1952
 6115TIP3    H139836   6.261   1.399  12.789  1.5628  0.1222  0.0306
 6115TIP3    H239837   6.314   1.496  12.892 -0.3369  2.4094 -1.1150
 6116TIP3   OH239838   4.638   2.450  12.674  0.1288  0.2430  0.3068
 6116TIP3    H139839   4.612   2.364  12.708 -2.8160  1.4802  1.3520
 6116TIP3    H239840   4.709   2.477  12.732 -1.1666 -0.0717  2.0972
 6117TIP3   OH239841   0.421   5.553  16.091  0.6930  0.1635 -0.2290
 6117TIP3    H139842   0.500   5.552  16.038  1.3988 -0.4363  0.8160
 6117TIP3    H239843   0.395   5.645  16.093  0.8066  0.2298 -1.3826
 6118TIP3   OH239844   1.551   6.367   0.533 -0.1249  0.3688 -0.2323
 6118TIP3    H139845   1.591   6.280   0.536 -1.2011 -0.3184 -3.8993
 6118TIP3    H239846   1.595   6.411   0.460 -0.2038  2.6329  1.0275
 6119TIP3   OH239847   2.636   5.152  15.646  0.5024 -0.1632  0.2618
 6119TIP3    H139848   2.654   5.082  15.583 -2.6341  0.9101 -1.9707
 6119TIP3    H239849   2.693   5.224  15.620 -0.0264 -0.1011 -0.7692
 6120TIP3   OH239850   2.224   2.467  14.183  1.1052  0.0929 -0.2899
 6120TIP3    H139851   2.138   2.462  14.143  0.6008  0.8530  0.6816
 6120TIP3    H239852   2.207   2.494  14.273  2.3040 -0.4735  0.1163
 6121TIP3   OH239853   0.523   1.275   4.543 -0.1536  0.2925 -0.2221
 6121TIP3    H139854   0.502   1.210   4.476  1.4414  0.2575 -0.7175
 6121TIP3    H239855   0.515   1.359   4.498  0.3067  0.2983 -0.3006
 6122TIP3   OH239856   5.071   3.974   4.614  0.1586 -0.1441 -0.4073
 6122TIP3    H139857   5.020   4.050   4.643  0.7782  0.1431 -0.0547
 6122TIP3    H239858   5.076   3.917   4.690  0.8202  0.0799 -0.2825
 6123TIP3   OH239859   5.881   3.836  11.846 -0.3262  0.3672  0.3633
 6123TIP3    H139860   5.904   3.769  11.782 -0.0960  1.0066 -0.2235
 6123TIP3    H239861   5.965   3.876  11.870 -0.4192  0.1817  1.0097
 6124TIP3   OH239862   0.387   6.401  15.235  0.6049  0.0419 -0.2962
 6124TIP3    H139863   0.327   6.430  15.304 -0.3458 -0.0568 -1.0814
 6124TIP3    H239864   0.403   6.308  15.255  0.3073  0.0049 -0.2249
 6125TIP3   OH239865   0.101   3.075   5.994  0.2624  0.1810  0.0001
 6125TIP3    H139866   0.066   2.986   5.992  0.0783  0.2850 -1.7471
 6125TIP3    H239867   0.040   3.126   5.941  2.1395  0.7044 -1.7038
 6126TIP3   OH239868   3.732   4.358  13.668  0.5802 -0.4829 -0.3485
 6126TIP3    H139869   3.724   4.396  13.756 -0.6217  0.0552 -0.6844
 6126TIP3    H239870   3.756   4.267  13.684 -0.2690 -0.5541  0.5562
 6127TIP3   OH239871   6.675   0.639   6.200 -0.1519 -0.1564  0.3114
 6127TIP3    H139872   6.703   0.548   6.205  2.0600  0.3662 -1.5758
 6127TIP3    H239873   6.666   0.667   6.292  0.7332 -1.7971  0.9152
 6128TIP3   OH239874   4.182   1.940  14.222 -0.2708 -0.2201 -0.1352
 6128TIP3    H139875   4.138   1.994  14.157 -0.0630  2.2337  1.6730
 6128TIP3    H239876   4.133   1.955  14.303  0.7993 -1.4396  0.7745
 6129TIP3   OH239877   2.541   0.537   2.307  0.2133  0.3202 -0.2354
 6129TIP3    H139878   2.446   0.535   2.300  0.1017 -1.0877  1.4860
 6129TIP3    H239879   2.569   0.447   2.292  1.4747  1.0580 -2.7712
 6130TIP3   OH239880   2.976   5.779  13.294  0.5976 -0.0811  0.1483
 6130TIP3    H139881   2.936   5.706  13.340  2.4356 -1.1393  0.1108
 6130TIP3    H239882   2.991   5.845  13.362  0.7924 -0.5492  0.5640
 6131TIP3   OH239883   5.641   0.394   6.749 -0.3772  0.5107 -0.0150
 6131TIP3    H139884   5.635   0.308   6.706  2.6028 -0.1108  0.6963
 6131TIP3    H239885   5.657   0.373   6.841  0.2991  1.8412  0.1724
 6132TIP3   OH239886   5.860   0.114   2.298 -0.2562 -0.1356 -0.2305
 6132TIP3    H139887   5.853   0.102   2.393 -1.1159  0.6926 -0.1805
 6132TIP3    H239888   5.892   0.203   2.287 -2.9599  0.8082 -0.7604
 6133TIP3   OH239889   2.624   5.886   5.311  0.0125  0.1993  0.6184
 6133TIP3    H139890   2.702   5.923   5.270  1.3025 -2.5093  0.4827
 6133TIP3    H239891   2.561   5.876   5.239 -0.3245  1.9653  0.6477
 6134TIP3   OH239892   6.246   4.792  16.778 -0.1469  0.1223  0.1935
 6134TIP3    H139893   6.262   4.791  16.684  0.3302  1.2225  0.2632
 6134TIP3    H239894   6.318   4.742  16.815  1.1701  1.9803  0.1930
 6135TIP3   OH239895   1.027   1.697  11.803  0.2190  0.3300 -0.1855
 6135TIP3    H139896   1.042   1.643  11.726  0.4817  0.0855  0.0365
 6135TIP3    H239897   1.093   1.766  11.797 -1.1236  1.5655 -1.3153
 6136TIP3   OH239898   2.169   2.422   4.007  0.3574 -0.5262  0.0902
 6136TIP3    H139899   2.196   2.505   4.046 -0.3996  0.3517 -1.2110
 6136TIP3    H239900   2.084   2.403   4.046 -0.3239  0.2681 -0.9676
 6137TIP3   OH239901   3.350   6.129   1.529 -0.0840 -0.8801  0.5244
 6137TIP3    H139902   3.364   6.036   1.549 -0.1279 -0.7421  1.2019
 6137TIP3    H239903   3.330   6.130   1.435 -0.3524 -1.5852  0.5687
 6138TIP3   OH239904   3.525   5.298   4.646  0.1826  0.2548  0.1851
 6138TIP3    H139905   3.599   5.347   4.611  0.5900 -1.3560 -1.2605
 6138TIP3    H239906   3.553   5.272   4.734  0.7700  0.8148  0.1699
 6139TIP3   OH239907   0.502   5.114  13.930  0.3138 -0.0109 -0.0204
 6139TIP3    H139908   0.494   5.208  13.918  0.8204 -0.1877 -1.9739
 6139TIP3    H239909   0.594   5.099  13.949  0.5883 -0.2613 -1.4723
 6140TIP3   OH239910   4.640   0.701  10.749  0.2628  0.1477 -0.1086
 6140TIP3    H139911   4.705   0.637  10.718  0.0397 -0.9167  1.5256
 6140TIP3    H239912   4.579   0.648  10.800 -1.1309  1.3653 -0.5136
 6141TIP3   OH239913   2.312   1.156  11.832  0.4276  0.3093  0.0983
 6141TIP3    H139914   2.398   1.119  11.813 -0.2786 -0.1016 -2.4765
 6141TIP3    H239915   2.312   1.240  11.786 -0.5230  0.3406  0.1567
 6142TIP3   OH239916   5.002   3.021   2.722  0.2565  0.0179 -0.1188
 6142TIP3    H139917   5.088   3.060   2.738  0.9389 -1.5339  0.0501
 6142TIP3    H239918   5.020   2.928   2.706 -1.3821 -0.3110 -0.1307
 6143TIP3   OH239919   3.212   4.113   3.910  0.1560 -0.5206 -0.4305
 6143TIP3    H139920   3.193   4.022   3.884  1.0219 -0.4197 -1.4512
 6143TIP3    H239921   3.140   4.164   3.873  0.6216 -0.5695 -1.4459
 6144TIP3   OH239922   1.161   0.543   6.016 -0.0114 -0.2491 -0.1172
 6144TIP3    H139923   1.255   0.532   6.009 -0.0142 -1.1526  1.2201
 6144TIP3    H239924   1.148   0.601   6.091 -0.4655  1.3289 -1.3520
 6145TIP3   OH239925   6.742   4.091   2.187  0.1163 -0.4465 -0.3269
 6145TIP3    H139926   6.798   4.016   2.168 -0.3820 -0.5793 -1.2820
 6145TIP3    H239927   6.656   4.052   2.206 -0.1535 -0.1086 -0.8717
 6146TIP3   OH239928   3.802   4.628  16.823  0.5056 -0.2722 -0.0136
 6146TIP3    H139929   3.823   4.656  16.912  2.2566  0.4102 -0.6175
 6146TIP3    H239930   3.885   4.592  16.790 -0.0859 -0.3577 -1.4135
 6147TIP3   OH239931   6.199   3.768  12.345 -0.5840  0.0593  0.5441
 6147TIP3    H139932   6.107   3.784  12.365 -0.6000 -0.0435  0.5570
 6147TIP3    H239933   6.212   3.804  12.257 -0.9542 -1.0519  0.0229
 6148TIP3   OH239934   4.874   2.527   6.154 -0.3406 -0.1899  0.3437
 6148TIP3    H139935   4.797   2.579   6.179 -1.3587 -0.3773 -2.2018
 6148TIP3    H239936   4.923   2.516   6.236 -1.6970  2.1031  1.5242
 6149TIP3   OH239937   2.111   3.811   3.439 -0.7637 -0.6803 -0.3464
 6149TIP3    H139938   2.069   3.727   3.421 -0.3642 -0.5486 -2.0151
 6149TIP3    H239939   2.048   3.876   3.408 -1.1199 -0.3456  1.0439
 6150TIP3   OH239940   4.856   3.140   3.116  0.0053  0.4954 -0.1033
 6150TIP3    H139941   4.847   3.049   3.142  0.2275  0.2006 -1.0620
 6150TIP3    H239942   4.911   3.179   3.183 -0.3683  0.0082  0.4937
 6151TIP3   OH239943   5.102   4.475   5.041  0.3286  0.1356  0.3787
 6151TIP3    H139944   5.030   4.530   5.011 -0.5465 -1.5814 -0.7845
 6151TIP3    H239945   5.180   4.518   5.006 -0.3756  0.3903 -0.9416
 6152TIP3   OH239946   5.769   0.906  13.493 -0.4515  0.6436 -0.3487
 6152TIP3    H139947   5.756   0.838  13.427 -0.8567 -0.8603  1.2154
 6152TIP3    H239948   5.682   0.940  13.510 -0.2947  1.3072 -0.8720
 6153TIP3   OH239949   1.333   1.224   4.398 -0.0385  0.2139 -0.1696
 6153TIP3    H139950   1.416   1.175   4.395 -0.3052 -0.1807 -3.7016
 6153TIP3    H239951   1.348   1.300   4.343 -1.3346  1.3360  0.9974
 6154TIP3   OH239952   4.136   4.207  11.645 -0.1503  0.5196 -0.1855
 6154TIP3    H139953   4.146   4.131  11.702  0.2135  1.4508  0.9883
 6154TIP3    H239954   4.165   4.176  11.559  1.8308 -0.1395  0.6905
 6155TIP3   OH239955   1.527   0.040   2.872  0.3927 -0.2500  0.3953
 6155TIP3    H139956   1.480  -0.013   2.936 -1.4734  0.6374 -0.2077
 6155TIP3    H239957   1.620   0.024   2.890 -0.1317 -1.2340  2.2694
 6156TIP3   OH239958   4.047   3.240  15.806  0.1687  0.1838 -0.3485
 6156TIP3    H139959   4.087   3.307  15.751  0.1292  0.0778 -0.5090
 6156TIP3    H239960   4.031   3.283  15.890 -0.0853  0.4426 -0.5323
 6157TIP3   OH239961   0.583   5.014  11.211 -0.0913 -0.1686 -0.0727
 6157TIP3    H139962   0.524   4.946  11.181  0.7356  0.1554 -2.5763
 6157TIP3    H239963   0.538   5.096  11.190 -0.1508  0.0601  0.9466
 6158TIP3   OH239964   6.091   0.413  15.941 -0.1859  0.7956  0.1920
 6158TIP3    H139965   6.000   0.439  15.956 -0.6431 -1.2866  1.2216
 6158TIP3    H239966   6.087   0.318  15.930  2.0468  0.4756  1.9003
 6159TIP3   OH239967   1.241   0.819   1.354 -0.2450  0.0448 -0.5088
 6159TIP3    H139968   1.206   0.902   1.384 -0.3472 -0.3876  0.5914
 6159TIP3    H239969   1.164   0.763   1.341 -0.1872  0.1524 -1.3616
 6160TIP3   OH239970   1.779   1.536   0.399 -0.1248 -0.2512  0.0677
 6160TIP3    H139971   1.856   1.591   0.414 -0.7602  0.2005  1.8377
 6160TIP3    H239972   1.813   1.446   0.403  0.5167 -0.0383 -0.4376
 6161TIP3   OH239973   2.883   4.510   0.571  0.2078  0.0618  0.0233
 6161TIP3    H139974   2.810   4.467   0.617 -0.0555  1.2300  0.7486
 6161TIP3    H239975   2.916   4.573   0.635  0.8687  0.6088 -0.8587
 6162TIP3   OH239976   2.481   4.639  16.239 -0.1555  0.1498 -0.6037
 6162TIP3    H139977   2.395   4.670  16.267  0.3116  0.7172  0.2070
 6162TIP3    H239978   2.520   4.601  16.318 -0.5983 -2.2698 -1.4889
 6163TIP3   OH239979   5.194   4.872  15.587 -0.5282 -0.3237 -0.0611
 6163TIP3    H139980   5.112   4.827  15.567 -0.0340 -1.3836  0.2836
 6163TIP3    H239981   5.186   4.957  15.543 -2.0044 -0.2297  0.3626
 6164TIP3   OH239982   2.965   1.094   4.520  0.9655 -0.3796  0.5715
 6164TIP3    H139983   2.961   1.052   4.606  0.8818 -1.3066  0.1165
 6164TIP3    H239984   3.059   1.099   4.500  0.9004 -3.2094 -0.7448
 6165TIP3   OH239985   0.008   2.372  11.410 -0.1934  0.4035  0.5523
 6165TIP3    H139986   0.037   2.286  11.377 -1.1471  0.5945 -0.8326
 6165TIP3    H239987   0.020   2.367  11.505  0.0043 -1.1793  0.4551
 6166TIP3   OH239988   5.055   3.262   0.774 -0.3873 -0.0821  0.1922
 6166TIP3    H139989   5.126   3.255   0.837 -0.1869  1.7141  0.2068
 6166TIP3    H239990   5.029   3.172   0.756 -0.3108 -0.6336  2.6759
 6167TIP3   OH239991   5.225   1.073  12.073 -0.6115 -0.0413 -0.3706
 6167TIP3    H139992   5.318   1.055  12.065 -0.5832  0.0950 -0.3401
 6167TIP3    H239993   5.220   1.163  12.105 -0.6929 -1.1265  2.8734
 6168TIP3   OH239994   3.650   2.109   3.038 -0.2572 -0.2205 -0.0179
 6168TIP3    H139995   3.733   2.147   3.066 -0.7964 -0.1937  1.5914
 6168TIP3    H239996   3.630   2.044   3.105 -0.9961 -0.9946 -0.9798
 6169TIP3   OH239997   3.979   2.712   0.880  0.0198  0.2278 -0.0187
 6169TIP3    H139998   3.998   2.740   0.970  2.1546 -0.7609 -0.1240
 6169TIP3    H239999   3.928   2.784   0.843 -0.7247  0.7266  1.9228
 6170TIP3   OH240000   5.367   6.615   0.338  0.1010 -1.0387  0.3149
 6170TIP3    H140001   5.310   6.692   0.330 -2.0250 -2.6677 -1.0730
 6170TIP3    H240002   5.448   6.648   0.376 -1.4917  1.5249  1.6030
 6171TIP3   OH240003   0.488   0.897  13.773 -0.2687 -0.5157  0.3012
 6171TIP3    H140004   0.522   0.983  13.749  1.8337 -1.3798 -0.0252
 6171TIP3    H240005   0.402   0.893  13.733 -0.1028  1.1713 -0.2685
 6172TIP3   OH240006   4.500   0.767  17.244  0.1659  0.1765 -0.3248
 6172TIP3    H140007   4.594   0.771  17.226  0.6075 -0.7513  1.6276
 6172TIP3    H240008   4.470   0.688  17.199  0.5217 -0.1017 -0.0737
 6173TIP3   OH240009   6.137   2.147  11.271 -0.1559  0.3198 -0.1814
 6173TIP3    H140010   6.125   2.241  11.256  1.0310  0.5523  0.3176
 6173TIP3    H240011   6.147   2.110  11.183  1.1085  0.9020 -0.2866
 6174TIP3   OH240012   1.801   3.831   1.165  0.0196  0.1418  0.0135
 6174TIP3    H140013   1.840   3.766   1.107 -1.6349 -0.4349 -0.4782
 6174TIP3    H240014   1.713   3.799   1.181  0.0744  0.9143  1.9237
 6175TIP3   OH240015   5.403   4.245   4.631  0.1582 -0.6920 -0.1959
 6175TIP3    H140016   5.436   4.308   4.695 -0.6650 -1.8526  1.4009
 6175TIP3    H240017   5.387   4.297   4.552  4.5669  0.1172 -0.6681
 6176TIP3   OH240018   1.866   4.968  16.052 -0.0411 -0.1168  0.7520
 6176TIP3    H140019   1.780   4.975  16.094 -1.1850 -2.9975 -0.9597
 6176TIP3    H240020   1.867   5.039  15.989 -1.1444  0.0004  0.8535
 6177TIP3   OH240021   0.757   1.301  16.186  0.2660  0.9381 -0.3828
 6177TIP3    H140022   0.697   1.226  16.190  0.3292  0.9681  2.4397
 6177TIP3    H240023   0.817   1.280  16.115 -1.4963 -0.3167 -1.5638
 6178TIP3   OH240024   4.111   0.580   0.256  0.6049 -0.4461  0.1273
 6178TIP3    H140025   4.023   0.575   0.294  0.5841 -0.9217  0.0262
 6178TIP3    H240026   4.137   0.489   0.245  0.2927 -0.3459 -1.6847
 6179TIP3   OH240027   6.415   4.626  13.417 -0.0995 -0.2005  0.3395
 6179TIP3    H140028   6.409   4.568  13.340  0.0363  0.5201 -0.2224
 6179TIP3    H240029   6.472   4.697  13.388  0.2366 -0.1105  1.2350
 6180TIP3   OH240030   6.476   3.263  14.589  0.4994  0.2843  0.1174
 6180TIP3    H140031   6.459   3.299  14.502 -1.0984 -1.8156 -0.4737
 6180TIP3    H240032   6.506   3.338  14.641 -0.0198  1.8646 -1.8151
 6181TIP3   OH240033   0.641   1.856   6.327  0.7403 -0.2933  0.3576
 6181TIP3    H140034   0.644   1.905   6.409 -1.9544  2.8447 -1.3286
 6181TIP3    H240035   0.559   1.806   6.332 -0.3028  1.2510 -1.1412
 6182TIP3   OH240036   5.577   4.387   3.254  0.3932 -0.5957  1.0614
 6182TIP3    H140037   5.625   4.371   3.174 -0.7698  2.4513 -0.3089
 6182TIP3    H240038   5.620   4.332   3.320  2.8990 -1.2707 -1.0864
 6183TIP3   OH240039   3.573   1.749   5.815 -0.8849  0.8248  0.1113
 6183TIP3    H140040   3.480   1.763   5.832 -1.6661 -0.9264 -2.4386
 6183TIP3    H240041   3.608   1.837   5.802 -2.1879  1.5018  1.1288
 6184TIP3   OH240042   4.455   3.851   5.449  0.3929 -0.1469 -0.0481
 6184TIP3    H140043   4.379   3.854   5.507 -0.3203  0.2242 -0.9834
 6184TIP3    H240044   4.508   3.779   5.483  1.0957  1.4370  2.3847
 6185TIP3   OH240045   5.146   2.475   0.767  0.4832  0.6155  0.5369
 6185TIP3    H140046   5.122   2.555   0.721  1.9036  1.8773  1.9309
 6185TIP3    H240047   5.065   2.445   0.808 -0.3360  0.6091 -1.0460
 6186TIP3   OH240048   6.624   6.088   1.356 -0.0712  1.0510  0.4357
 6186TIP3    H140049   6.701   6.103   1.411  0.6662  0.1912 -0.3381
 6186TIP3    H240050   6.618   5.992   1.348 -1.9158  1.0535  1.4552
 6187TIP3   OH240051   4.809   5.863  13.397 -0.2355 -0.9333 -0.0037
 6187TIP3    H140052   4.808   5.871  13.493  0.7724 -1.1119  0.0198
 6187TIP3    H240053   4.900   5.879  13.372 -0.8031  0.8207 -1.0760
 6188TIP3   OH240054   2.576   5.104   0.575 -0.3472  0.5508 -0.2093
 6188TIP3    H140055   2.667   5.075   0.581 -0.7728 -0.5214  1.2474
 6188TIP3    H240056   2.544   5.104   0.665 -1.7958  0.9129 -0.7018
 6189TIP3   OH240057   6.171   3.158  12.302  0.1595  0.3111  0.3464
 6189TIP3    H140058   6.219   3.227  12.347  0.4340  0.2551  0.1482
 6189TIP3    H240059   6.201   3.164  12.211  0.8884 -0.6490  0.5057
 6190TIP3   OH240060   2.329   6.354   2.818 -0.5402 -0.4610 -0.2517
 6190TIP3    H140061   2.263   6.285   2.804  0.6693 -1.4873 -1.0231
 6190TIP3    H240062   2.292   6.408   2.887 -2.2749 -0.9318 -0.7687
 6191TIP3   OH240063   0.545   6.327   4.050  0.1439 -0.2908  0.0901
 6191TIP3    H140064   0.471   6.267   4.047 -1.6137  1.8760 -1.2311
 6191TIP3    H240065   0.557   6.355   3.959  0.6171  1.7106  0.7453
 6192TIP3   OH240066   2.911   5.170  10.794 -0.3530  0.5327 -0.3314
 6192TIP3    H140067   2.999   5.196  10.766 -0.2958  0.0208 -0.6384
 6192TIP3    H240068   2.891   5.229  10.867  0.7785 -0.2109  0.5997
 6193TIP3   OH240069   3.952   6.012   0.461 -0.7024 -0.3264 -0.5458
 6193TIP3    H140070   3.887   5.948   0.431 -0.9662  0.2686 -1.2498
 6193TIP3    H240071   3.925   6.033   0.550 -0.7095 -1.0670 -0.3633
 6194TIP3   OH240072   0.717   4.100   4.526 -0.0016  0.0733  0.0017
 6194TIP3    H140073   0.693   4.156   4.452 -1.7565  1.2030  1.3807
 6194TIP3    H240074   0.635   4.063   4.556  0.7326 -0.6321  1.1871
 6195TIP3   OH240075   2.811   4.758   4.455 -0.2826  0.0561  0.7379
 6195TIP3    H140076   2.727   4.718   4.432  1.0296 -1.7982 -1.0200
 6195TIP3    H240077   2.824   4.737   4.547 -0.7225 -1.5498  0.4432
 6196TIP3   OH240078   6.617   2.588  13.499  0.0844 -0.1692  0.3865
 6196TIP3    H140079   6.600   2.547  13.414 -0.5433 -0.7316  0.7756
 6196TIP3    H240080   6.636   2.679  13.478 -1.1873 -0.0394 -0.2645
 6197TIP3   OH240081   2.409   1.994   0.392  0.4544 -0.4993 -0.0906
 6197TIP3    H140082   2.319   2.026   0.395  0.6195 -0.1459  1.5606
 6197TIP3    H240083   2.452   2.051   0.328 -0.5369 -0.8156 -1.0585
 6198TIP3   OH240084   4.656   2.381  16.165 -0.3501 -0.4118  0.5843
 6198TIP3    H140085   4.729   2.442  16.157 -0.7804  0.0674  0.2499
 6198TIP3    H240086   4.588   2.418  16.108 -1.3150 -0.1745  1.8825
 6199TIP3   OH240087   5.289   3.827   0.332 -0.1809  0.5169  0.5301
 6199TIP3    H140088   5.366   3.800   0.282  1.0935  3.2970  0.9189
 6199TIP3    H240089   5.266   3.749   0.383  1.1860 -0.9505 -1.0185
 6200TIP3   OH240090   4.848   1.562   0.130 -0.3038  0.6877  0.1258
 6200TIP3    H140091   4.822   1.516   0.051  0.3028  1.3188 -0.4482
 6200TIP3    H240092   4.893   1.496   0.183  0.7215  0.6438 -0.7679
 6201TIP3   OH240093   5.319   2.686   2.217  0.3527 -0.0735 -0.6783
 6201TIP3    H140094   5.236   2.727   2.241 -0.1908 -2.6072  2.0503
 6201TIP3    H240095   5.381   2.716   2.284  0.8215 -0.8088 -0.7804
 6202TIP3   OH240096   6.241   2.197  14.759 -0.4572 -0.1348  0.3023
 6202TIP3    H140097   6.164   2.238  14.798 -0.4478 -0.5641  0.7825
 6202TIP3    H240098   6.299   2.181  14.833 -0.7206 -1.5723  0.2075
 6203TIP3   OH240099   4.389   3.131   3.397  0.2579  0.1250  0.0907
 6203TIP3    H140100   4.473   3.153   3.438  0.4737  0.0958 -0.3267
 6203TIP3    H240101   4.335   3.097   3.468  1.1652 -1.4329  0.0488
 6204TIP3   OH240102   1.448   0.688  11.507 -0.2689  0.0062 -0.2191
 6204TIP3    H140103   1.360   0.712  11.478 -0.5318 -0.4474  0.1833
 6204TIP3    H240104   1.491   0.771  11.522 -0.9096  0.2388  0.3847
 6205TIP3   OH240105   4.964   5.620  14.821  0.6760  0.1908  0.2838
 6205TIP3    H140106   5.006   5.625  14.735 -0.0558  0.6313 -0.0580
 6205TIP3    H240107   4.870   5.624  14.802  0.5423  2.3604  1.2159
 6206TIP3   OH240108   0.099   0.427   3.992 -1.1630  0.1890 -0.4330
 6206TIP3    H140109   0.091   0.519   4.018 -3.8413  0.3667 -1.6635
 6206TIP3    H240110   0.100   0.380   4.075  0.1153  1.2998  0.2084
 6207TIP3   OH240111   6.468   3.412  16.237  0.1376  0.0557 -0.1394
 6207TIP3    H140112   6.494   3.364  16.158  1.8850  0.9360 -0.1242
 6207TIP3    H240113   6.382   3.376  16.260  0.3335 -1.3379 -1.5207
 6208TIP3   OH240114   3.447   5.180   4.352 -0.4268  0.4443 -0.4069
 6208TIP3    H140115   3.476   5.265   4.386 -0.1888 -0.0125  0.5538
 6208TIP3    H240116   3.387   5.147   4.419 -1.2213  0.2464 -1.1945
 6209TIP3   OH240117   3.116   4.294  13.698  0.0557  0.0319 -0.5406
 6209TIP3    H140118   3.159   4.295  13.613 -1.5032 -0.0827 -1.3396
 6209TIP3    H240119   3.051   4.364  13.693 -0.5450 -0.4586  0.2787
 6210TIP3   OH240120   4.317   4.985   1.890 -0.8063  0.3557 -0.4003
 6210TIP3    H140121   4.371   4.905   1.887 -1.8792 -0.4258  0.6070
 6210TIP3    H240122   4.308   5.011   1.799 -1.6416 -1.5150 -0.8899
 6211TIP3   OH240123   5.821   3.953   4.126  0.6035 -0.4424  0.1107
 6211TIP3    H140124   5.836   3.872   4.077  0.1070 -1.1280  1.0780
 6211TIP3    H240125   5.902   4.002   4.116  0.4036 -0.4335 -1.6475
 6212TIP3   OH240126   0.492   1.834  14.037 -0.2918 -0.0643  0.5257
 6212TIP3    H140127   0.397   1.840  14.045 -0.4997 -1.7886 -0.2401
 6212TIP3    H240128   0.523   1.816  14.126 -0.5863  1.4714  0.9428
 6213TIP3   OH240129   6.665   3.287  12.765  0.2492  0.8339 -0.1724
 6213TIP3    H140130   6.684   3.194  12.756  0.1682  0.7531  0.4615
 6213TIP3    H240131   6.632   3.297  12.855  0.9440  1.5847  0.0093
 6214TIP3   OH240132   1.458   0.382  14.164  0.1205  0.1495 -0.0154
 6214TIP3    H140133   1.411   0.356  14.084  1.5770  0.9372 -1.1551
 6214TIP3    H240134   1.431   0.473  14.179  0.8112  0.4125 -0.3382
 6215TIP3   OH240135   3.065   0.669   2.694 -0.1217 -0.2459  0.0288
 6215TIP3    H140136   3.010   0.599   2.657 -1.4678  1.4898 -1.3239
 6215TIP3    H240137   3.122   0.696   2.623  1.6286 -1.1126  1.0534
 6216TIP3   OH240138   4.294   4.656  15.429  0.2280 -0.0021 -0.2522
 6216TIP3    H140139   4.248   4.579  15.395  0.0798  0.6259 -1.5107
 6216TIP3    H240140   4.296   4.643  15.524 -0.3661 -1.2400 -0.3995
 6217TIP3   OH240141   2.871   2.962  13.699  0.3360 -0.5883 -0.8319
 6217TIP3    H140142   2.790   2.988  13.743  0.4580 -0.1973 -0.8388
 6217TIP3    H240143   2.842   2.903  13.628  0.1554 -1.3809 -0.1118
 6218TIP3   OH240144   1.688   3.113  14.408  0.0228 -0.2326 -0.2868
 6218TIP3    H140145   1.763   3.168  14.428 -1.9366  2.4801 -0.1915
 6218TIP3    H240146   1.642   3.159  14.338 -1.3329 -2.0805 -0.6568
 6219TIP3   OH240147   3.023   0.660   1.380  0.1272  0.0214 -0.4270
 6219TIP3    H140148   2.944   0.711   1.360  2.1236  2.8619 -1.4146
 6219TIP3    H240149   3.082   0.723   1.420  1.7281 -2.2054  0.8277
 6220TIP3   OH240150   4.513   5.819  17.101 -0.1964 -0.6303 -0.1777
 6220TIP3    H140151   4.587   5.880  17.100  1.2266 -2.3402  0.0272
 6220TIP3    H240152   4.438   5.873  17.075  1.2124  0.9756 -1.0102
 6221TIP3   OH240153   4.734   4.514   3.431 -0.3279  0.1854  0.0366
 6221TIP3    H140154   4.821   4.478   3.452 -0.5379  0.5154  1.4872
 6221TIP3    H240155   4.753   4.603   3.399  0.1707 -1.0567 -3.3390
 6222TIP3   OH240156   5.186   3.052   1.705 -0.0217  0.1002  0.4804
 6222TIP3    H140157   5.228   3.031   1.622 -0.1949  0.5509  0.2777
 6222TIP3    H240158   5.168   2.967   1.745 -0.3022 -0.1257 -0.1265
 6223TIP3   OH240159   4.265   0.330  12.171 -0.1606 -0.0095  0.2737
 6223TIP3    H140160   4.205   0.404  12.179  1.5053  1.9774 -4.1216
 6223TIP3    H240161   4.220   0.269  12.113 -0.1850 -1.0351  1.3532
 6224TIP3   OH240162   0.214   2.464   3.995 -0.8158 -0.1101  0.3774
 6224TIP3    H140163   0.261   2.404   3.937 -1.2018 -0.1440  0.0935
 6224TIP3    H240164   0.198   2.542   3.941  0.8253  0.7843  1.1361
 6225TIP3   OH240165   5.458   5.288  13.971  0.5677 -0.1308 -0.8716
 6225TIP3    H140166   5.549   5.263  13.954  0.0588 -1.9876 -1.0203
 6225TIP3    H240167   5.412   5.204  13.978 -0.4147  0.6468  3.2260
 6226TIP3   OH240168   2.569   1.244  11.182 -0.0791 -0.6886  0.2913
 6226TIP3    H140169   2.566   1.208  11.271  0.6604 -0.1648  0.5320
 6226TIP3    H240170   2.651   1.292  11.178  0.1014 -1.0579 -0.8193
 6227TIP3   OH240171   4.441   4.082   0.435  0.4028 -0.0829 -0.0686
 6227TIP3    H140172   4.365   4.139   0.450  0.3330  0.4042 -2.1110
 6227TIP3    H240173   4.514   4.143   0.423  0.7419 -0.5027 -0.1274
 6228TIP3   OH240174   3.431   1.509   1.176 -0.0773  0.3148  0.0696
 6228TIP3    H140175   3.490   1.569   1.130  1.6286 -0.1330  1.5986
 6228TIP3    H240176   3.356   1.563   1.200 -0.4459  0.8313 -2.1763
 6229TIP3   OH240177   1.834   0.111  14.713  0.2012  0.1567 -0.3292
 6229TIP3    H140178   1.851   0.074  14.626 -0.0925  1.0997 -0.7957
 6229TIP3    H240179   1.776   0.048  14.756 -0.6276  0.2783 -1.2625
 6230TIP3   OH240180   1.568   1.658   3.609 -0.2948 -0.6162  0.1745
 6230TIP3    H140181   1.480   1.674   3.643  0.8898  0.3021  2.9934
 6230TIP3    H240182   1.582   1.727   3.544 -1.2303 -0.0872  0.5331
 6231TIP3   OH240183   0.067   2.671   1.335 -0.8449  0.3244  0.3969
 6231TIP3    H140184   0.133   2.664   1.403  1.0829 -0.1005 -1.4502
 6231TIP3    H240185   0.073   2.762   1.305 -0.0348 -0.1038 -0.7804
 6232TIP3   OH240186   6.294   5.384   4.386 -0.2962 -0.3526  0.6087
 6232TIP3    H140187   6.381   5.356   4.360  0.2828 -0.0545  2.1348
 6232TIP3    H240188   6.237   5.357   4.314  1.0467 -0.5644 -0.3889
 6233TIP3   OH240189   0.627   6.202   5.323  0.7113  0.0062  0.4453
 6233TIP3    H140190   0.706   6.187   5.271 -0.1542 -1.3892 -0.4902
 6233TIP3    H240191   0.569   6.251   5.265 -0.5167 -2.1217 -0.1741
 6234TIP3   OH240192   2.140   0.473   0.757 -0.6707 -0.0058  0.5487
 6234TIP3    H140193   2.195   0.397   0.774  0.3181  0.2779 -1.2452
 6234TIP3    H240194   2.155   0.530   0.833  0.1722 -0.6999  0.9218
 6235TIP3   OH240195   6.225   1.346   4.791  0.1032 -0.4462  0.1304
 6235TIP3    H140196   6.258   1.363   4.703 -2.3895 -2.5940 -1.3086
 6235TIP3    H240197   6.131   1.357   4.784 -0.2164 -1.4751  2.3214
 6236TIP3   OH240198   4.793   3.403   2.693 -0.5811  0.3804 -0.1496
 6236TIP3    H140199   4.795   3.332   2.758 -1.8356 -0.1637 -0.6762
 6236TIP3    H240200   4.796   3.483   2.745 -0.7985 -0.0474  0.5380
 6237TIP3   OH240201   2.880   5.933  15.712  0.0106 -0.2812  0.1083
 6237TIP3    H140202   2.973   5.912  15.702  0.2770  0.7194  0.4125
 6237TIP3    H240203   2.868   6.011  15.657 -0.6095 -0.3030  0.2167
 6238TIP3   OH240204   5.776   6.732   4.131 -0.2342 -0.2888 -0.7052
 6238TIP3    H140205   5.774   6.821   4.096 -1.2675  0.3511  0.9082
 6238TIP3    H240206   5.766   6.743   4.225  1.5837 -2.0265 -0.2768
 6239TIP3   OH240207   2.674   6.574  13.424  0.2208  0.1641 -0.6164
 6239TIP3    H140208   2.699   6.492  13.467 -3.5038 -1.5992 -1.5989
 6239TIP3    H240209   2.614   6.616  13.485 -0.2735  0.6528 -1.4225
 6240TIP3   OH240210   4.695   4.061   3.403 -0.3249 -0.2729  0.2927
 6240TIP3    H140211   4.663   4.150   3.384  0.5810  0.7294  3.1977
 6240TIP3    H240212   4.690   4.054   3.498  2.7066 -2.1862  0.3537
 6241TIP3   OH240213   2.370   0.451  11.552  0.0320  0.0135  1.1565
 6241TIP3    H140214   2.422   0.388  11.503 -1.0817  0.1980 -0.2960
 6241TIP3    H240215   2.290   0.461  11.501 -0.8882  0.6852  2.6999
 6242TIP3   OH240216   3.978   5.384  15.576  0.1626  0.4287  0.1568
 6242TIP3    H140217   3.999   5.477  15.566 -0.0152  0.4142 -0.3798
 6242TIP3    H240218   3.923   5.380  15.654 -0.6080  0.8979 -0.3552
 6243TIP3   OH240219   0.084   3.274   3.466  0.1230  0.4184 -0.0154
 6243TIP3    H140220   0.047   3.192   3.498 -0.4572  0.7006  0.0284
 6243TIP3    H240221   0.044   3.342   3.520  0.8886  0.7041  0.2065
 6244TIP3   OH240222   3.470   5.636  16.243  0.4558 -0.1425  1.0571
 6244TIP3    H140223   3.476   5.676  16.156  0.2907 -1.1507  0.5701
 6244TIP3    H240224   3.461   5.709  16.303 -1.1604  0.4924  0.0657
 6245TIP3   OH240225   4.622   5.591  17.212  0.6273 -0.5553  0.3233
 6245TIP3    H140226   4.579   5.676  17.198 -0.8123 -1.4031 -0.5288
 6245TIP3    H240227   4.714   5.607  17.190 -0.1281  0.1469 -2.5587
 6246TIP3   OH240228   5.589   1.386   0.432 -0.4784  0.2064 -0.1595
 6246TIP3    H140229   5.584   1.334   0.351 -1.0953  1.7140 -1.1113
 6246TIP3    H240230   5.598   1.321   0.502 -0.4609 -1.1401 -1.3924
 6247TIP3   OH240231   5.395   2.482   0.922 -0.0909  0.2510  0.1046
 6247TIP3    H140232   5.319   2.485   0.864 -1.0993 -0.3457  1.3860
 6247TIP3    H240233   5.361   2.500   1.009  1.0646 -0.9830  0.8458
 6248TIP3   OH240234   3.622   3.455   0.578  0.0906 -0.3248 -0.1937
 6248TIP3    H140235   3.664   3.483   0.497  0.0017  0.2328 -0.0538
 6248TIP3    H240236   3.673   3.379   0.607  1.8743  1.1359  0.6767
 6249TIP3   OH240237   5.081   2.439   4.759 -0.1764  0.1137  0.4312
 6249TIP3    H140238   5.158   2.396   4.796  1.1729  0.5441 -1.7846
 6249TIP3    H240239   5.104   2.531   4.755 -1.0535  0.3370  0.2836
 6250TIP3   OH240240   6.335   4.120  14.986  0.1574  0.4008  0.4065
 6250TIP3    H140241   6.308   4.037  14.948  0.8347 -0.2355  1.2971
 6250TIP3    H240242   6.405   4.097  15.046 -0.4292  1.4693  1.5205
 6251TIP3   OH240243   6.081   5.209   0.369  0.2269  0.0757 -0.4819
 6251TIP3    H140244   5.986   5.205   0.357  0.1316  0.5708  0.0774
 6251TIP3    H240245   6.117   5.198   0.281 -0.3248 -0.8784 -0.5903
 6252TIP3   OH240246   5.672   4.500  12.980 -0.4742 -0.2222 -0.2159
 6252TIP3    H140247   5.681   4.404  12.980 -1.2806 -0.3441  2.4628
 6252TIP3    H240248   5.755   4.531  13.016  0.0008  0.1269 -1.6023
 6253TIP3   OH240249   1.932   4.977  14.315 -0.6774  0.0445  0.2602
 6253TIP3    H140250   1.882   5.058  14.328  1.3213  1.2174  0.7660
 6253TIP3    H240251   2.011   5.005  14.270 -1.4449 -2.1225 -2.5552
 6254TIP3   OH240252   0.174   6.631  14.634 -0.0378 -0.0085 -0.4496
 6254TIP3    H140253   0.099   6.680  14.600 -0.7695 -1.5008 -1.0185
 6254TIP3    H240254   0.243   6.696  14.642 -1.0164  1.1378 -1.1436
 6255TIP3   OH240255   4.215   1.300   3.744  0.0200  0.4965 -0.4023
 6255TIP3    H140256   4.171   1.242   3.682  0.9737 -0.0726 -0.5584
 6255TIP3    H240257   4.281   1.245   3.786 -1.4607  0.5352  2.0504
 6256TIP3   OH240258   0.556   5.413  16.290  0.3894 -0.6529  0.1651
 6256TIP3    H140259   0.508   5.469  16.229 -0.5381  0.0108  1.4869
 6256TIP3    H240260   0.596   5.473  16.352  3.0631 -1.1979 -0.9738
 6257TIP3   OH240261   6.552   2.990   5.523 -0.7566  0.3758  0.4740
 6257TIP3    H140262   6.638   3.014   5.490 -0.6266  2.5421  2.2594
 6257TIP3    H240263   6.547   2.895   5.512  1.3676  0.3795 -0.7335
 6258TIP3   OH240264   1.139   6.773  15.720  0.1248  0.3737  0.0931
 6258TIP3    H140265   1.098   6.830  15.784 -0.7397  0.3472 -0.4198
 6258TIP3    H240266   1.200   6.830  15.672  0.0081  0.6339  0.2539
 6259TIP3   OH240267   2.901   4.608  13.331  0.5020  0.1871  0.5989
 6259TIP3    H140268   2.863   4.520  13.331 -0.5529  0.6311  0.3367
 6259TIP3    H240269   2.877   4.645  13.246  1.2146  0.6128  0.5791
 6260TIP3   OH240270   1.778   5.037  13.938 -0.1699  0.1251 -0.3191
 6260TIP3    H140271   1.735   4.960  13.901  1.1101 -0.2567 -1.0708
 6260TIP3    H240272   1.717   5.109  13.922 -0.9714 -0.5783 -0.4539
 6261TIP3   OH240273   1.082   6.328  12.861  0.6790  0.0775 -0.0284
 6261TIP3    H140274   1.142   6.382  12.810  0.9354 -1.2132 -1.1324
 6261TIP3    H240275   1.097   6.354  12.952  2.5404  0.1312 -0.3373
 6262TIP3   OH240276   2.197   6.175  13.388  0.1349  0.3159  0.0959
 6262TIP3    H140277   2.152   6.163  13.472  0.7804  1.9362  0.6957
 6262TIP3    H240278   2.151   6.248  13.347  2.6168  2.4849  1.0274
 6263TIP3   OH240279   1.482   5.567  15.591 -0.1341  0.8205 -0.0348
 6263TIP3    H140280   1.507   5.476  15.575 -1.8175  0.4800 -0.9496
 6263TIP3    H240281   1.443   5.566  15.678 -0.6762  0.5222 -0.2710
 6264TIP3   OH240282   1.356   2.904   0.530  1.2613  0.5344 -0.1672
 6264TIP3    H140283   1.268   2.893   0.566  0.7367  0.5105 -1.4213
 6264TIP3    H240284   1.397   2.818   0.540  1.0063  0.4408  0.0746
 6265TIP3   OH240285   1.232   6.122   0.140  0.0962 -0.3355  0.3116
 6265TIP3    H140286   1.169   6.150   0.206 -0.2326  1.4749 -0.7443
 6265TIP3    H240287   1.316   6.122   0.186 -0.2658 -0.0888  0.9859
 6266TIP3   OH240288   5.752   5.303  13.919  0.2451 -0.5327 -0.4303
 6266TIP3    H140289   5.813   5.338  13.984 -0.2562 -1.7693  0.7250
 6266TIP3    H240290   5.732   5.215  13.950 -0.8351 -0.7465 -1.6948
 6267TIP3   OH240291   4.726   0.765  12.938  0.5410  0.3254 -0.2945
 6267TIP3    H140292   4.779   0.842  12.918  1.7289 -0.0367  1.4352
 6267TIP3    H240293   4.637   0.790  12.911  1.1934  1.6854 -1.2673
 6268TIP3   OH240294   4.799   0.852  11.981 -0.5271 -0.0658  0.0415
 6268TIP3    H140295   4.778   0.774  11.929  0.1486 -1.6010  2.0094
 6268TIP3    H240296   4.867   0.896  11.931 -0.1713 -1.2958 -0.5963
 6269TIP3   OH240297   6.113   5.610   4.343  0.5714  0.0239 -0.1608
 6269TIP3    H140298   6.167   5.530   4.347 -0.0589 -0.4718 -1.3638
 6269TIP3    H240299   6.093   5.620   4.250 -0.2656  0.9807  0.1223
 6270TIP3   OH240300   5.793   3.132   6.754 -0.0111  0.5589  0.2052
 6270TIP3    H140301   5.700   3.108   6.751  0.0439  0.2543  1.0095
 6270TIP3    H240302   5.802   3.183   6.834  0.8855 -0.9130  1.0535
 6271TIP3   OH240303   5.629   6.282  11.376 -0.5336 -0.0424  0.8785
 6271TIP3    H140304   5.556   6.327  11.333 -1.1691 -0.3626  1.6113
 6271TIP3    H240305   5.694   6.271  11.307 -0.4859  1.7458  0.6084
 6272TIP3   OH240306   4.351   6.050  12.365 -0.3309  0.1231  0.1223
 6272TIP3    H140307   4.390   6.034  12.451  0.0275  0.7761  0.0850
 6272TIP3    H240308   4.304   6.133  12.376 -0.0656  0.3383 -0.3939
 6273TIP3   OH240309   0.349   5.973  12.742 -0.2036  0.1351 -0.0468
 6273TIP3    H140310   0.395   6.051  12.710 -0.8775  0.3287 -0.5564
 6273TIP3    H240311   0.364   5.907  12.675  2.0553 -0.8093  1.3379
 6274TIP3   OH240312   5.317   2.233  11.843 -0.3541 -0.4258 -0.3520
 6274TIP3    H140313   5.325   2.167  11.911 -0.3850 -0.0454  0.0287
 6274TIP3    H240314   5.336   2.316  11.888  0.7927 -0.2974 -1.0649
 6275TIP3   OH240315   1.755   3.198  12.299 -0.6564 -0.0826 -0.1459
 6275TIP3    H140316   1.751   3.223  12.391  1.5130 -1.5620  0.3781
 6275TIP3    H240317   1.697   3.122  12.291  2.3162 -2.5476  0.9271
 6276TIP3   OH240318   0.324   5.808   2.545 -0.2545 -0.7930 -0.4263
 6276TIP3    H140319   0.328   5.854   2.629  0.6960 -1.7278  0.0676
 6276TIP3    H240320   0.265   5.734   2.560 -0.2122 -0.8682 -0.6205
 6277TIP3   OH240321   4.249   5.873  14.917  0.1173  0.4375  0.0732
 6277TIP3    H140322   4.178   5.887  14.854 -0.1341 -0.5639  0.1144
 6277TIP3    H240323   4.219   5.915  14.997 -1.9008 -2.6850  1.0585
 6278TIP3   OH240324   6.582   3.953  12.620  0.1856  0.6042  0.3265
 6278TIP3    H140325   6.540   4.034  12.590  0.3682  0.6503  0.1909
 6278TIP3    H240326   6.621   3.977  12.704 -0.2732  0.4928  0.5719
 6279TIP3   OH240327   6.450   1.471  17.215 -0.5899  0.6899  0.4062
 6279TIP3    H140328   6.478   1.558  17.190 -0.2459  1.3960  3.1336
 6279TIP3    H240329   6.397   1.484  17.294 -1.5430 -1.4380  0.1641
 6280TIP3   OH240330   4.236   5.516   3.484  0.0478  0.3834  0.2300
 6280TIP3    H140331   4.174   5.477   3.423 -0.5438  1.6754 -0.0107
 6280TIP3    H240332   4.321   5.505   3.442 -0.3832  1.4920 -0.9650
 6281TIP3   OH240333   4.689   3.379   3.742  0.2771  0.7906 -0.2835
 6281TIP3    H140334   4.625   3.418   3.802  0.8624  0.3524  0.6125
 6281TIP3    H240335   4.772   3.422   3.763  0.4220  0.8621 -0.9863
 6282TIP3   OH240336   6.094   1.017   6.679  0.0304  0.2141 -0.2817
 6282TIP3    H140337   6.012   1.010   6.629 -0.0841  0.1438 -0.0855
 6282TIP3    H240338   6.093   0.940   6.737  0.8991 -0.5600 -1.2649
 6283TIP3   OH240339   2.761   5.883   3.199 -0.2254  0.0076 -0.2906
 6283TIP3    H140340   2.771   5.950   3.132 -2.0070 -1.2127 -1.8073
 6283TIP3    H240341   2.701   5.921   3.263  0.3191  0.5957 -0.1192
 6284TIP3   OH240342   6.147   1.944   1.501 -0.0103  0.3767  0.6419
 6284TIP3    H140343   6.169   1.879   1.433 -0.3764 -0.4549  1.3023
 6284TIP3    H240344   6.228   1.993   1.514  0.3582 -0.1328  0.3301
 6285TIP3   OH240345   2.857   3.420   3.762 -0.3427  0.1707 -0.3315
 6285TIP3    H140346   2.922   3.425   3.692 -1.2708 -0.3384 -1.2508
 6285TIP3    H240347   2.773   3.433   3.718 -0.8971  0.4041  0.7713
 6286TIP3   OH240348   5.754   5.258   6.243  0.2143 -0.2695  0.6327
 6286TIP3    H140349   5.835   5.214   6.269 -0.8865 -1.5468  1.9949
 6286TIP3    H240350   5.759   5.343   6.286  1.6970  0.4359 -0.8622
 6287TIP3   OH240351   0.141   4.335  14.566  0.2164 -0.5204  0.4110
 6287TIP3    H140352   0.216   4.395  14.560 -0.1318 -0.2791 -2.1231
 6287TIP3    H240353   0.079   4.379  14.624 -0.0124  1.5677 -1.3854
 6288TIP3   OH240354   2.686   2.819   6.538 -0.1358  0.0797  0.3108
 6288TIP3    H140355   2.762   2.788   6.490 -1.0511  1.2716 -1.9973
 6288TIP3    H240356   2.722   2.878   6.605  1.0680 -0.6432  0.3095
 6289TIP3   OH240357   1.764   6.278  15.011 -0.0452 -0.2551  0.3951
 6289TIP3    H140358   1.703   6.253  15.080  1.6048 -0.4984  1.8250
 6289TIP3    H240359   1.841   6.223  15.026  0.8669  0.6451 -0.8217
 6290TIP3   OH240360   1.756   5.500   5.407  0.2317 -0.3028  0.2014
 6290TIP3    H140361   1.818   5.518   5.336 -1.8215  2.5259 -0.9372
 6290TIP3    H240362   1.746   5.405   5.406  0.3919 -0.3248 -3.1762
 6291TIP3   OH240363   5.222   5.008  16.074 -0.1491 -1.2267  0.2949
 6291TIP3    H140364   5.243   5.101  16.086  0.4541 -1.2691 -0.3789
 6291TIP3    H240365   5.233   4.993  15.980  0.0098 -2.0385  0.4395
 6292TIP3   OH240366   6.461   3.112  13.292 -0.2411 -0.2372  0.0203
 6292TIP3    H140367   6.410   3.031  13.299 -0.5429  0.1286  2.3546
 6292TIP3    H240368   6.406   3.179  13.331  0.7572  0.7465 -0.2300
 6293TIP3   OH240369   6.798   2.921   5.147 -0.3286  0.1775  0.0357
 6293TIP3    H140370   6.743   2.998   5.158  0.4036  0.9304 -1.3428
 6293TIP3    H240371   6.787   2.897   5.055  1.9109  0.5834 -0.3643
 6294TIP3   OH240372   4.119   2.147   0.521 -0.2636 -0.4890  0.3061
 6294TIP3    H140373   4.150   2.066   0.482  0.4932  0.3509 -0.8912
 6294TIP3    H240374   4.196   2.183   0.567 -0.4522 -0.1931  0.3945
 6295TIP3   OH240375   3.147   4.143   1.652  0.2663  0.0535  0.1965
 6295TIP3    H140376   3.070   4.087   1.664  0.3719  0.0595  0.8690
 6295TIP3    H240377   3.221   4.088   1.674  0.7896 -1.1956 -4.1460
 6296TIP3   OH240378   4.927   0.324   2.313 -0.5910 -0.0259  0.1416
 6296TIP3    H140379   5.016   0.292   2.299  0.0605  1.3302  1.0898
 6296TIP3    H240380   4.934   0.382   2.389 -2.3382 -0.1261  0.3975
 6297TIP3   OH240381   0.376   4.820  11.152 -0.4085 -0.7844 -0.3787
 6297TIP3    H140382   0.374   4.731  11.189 -2.2885 -0.4447  0.3510
 6297TIP3    H240383   0.290   4.832  11.113  0.3140  0.2358 -1.6716
 6298TIP3   OH240384   3.379   5.236   0.646 -0.1655  0.0985 -0.6617
 6298TIP3    H140385   3.474   5.241   0.636 -0.1060  1.8932  0.5775
 6298TIP3    H240386   3.355   5.155   0.601  2.2236 -1.6221  1.0344
 6299TIP3   OH240387   2.711   0.856   6.112  0.0303  0.1257 -0.0365
 6299TIP3    H140388   2.738   0.947   6.125 -0.7507  0.5413 -1.1839
 6299TIP3    H240389   2.618   0.862   6.092 -0.1577 -0.9897  0.4812
 6300TIP3   OH240390   3.906   6.702   5.972  0.2107 -0.0916  0.2709
 6300TIP3    H140391   3.892   6.609   5.988 -1.2505 -0.1258 -1.0084
 6300TIP3    H240392   3.902   6.742   6.058 -0.3233 -1.0870  0.7182
 6301TIP3   OH240393   4.169   2.507  13.654  0.2636  0.2413  0.8746
 6301TIP3    H140394   4.204   2.418  13.664  2.2028  0.8051 -0.5936
 6301TIP3    H240395   4.160   2.539  13.744 -0.0861 -1.2903  1.4056
 6302TIP3   OH240396   6.153   2.174  15.953  0.0535  0.2426  0.4052
 6302TIP3    H140397   6.142   2.159  15.859  0.8636 -0.1970  0.3806
 6302TIP3    H240398   6.221   2.113  15.980 -0.6820 -0.1356  1.4313
 6303TIP3   OH240399   4.104   0.752  15.691 -0.2853  0.4359 -1.2323
 6303TIP3    H140400   4.047   0.802  15.749  0.9651  0.4656 -0.0300
 6303TIP3    H240401   4.167   0.815  15.657  1.1335 -0.2419  0.0859
 6304TIP3   OH240402   0.391   2.599  16.394 -0.4474 -0.4263 -0.5123
 6304TIP3    H140403   0.334   2.597  16.317 -1.7601 -3.1419  0.4261
 6304TIP3    H240404   0.472   2.557  16.365  0.3454  1.6124 -1.3041
 6305TIP3   OH240405   5.836   1.825  15.527 -0.8454  0.0607 -0.2512
 6305TIP3    H140406   5.887   1.834  15.608 -0.4614  1.1160 -0.5988
 6305TIP3    H240407   5.750   1.860  15.548 -0.6919  0.5006 -0.3409
 6306TIP3   OH240408   3.128   1.454   3.226  0.3099 -0.8070 -0.0199
 6306TIP3    H140409   3.177   1.462   3.308  1.5216 -0.2371 -0.7938
 6306TIP3    H240410   3.133   1.361   3.203  2.2081 -0.5214 -0.8098
 6307TIP3   OH240411   5.792   1.596   5.779  0.3850  0.4065  0.5156
 6307TIP3    H140412   5.858   1.655   5.816 -0.2474  1.2393  0.3324
 6307TIP3    H240413   5.786   1.621   5.687 -0.8268  0.9604  0.7233
 6308TIP3   OH240414   0.890   5.173  14.119  0.0738 -0.1072 -0.2776
 6308TIP3    H140415   0.973   5.203  14.156  0.2586  0.3900 -1.0731
 6308TIP3    H240416   0.915   5.118  14.044 -0.2990 -0.7114  0.0341
 6309TIP3   OH240417   2.004   1.400   3.237 -0.1103  0.2120 -0.4579
 6309TIP3    H140418   1.983   1.493   3.247 -1.3006 -0.0748 -0.1550
 6309TIP3    H240419   2.099   1.395   3.252 -0.2663  1.1854  0.9582
 6310TIP3   OH240420   0.037   2.880   4.324  0.3227 -0.3709  0.4020
 6310TIP3    H140421   0.048   2.833   4.241 -2.5296 -0.1537 -0.1612
 6310TIP3    H240422   0.053   2.814   4.392 -0.8612 -1.4661 -0.3645
 6311TIP3   OH240423   4.360   4.696  14.994 -0.4181  0.3309  0.1463
 6311TIP3    H140424   4.367   4.747  14.913  0.5632 -0.4279 -0.2549
 6311TIP3    H240425   4.306   4.621  14.969  1.2083 -0.7336 -0.2335
 6312TIP3   OH240426   3.621   6.656  12.352  0.2219  0.1138  0.0722
 6312TIP3    H140427   3.708   6.694  12.367 -0.1774  0.0939  2.7402
 6312TIP3    H240428   3.611   6.592  12.422 -1.9374  0.0981 -0.2367
 6313TIP3   OH240429   0.353   1.409  12.194  0.3469  0.0507  0.3358
 6313TIP3    H140430   0.275   1.416  12.139 -0.0278 -0.7310  0.7590
 6313TIP3    H240431   0.320   1.415  12.283  0.7254 -0.7150  0.5294
 6314TIP3   OH240432   0.099   5.947  11.896  0.0582  0.1447  0.3230
 6314TIP3    H140433   0.056   5.975  11.815 -0.4214 -0.6519  0.2996
 6314TIP3    H240434   0.054   5.996  11.965  0.2544  0.5878  0.1339
 6315TIP3   OH240435   6.741   4.325   0.473 -0.0340  0.1012 -0.0996
 6315TIP3    H140436   6.816   4.288   0.519  0.5209  1.1241 -0.1772
 6315TIP3    H240437   6.714   4.257   0.412 -0.4878 -1.0969  1.4010
 6316TIP3   OH240438   2.965   6.676  13.662  0.5405 -0.5216  0.4261
 6316TIP3    H140439   2.916   6.602  13.627  2.0151 -0.4750 -1.7801
 6316TIP3    H240440   3.035   6.637  13.714  1.7020 -0.7149 -1.2559
 6317TIP3   OH240441   4.605   2.125  12.757  0.0749  0.1422 -1.0692
 6317TIP3    H140442   4.677   2.129  12.820  0.7427  0.7317 -1.8610
 6317TIP3    H240443   4.644   2.091  12.677 -0.9839 -1.5527 -0.8880
 6318TIP3   OH240444   5.137   5.649  13.981  0.7481 -0.3060  0.8589
 6318TIP3    H140445   5.225   5.681  14.000  0.8086 -0.2400  0.4693
 6318TIP3    H240446   5.151   5.571  13.926  0.5105  0.8237 -0.8308
 6319TIP3   OH240447   6.042   2.621  16.098 -0.2029  0.4919  0.5117
 6319TIP3    H140448   6.079   2.533  16.102 -1.7862 -0.3652 -2.2199
 6319TIP3    H240449   6.118   2.680  16.097  0.9193 -0.9380  0.3755
 6320TIP3   OH240450   1.472   1.328  16.542 -0.1935  0.1364 -0.3897
 6320TIP3    H140451   1.435   1.310  16.455 -1.5390  3.1499 -0.4993
 6320TIP3    H240452   1.528   1.404  16.530 -0.3199  0.5398  1.3775
 6321TIP3   OH240453   2.763   4.973  16.045  0.4188  0.2924  0.0283
 6321TIP3    H140454   2.855   4.989  16.067  0.6343  1.3030 -1.4846
 6321TIP3    H240455   2.719   5.054  16.068  0.2811  0.5700 -1.1368
 6322TIP3   OH240456   4.330   1.100  14.975  0.3605  0.6056 -0.7486
 6322TIP3    H140457   4.284   1.183  14.967  2.0939  1.7316  0.3987
 6322TIP3    H240458   4.402   1.106  14.912  0.6504  0.1040 -0.4719
 6323TIP3   OH240459   0.105   5.507   2.863 -0.1258 -0.4485  0.3827
 6323TIP3    H140460   0.092   5.569   2.792 -0.2664  0.5088  1.2335
 6323TIP3    H240461   0.162   5.553   2.925  1.9084 -2.1224 -0.1884
 6324TIP3   OH240462   3.491   4.629  15.783  0.7119  0.1502  0.3355
 6324TIP3    H140463   3.448   4.715  15.787  1.0177  0.2956  0.4929
 6324TIP3    H240464   3.584   4.649  15.774  0.4516 -0.1425 -4.0735
 6325TIP3   OH240465   2.559   2.532  10.715 -0.1019  0.3208  0.4831
 6325TIP3    H140466   2.515   2.616  10.724 -0.1325  0.1300  2.1808
 6325TIP3    H240467   2.649   2.555  10.693 -0.4468  0.7568 -0.5174
 6326TIP3   OH240468   2.814   0.274  12.472 -0.8990  0.1840 -0.6297
 6326TIP3    H140469   2.766   0.283  12.554 -0.1230  0.5247 -0.2039
 6326TIP3    H240470   2.793   0.186  12.441 -0.7256 -0.1729  0.2403
 6327TIP3   OH240471   6.624   0.827   0.139 -0.0807  0.7913  0.1833
 6327TIP3    H140472   6.548   0.769   0.141 -0.5365  1.3791 -0.0184
 6327TIP3    H240473   6.639   0.845   0.046  0.2321  0.7773  0.2285
 6328TIP3   OH240474   5.793   1.869  15.259 -0.2664  0.4357 -0.0619
 6328TIP3    H140475   5.824   1.833  15.342 -0.9512 -0.2008 -0.0866
 6328TIP3    H240476   5.792   1.964  15.274 -1.3718  0.2669  1.0018
 6329TIP3   OH240477   5.614   3.805   3.931 -0.4255  0.3428  0.0351
 6329TIP3    H140478   5.690   3.861   3.947 -0.5346  0.1706  1.1442
 6329TIP3    H240479   5.570   3.846   3.856  0.4888  0.7186 -0.2960
 6330TIP3   OH240480   3.368   2.109  11.679 -0.8750 -0.1561  0.0409
 6330TIP3    H140481   3.458   2.078  11.673 -1.0356 -0.6631  0.2065
 6330TIP3    H240482   3.369   2.195  11.637 -0.9218 -1.4268 -2.6833
 6331TIP3   OH240483   2.828   2.921  10.924 -0.2274 -0.3115  0.0997
 6331TIP3    H140484   2.738   2.902  10.949 -0.3983 -1.2587 -1.1753
 6331TIP3    H240485   2.832   2.900  10.831  1.3025 -0.2477  0.1357
 6332TIP3   OH240486   2.752   6.168  16.852  0.7162  0.3807 -0.2421
 6332TIP3    H140487   2.677   6.121  16.815  0.4470  0.7511 -0.1662
 6332TIP3    H240488   2.733   6.172  16.946  0.3467  1.3506 -0.3559
 6333TIP3   OH240489   4.019   1.195   3.621 -0.0573  0.5241  0.1514
 6333TIP3    H140490   3.969   1.246   3.558  0.1991  2.9795  1.8390
 6333TIP3    H240491   3.972   1.207   3.704  1.5953  0.3683  1.1420
 6334TIP3   OH240492   0.265   3.098  13.268  0.3367 -0.0944  0.0741
 6334TIP3    H140493   0.171   3.106  13.285 -0.0495  0.4278 -2.0957
 6334TIP3    H240494   0.270   3.060  13.180  2.1534  0.4367 -0.0704
 6335TIP3   OH240495   6.226   3.020   3.600 -0.2364  0.1564  0.3473
 6335TIP3    H140496   6.286   3.069   3.543  0.2806 -1.3172 -0.3798
 6335TIP3    H240497   6.270   3.021   3.685 -0.4305  1.3184  0.4459
 6336TIP3   OH240498   2.497   1.227   6.147 -0.5082 -0.3751 -0.5388
 6336TIP3    H140499   2.576   1.174   6.136  0.5743  1.1174 -0.0630
 6336TIP3    H240500   2.425   1.165   6.135  0.7293 -1.8706 -0.4033
 6337TIP3   OH240501   0.275   5.212   6.007  0.5669  0.2447 -0.5449
 6337TIP3    H140502   0.251   5.235   5.918  1.2444  2.6805 -0.1360
 6337TIP3    H240503   0.204   5.248   6.061  0.1130 -1.2934 -0.1063
 6338TIP3   OH240504   1.300   4.394  13.807 -0.0247  0.1771  0.5916
 6338TIP3    H140505   1.316   4.314  13.857 -1.1836 -0.4799 -0.0601
 6338TIP3    H240506   1.271   4.363  13.721 -0.8508  1.3006  0.4516
 6339TIP3   OH240507   4.658   1.518  16.538 -0.3059  0.4373 -0.3949
 6339TIP3    H140508   4.718   1.589  16.514  1.2101 -0.6934 -0.0327
 6339TIP3    H240509   4.615   1.548  16.618  0.9508  0.6075  0.2276
 6340TIP3   OH240510   0.058   0.524  15.844  0.0883  0.2095 -0.3144
 6340TIP3    H140511   0.078   0.464  15.773 -1.6864 -0.0259 -0.6301
 6340TIP3    H240512  -0.034   0.547  15.831 -0.1999  0.3336  1.7667
 6341TIP3   OH240513   1.610   3.606  16.723  0.3869 -0.2596 -0.2085
 6341TIP3    H140514   1.565   3.651  16.794  1.4669 -1.3915  1.2057
 6341TIP3    H240515   1.539   3.570  16.670 -0.4608 -2.7799  2.4958
 6342TIP3   OH240516   5.130   4.292  16.064 -0.0744  0.1040 -0.0660
 6342TIP3    H140517   5.116   4.365  16.124 -0.3111 -0.7086  0.8964
 6342TIP3    H240518   5.044   4.278  16.023  0.0136  0.4729 -0.3744
 6343TIP3   OH240519   0.927   4.686  10.623  0.6799 -0.0784  0.1739
 6343TIP3    H140520   0.861   4.731  10.676  0.5591 -1.7028  1.4596
 6343TIP3    H240521   0.973   4.629  10.685 -1.3267 -4.1574 -1.8943
 6344TIP3   OH240522   0.062   5.382   5.214  0.3119  0.6584 -0.0912
 6344TIP3    H140523   0.003   5.329   5.267  1.8069  1.0032  1.9674
 6344TIP3    H240524   0.135   5.324   5.195  1.2480  1.4801  0.9043
 6345TIP3   OH240525   5.088   0.412   1.997  0.0759 -0.5315 -0.1207
 6345TIP3    H140526   5.154   0.417   2.066  0.1634  1.1305 -0.3093
 6345TIP3    H240527   5.056   0.322   2.001  3.2187 -1.7814 -0.8332
 6346TIP3   OH240528   5.268   6.467  16.178 -0.4469 -0.5954 -0.3250
 6346TIP3    H140529   5.291   6.435  16.265 -0.1685 -0.7230 -0.4483
 6346TIP3    H240530   5.228   6.392  16.135 -2.9176  0.1360  0.5538
 6347TIP3   OH240531   2.397   5.629   3.602 -0.0431  0.3269  0.2912
 6347TIP3    H140532   2.491   5.611   3.602  0.2111  1.6142  0.3222
 6347TIP3    H240533   2.390   5.725   3.603 -1.3423  0.2798 -1.1436
 6348TIP3   OH240534   0.793   6.696  13.645  0.2499  0.0975  0.5276
 6348TIP3    H140535   0.882   6.664  13.660  0.9959  1.3849 -0.9751
 6348TIP3    H240536   0.805   6.773  13.589 -2.0442 -2.4234 -3.6920
 6349TIP3   OH240537   4.004   2.243  12.344 -0.0124 -0.2293  0.5714
 6349TIP3    H140538   3.923   2.248  12.395  0.3677 -1.4460  1.2900
 6349TIP3    H240539   4.017   2.150  12.328  0.2475  0.0867 -1.1679
 6350TIP3   OH240540   4.902   2.115   0.273 -0.1459  0.6976 -0.5067
 6350TIP3    H140541   4.962   2.041   0.286  0.9179  1.7157  0.5259
 6350TIP3    H240542   4.930   2.179   0.338 -0.5810  2.2985 -1.8807
 6351TIP3   OH240543   2.266   4.671   2.262 -0.5393  0.1586  0.0600
 6351TIP3    H140544   2.315   4.621   2.197  0.4056  0.6070  0.4163
 6351TIP3    H240545   2.250   4.610   2.334 -0.2939  0.0751  0.0432
 6352TIP3   OH240546   6.012   4.153  12.632  0.3519 -0.2429 -0.4193
 6352TIP3    H140547   6.089   4.096  12.641  0.8459  0.2932 -1.1929
 6352TIP3    H240548   5.953   4.104  12.575 -0.7042 -1.4858  1.6564
 6353TIP3   OH240549   1.110   0.109  16.791  0.6238 -0.3965 -0.1675
 6353TIP3    H140550   1.152   0.068  16.867  0.1773 -1.1427 -0.3121
 6353TIP3    H240551   1.116   0.043  16.722  1.5714  0.5226 -0.9671
 6354TIP3   OH240552   1.026   2.521  13.276 -0.1688 -0.3753 -0.1836
 6354TIP3    H140553   1.051   2.530  13.368  1.0340  0.3479 -0.5730
 6354TIP3    H240554   1.087   2.456  13.241  0.7692  0.9209 -0.9771
 6355TIP3   OH240555   2.652   3.589   2.065  0.0023  0.3331  0.1539
 6355TIP3    H140556   2.614   3.529   2.130  1.3233 -1.2151 -0.4657
 6355TIP3    H240557   2.609   3.566   1.983  0.3647  0.3924 -0.0503
 6356TIP3   OH240558   2.408   4.774  13.838  0.0122 -0.0459  0.3656
 6356TIP3    H140559   2.392   4.712  13.909 -0.2052  1.7545  1.9216
 6356TIP3    H240560   2.480   4.829  13.869  0.1147  0.5906 -0.9307
 6357TIP3   OH240561   2.101   0.161  11.312  0.5407 -0.3257 -0.0013
 6357TIP3    H140562   2.096   0.206  11.397  2.2000  0.2034 -0.1746
 6357TIP3    H240563   2.153   0.220  11.257  0.1352 -1.0427 -1.1564
 6358TIP3   OH240564   4.659   1.683   3.723  0.5590  0.0904 -0.2495
 6358TIP3    H140565   4.677   1.774   3.748  0.8966 -0.7066  2.5302
 6358TIP3    H240566   4.564   1.678   3.722  0.5358  0.1313  0.9523
 6359TIP3   OH240567   1.716   0.847   3.933 -0.4138  0.0109 -0.2009
 6359TIP3    H140568   1.769   0.902   3.876  0.3666 -0.6519 -0.1331
 6359TIP3    H240569   1.627   0.855   3.898 -0.3330  1.4085 -0.0949
 6360TIP3   OH240570   0.046   1.877   4.711 -0.2663  0.2019 -0.3494
 6360TIP3    H140571   0.099   1.950   4.680 -0.3749  0.7933  0.8538
 6360TIP3    H240572   0.004   1.909   4.790  0.9460 -1.6698  1.1108
 6361TIP3   OH240573   0.669   2.568  16.085 -0.1043 -0.0224 -0.5358
 6361TIP3    H140574   0.623   2.522  16.155  0.4409  0.6667  0.2784
 6361TIP3    H240575   0.749   2.601  16.126  1.4843 -1.7980 -2.0813
 6362TIP3   OH240576   4.646   2.153   0.942  0.1632  0.1726  0.6112
 6362TIP3    H140577   4.641   2.234   0.891 -2.0087 -1.0051 -1.1879
 6362TIP3    H240578   4.736   2.124   0.932  0.6870  1.8361  0.3942
 6363TIP3   OH240579   6.289   4.076   4.782 -0.2515  1.0256 -0.2914
 6363TIP3    H140580   6.211   4.021   4.780  0.4306 -0.0194  1.2695
 6363TIP3    H240581   6.262   4.155   4.828 -0.9246  1.5510 -1.5525
 6364TIP3   OH240582   3.737   2.985  14.972 -0.2142 -0.0544 -0.3916
 6364TIP3    H140583   3.647   3.001  14.943  0.1955 -0.4595 -1.9333
 6364TIP3    H240584   3.728   2.949  15.060 -1.6083 -1.1062 -0.9599
 6365TIP3   OH240585   3.298   3.274  14.503 -0.0186  0.1001  0.5951
 6365TIP3    H140586   3.366   3.340  14.509 -2.0374  2.1524  1.3703
 6365TIP3    H240587   3.312   3.218  14.579  1.3305 -0.0355  0.2627
 6366TIP3   OH240588   0.525   0.223  13.781  0.0280 -0.0213 -0.4154
 6366TIP3    H140589   0.615   0.235  13.752 -0.1580 -0.4625 -1.2085
 6366TIP3    H240590   0.531   0.170  13.860  0.4728 -0.0555 -0.4736
 6367TIP3   OH240591   2.044   1.740   5.981 -0.5737  0.3625  0.2389
 6367TIP3    H140592   2.130   1.780   5.979 -0.8942  1.0008 -1.7868
 6367TIP3    H240593   1.987   1.805   6.023 -0.7712  1.4075 -1.6116
 6368TIP3   OH240594   5.323   0.623  13.576 -0.4844  0.1718 -0.2117
 6368TIP3    H140595   5.413   0.593  13.567 -0.5965 -0.4033  0.5443
 6368TIP3    H240596   5.329   0.718  13.572  0.0301  0.0978 -1.2334
 6369TIP3   OH240597   2.400   5.113   4.801 -0.7622  0.4801 -0.0068
 6369TIP3    H140598   2.423   5.183   4.861  0.2389 -0.0921  0.3010
 6369TIP3    H240599   2.395   5.155   4.715 -1.1494  1.1034  0.3210
 6370TIP3   OH240600   4.318   3.297   1.935 -0.1058  0.3918  0.2044
 6370TIP3    H140601   4.281   3.252   1.859 -0.0488 -0.0918  0.4628
 6370TIP3    H240602   4.285   3.386   1.929 -1.9406 -0.2277  0.8626
 6371TIP3   OH240603   3.530   1.203  15.652 -0.8613 -0.3478  0.0638
 6371TIP3    H140604   3.541   1.277  15.711 -2.7665 -1.4019  1.7919
 6371TIP3    H240605   3.438   1.179  15.660 -0.7796 -1.5730 -2.0986
 6372TIP3   OH240606   5.130   4.045  11.084  0.4136 -0.0640  0.4613
 6372TIP3    H140607   5.051   4.097  11.097 -0.6924 -1.3275 -1.0552
 6372TIP3    H240608   5.176   4.087  11.012  0.7546  0.2114  0.8325
 6373TIP3   OH240609   6.765   5.515   5.004 -0.3488  0.1050 -0.0438
 6373TIP3    H140610   6.794   5.468   5.083  0.1332  1.6535  0.7231
 6373TIP3    H240611   6.845   5.551   4.967 -0.8018  0.9597 -0.1995
 6374TIP3   OH240612   0.674   6.688  14.143  0.1763  0.0096  0.7213
 6374TIP3    H140613   0.647   6.651  14.059 -1.0790  3.5411 -0.5236
 6374TIP3    H240614   0.669   6.614  14.204 -1.1379 -2.0949 -1.8099
 6375TIP3   OH240615   4.966   3.059   0.506 -0.0900 -0.3397 -0.2696
 6375TIP3    H140616   4.987   3.137   0.455 -0.2898  0.5090  0.9047
 6375TIP3    H240617   5.051   3.020   0.526  0.1893  0.9946  1.2727
 6376TIP3   OH240618   0.698   2.108   4.644 -0.1422  0.0848  0.5406
 6376TIP3    H140619   0.638   2.135   4.713  1.4343  2.8648  0.8665
 6376TIP3    H240620   0.746   2.034   4.682  0.5422  1.4221  2.3218
 6377TIP3   OH240621   0.375   3.943  13.735 -0.1266  0.5651  0.0263
 6377TIP3    H140622   0.349   3.880  13.803  0.8076  0.6663  0.4850
 6377TIP3    H240623   0.299   3.948  13.677 -1.0520  0.6853  1.2207
 6378TIP3   OH240624   0.270   1.366  13.664  0.7387 -0.3100 -0.2330
 6378TIP3    H140625   0.246   1.365  13.757  0.6173 -2.5032 -0.2450
 6378TIP3    H240626   0.239   1.450  13.632  0.8107  0.4880  1.7331
 6379TIP3   OH240627   2.245   6.289   4.368  0.1361  0.1490  0.8077
 6379TIP3    H140628   2.221   6.241   4.289 -0.3248  0.5954  0.6698
 6379TIP3    H240629   2.294   6.227   4.421  0.2949 -0.2020  0.2439
 6380TIP3   OH240630   5.535   2.312   5.132  0.2475 -0.0917 -0.1473
 6380TIP3    H140631   5.453   2.360   5.144  1.2383  1.5181  0.3826
 6380TIP3    H240632   5.549   2.268   5.216  0.7843  1.0040  0.3415
 6381TIP3   OH240633   1.630   4.607  11.348  0.5693 -0.2835  0.1653
 6381TIP3    H140634   1.575   4.682  11.370  1.7212  1.1107 -1.6270
 6381TIP3    H240635   1.602   4.581  11.260  0.3931 -1.7699  0.6431
 6382TIP3   OH240636   3.729   0.875   3.710 -0.4347  0.0570  0.0094
 6382TIP3    H140637   3.705   0.857   3.801 -0.0686  0.6239  0.2179
 6382TIP3    H240638   3.691   0.802   3.661  1.1673 -1.3803  0.8625
 6383TIP3   OH240639   2.670   0.817   5.571 -0.3604 -0.1758  0.1571
 6383TIP3    H140640   2.648   0.908   5.551 -1.7973 -0.2948  1.0991
 6383TIP3    H240641   2.599   0.766   5.532  1.4308 -1.0636 -2.0255
 6384TIP3   OH240642   0.913   6.641  14.792  0.2068 -0.1882 -0.1403
 6384TIP3    H140643   0.948   6.679  14.872  2.2736 -1.7587 -0.2606
 6384TIP3    H240644   0.980   6.660  14.725 -0.3427 -1.0467 -0.9445
 6385TIP3   OH240645   4.732   2.709   4.874  0.4367  0.1543  0.3112
 6385TIP3    H140646   4.708   2.747   4.789 -0.9558 -0.7733  0.2783
 6385TIP3    H240647   4.764   2.621   4.852 -0.8127 -0.4298  0.8429
 6386TIP3   OH240648   1.919   4.278  15.543 -0.4743  0.0319  0.3057
 6386TIP3    H140649   1.924   4.310  15.453 -2.0376  0.4846  0.3656
 6386TIP3    H240650   1.975   4.200  15.544  1.0831  1.1200 -0.5532
 6387TIP3   OH240651   6.649   3.223  14.137 -0.2879  0.4031 -0.7784
 6387TIP3    H140652   6.625   3.151  14.195  0.2695  1.2311  0.5030
 6387TIP3    H240653   6.566   3.255  14.101 -0.6935  0.3606  0.1287
 6388TIP3   OH240654   4.244   5.217   6.004  0.4240  0.1266  0.6128
 6388TIP3    H140655   4.221   5.124   5.994  1.4706 -0.4900  3.3089
 6388TIP3    H240656   4.328   5.215   6.050 -0.8618  2.4144  3.1915
 6389TIP3   OH240657   5.407   3.138  14.377 -0.4336 -0.3273  0.7320
 6389TIP3    H140658   5.420   3.078  14.450 -1.1437  0.0956  1.2042
 6389TIP3    H240659   5.315   3.129  14.353 -0.3106 -0.1460  0.1657
 6390TIP3   OH240660   5.635   5.360  13.697 -0.1674 -0.3741  1.1231
 6390TIP3    H140661   5.557   5.415  13.702 -1.1119 -1.5629 -0.1891
 6390TIP3    H240662   5.673   5.364  13.785 -0.8839  1.3918  1.3641
 6391TIP3   OH240663   4.259   3.228  12.163 -0.6610 -0.1640  0.2243
 6391TIP3    H140664   4.263   3.323  12.178 -0.7289 -0.0039 -0.7562
 6391TIP3    H240665   4.191   3.217  12.097  0.7904 -0.7102 -1.2038
 6392TIP3   OH240666   0.232   5.473  11.661 -0.0780 -0.3692 -0.3883
 6392TIP3    H140667   0.216   5.535  11.732 -0.3870 -1.7473  0.7667
 6392TIP3    H240668   0.161   5.409  11.668 -1.3861  0.6921 -3.3422
 6393TIP3   OH240669   2.118   5.459   2.396  0.1274 -0.1091  0.0254
 6393TIP3    H140670   2.092   5.520   2.465  0.9182 -0.1356  0.3479
 6393TIP3    H240671   2.193   5.412   2.432  0.4837 -0.1924 -0.8156
 6394TIP3   OH240672   2.857   5.649   1.376  0.1665  0.0315 -0.2195
 6394TIP3    H140673   2.782   5.596   1.404  1.3572 -0.8490  1.4191
 6394TIP3    H240674   2.819   5.733   1.350 -1.4287 -0.5598  0.1331
 6395TIP3   OH240675   6.274   3.031   0.532  0.1140  0.2074  0.3884
 6395TIP3    H140676   6.338   3.022   0.461 -1.3080  0.7681 -1.0109
 6395TIP3    H240677   6.194   2.991   0.496 -1.2315  2.3827  0.8602
 6396TIP3   OH240678   4.478   5.446   0.653  0.2494  0.7259 -0.0441
 6396TIP3    H140679   4.427   5.405   0.723 -0.8188  0.6495 -0.8502
 6396TIP3    H240680   4.539   5.378   0.625 -0.2636  0.2973 -0.1291
 6397TIP3   OH240681   5.077   2.040   2.951 -0.7849 -0.1114 -0.4836
 6397TIP3    H140682   5.085   2.017   2.858 -0.0433  1.2003 -0.7539
 6397TIP3    H240683   4.983   2.050   2.965 -0.8242  0.7398 -1.3527
 6398TIP3   OH240684   0.109   0.017  14.889 -0.1149 -0.9623  0.5488
 6398TIP3    H140685   0.111  -0.076  14.867  1.0407 -0.8313  0.1028
 6398TIP3    H240686   0.200   0.040  14.906 -0.0501  0.6812 -1.7946
 6399TIP3   OH240687   0.733   6.191   2.260  0.2471 -0.3449  0.0964
 6399TIP3    H140688   0.757   6.195   2.168 -0.1115 -0.5155 -0.0037
 6399TIP3    H240689   0.804   6.141   2.301  0.4410 -0.2084 -0.0706
 6400TIP3   OH240690   5.419   2.392   4.502 -0.2135 -0.3140 -0.2636
 6400TIP3    H140691   5.506   2.359   4.479  0.3796  0.5993  0.5914
 6400TIP3    H240692   5.426   2.414   4.595 -0.9308  1.0802 -0.5262
 6401TIP3   OH240693   0.503   5.717   3.507 -0.1230 -0.3810 -0.4268
 6401TIP3    H140694   0.488   5.700   3.414  2.6613  0.6838 -1.1149
 6401TIP3    H240695   0.596   5.739   3.513  0.1673 -2.1652  2.8833
 6402TIP3   OH240696   1.135   1.715   3.296  0.6674  0.2598  0.2266
 6402TIP3    H140697   1.084   1.677   3.368  1.4991  1.2091  1.3267
 6402TIP3    H240698   1.190   1.643   3.265 -1.2034 -0.7342 -0.8622
 6403TIP3   OH240699   5.192   5.645  12.587  0.2865  0.4542  0.2129
 6403TIP3    H140700   5.212   5.553  12.572  1.5423  0.4511  1.6607
 6403TIP3    H240701   5.156   5.677  12.504  0.0140 -1.2833 -0.3473
 6404TIP3   OH240702   4.223   6.819  14.977 -0.2558  0.6523 -0.4776
 6404TIP3    H140703   4.222   6.788  14.887  1.4680 -1.1434  0.0798
 6404TIP3    H240704   4.310   6.858  14.988 -0.1184  0.0651  0.6437
 6405TIP3   OH240705   3.873   6.099   3.333  0.1801 -0.2460 -0.7082
 6405TIP3    H140706   3.881   6.191   3.357 -0.4385 -0.1227 -0.9729
 6405TIP3    H240707   3.925   6.091   3.253 -2.3926  0.5912 -2.5061
 6406TIP3   OH240708   4.122   2.808   2.190 -0.1295  0.4856 -0.0688
 6406TIP3    H140709   4.058   2.752   2.146  0.9396 -1.5743  0.9051
 6406TIP3    H240710   4.073   2.886   2.214 -2.0877 -0.6909 -0.0965
 6407TIP3   OH240711   6.308   4.861   3.779  0.3257 -0.2089  0.7897
 6407TIP3    H140712   6.392   4.866   3.826  1.8342 -2.2891 -1.5810
 6407TIP3    H240713   6.281   4.952   3.767  2.6791  0.5140  0.8461
 6408TIP3   OH240714   6.753   0.763  11.313  0.7081 -0.2598 -0.0180
 6408TIP3    H140715   6.709   0.848  11.312 -0.6272 -0.9433  0.4997
 6408TIP3    H240716   6.714   0.716  11.387  2.1454 -0.9611  0.3217
 6409TIP3   OH240717   2.769   6.469  14.793  1.3259  0.6157  0.3522
 6409TIP3    H140718   2.829   6.423  14.734  0.7335  0.8816 -0.4608
 6409TIP3    H240719   2.732   6.540  14.740 -0.2798 -0.0068  0.6038
 6410TIP3   OH240720   0.123   1.455  11.015  0.0997 -0.0456  0.2534
 6410TIP3    H140721   0.189   1.466  10.946  1.9832 -2.2993  1.5918
 6410TIP3    H240722   0.040   1.471  10.972  1.2575 -1.2070 -2.5305
 6411TIP3   OH240723   6.814   5.118   1.949  0.0510 -0.3876  0.0946
 6411TIP3    H140724   6.890   5.173   1.932 -1.0103  0.7084 -1.2988
 6411TIP3    H240725   6.744   5.180   1.969 -0.4224 -1.3905  1.6073
 6412TIP3   OH240726   0.426   6.134  15.233  0.1079 -0.2671  0.0080
 6412TIP3    H140727   0.511   6.104  15.200  0.3274 -0.0696  0.3932
 6412TIP3    H240728   0.368   6.129  15.157  0.2479 -1.2656 -0.0444
 6413TIP3   OH240729   1.548   4.622  12.088 -0.6726 -0.5602 -0.1576
 6413TIP3    H140730   1.511   4.551  12.140 -0.4031 -0.0108  0.8103
 6413TIP3    H240731   1.537   4.700  12.143 -0.2605  0.0069 -0.8690
 6414TIP3   OH240732   3.995   4.277  14.194 -0.1282  0.1778 -0.3123
 6414TIP3    H140733   4.063   4.223  14.154 -0.0064  0.9505 -1.1619
 6414TIP3    H240734   3.955   4.324  14.121 -0.5786  0.8498  0.3580
 6415TIP3   OH240735   3.069   2.266   0.276 -0.2406 -0.0741 -0.0014
 6415TIP3    H140736   3.012   2.193   0.252 -1.2241  0.4047  0.7894
 6415TIP3    H240737   3.092   2.249   0.368 -2.0913  1.5832  0.8312
 6416TIP3   OH240738   5.101   6.743  13.874  0.0211 -0.2028  0.2785
 6416TIP3    H140739   5.193   6.767  13.880 -0.0677  0.5417 -1.0585
 6416TIP3    H240740   5.091   6.668  13.932  1.1591  0.5802  1.4918
 6417TIP3   OH240741   4.545   1.154   0.085 -0.0972  0.3137  0.1908
 6417TIP3    H140742   4.475   1.121   0.028  0.0753  0.9555 -0.4060
 6417TIP3    H240743   4.604   1.080   0.096 -1.9830 -0.9061  2.4961
 6418TIP3   OH240744   2.927   1.210  15.241 -0.0550 -0.3088 -0.3179
 6418TIP3    H140745   2.992   1.277  15.220 -0.0691  0.2199  1.3059
 6418TIP3    H240746   2.909   1.221  15.334 -1.8336 -1.0187 -0.5485
 6419TIP3   OH240747   6.003   6.159  13.723 -0.0586  0.0449 -0.4796
 6419TIP3    H140748   6.055   6.238  13.732 -0.3318  0.0525  1.3638
 6419TIP3    H240749   5.914   6.186  13.747 -0.7193 -0.2143 -2.5342
 6420TIP3   OH240750   1.410   6.264  12.202  0.9237  0.1934 -0.5259
 6420TIP3    H140751   1.488   6.229  12.245  1.5782  0.7206 -1.2797
 6420TIP3    H240752   1.426   6.249  12.109  0.2961  0.6654 -0.7053
 6421TIP3   OH240753   3.457   5.157  15.522 -0.1040  0.0978 -0.0556
 6421TIP3    H140754   3.519   5.124  15.457 -0.4409  2.1221 -1.4728
 6421TIP3    H240755   3.396   5.085  15.536  0.3710 -0.6158 -1.4965
 6422TIP3   OH240756   2.908   4.322   6.737  0.0915  0.2136  0.3901
 6422TIP3    H140757   2.949   4.382   6.800  1.0779 -0.3371  0.2916
 6422TIP3    H240758   2.875   4.378   6.668  1.2517  0.6380  0.1669
 6423TIP3   OH240759   5.952   6.556  14.739 -0.2051  0.1771 -0.0530
 6423TIP3    H140760   6.047   6.568  14.744 -0.0348  0.0942 -2.4890
 6423TIP3    H240761   5.941   6.464  14.715 -0.9304  0.0311  0.8149
 6424TIP3   OH240762   1.529   0.154  15.147  0.4981 -0.4941  0.5325
 6424TIP3    H140763   1.539   0.247  15.164  0.8493 -0.2013 -1.1872
 6424TIP3    H240764   1.451   0.128  15.196 -1.0891  1.2566 -1.0116
 6425TIP3   OH240765   1.159   1.242  15.481 -0.5044 -0.0394 -0.4380
 6425TIP3    H140766   1.234   1.221  15.537 -1.4116 -1.4958  0.2516
 6425TIP3    H240767   1.182   1.326  15.441  0.9377  0.1451  0.7403
 6426TIP3   OH240768   5.447   4.602  13.393  0.3112 -0.4499 -0.3456
 6426TIP3    H140769   5.388   4.565  13.328  1.0339 -2.2129 -0.0328
 6426TIP3    H240770   5.444   4.541  13.466  2.4659 -0.5526 -0.3084
 6427TIP3   OH240771   0.733   5.159  12.791  0.0537 -0.1979  0.1427
 6427TIP3    H140772   0.719   5.074  12.748  0.0808  0.7751 -1.8731
 6427TIP3    H240773   0.792   5.206  12.732  0.7264  0.9244  1.6660
 6428TIP3   OH240774   0.808   1.605   6.600  0.4685  0.1067  0.0955
 6428TIP3    H140775   0.801   1.633   6.691 -0.1776  0.8381 -0.1811
 6428TIP3    H240776   0.858   1.674   6.557  0.7844 -0.2441 -0.1094
 6429TIP3   OH240777   1.346   3.906   3.182  0.3585  0.3618 -0.2605
 6429TIP3    H140778   1.313   3.990   3.215  1.4047  1.1048 -1.0493
 6429TIP3    H240779   1.418   3.884   3.241 -0.8179 -0.6797  0.7791
 6430TIP3   OH240780   2.306   1.899   3.900  0.5948 -0.1283 -0.2701
 6430TIP3    H140781   2.340   1.946   3.823  0.2491 -0.3572 -0.5666
 6430TIP3    H240782   2.222   1.865   3.871  0.2761  0.1315  0.3462
 6431TIP3   OH240783   5.967   0.019  12.827  0.9086 -0.5418  0.3195
 6431TIP3    H140784   5.935  -0.061  12.869  0.3909 -0.6484 -0.2675
 6431TIP3    H240785   5.917   0.089  12.868  1.2384 -0.5372  0.7122
 6432TIP3   OH240786   5.759   2.976  14.058  0.7003 -0.0577  0.2950
 6432TIP3    H140787   5.692   3.025  14.010 -2.1053 -1.1909  2.8536
 6432TIP3    H240788   5.825   3.041  14.082 -0.1991  1.3677 -1.0828
 6433TIP3   OH240789   3.796   5.101   3.699  0.4378 -0.3348 -0.1479
 6433TIP3    H140790   3.827   5.185   3.733  0.0891 -0.4103  0.3725
 6433TIP3    H240791   3.712   5.121   3.658  0.9342 -0.2167 -1.1162
 6434TIP3   OH240792   2.706   0.003  15.242 -0.0332  0.6810 -0.4690
 6434TIP3    H140793   2.646   0.051  15.300  0.6301 -1.2035  1.8667
 6434TIP3    H240794   2.648  -0.037  15.176 -1.3460 -0.5463  1.3504
 6435TIP3   OH240795   1.955   3.664  15.901 -0.1450 -0.2135 -0.1465
 6435TIP3    H140796   1.903   3.643  15.979  1.2801 -1.7202  0.4163
 6435TIP3    H240797   1.991   3.751  15.919 -0.4068 -0.2492  0.5558
 6436TIP3   OH240798   4.638   0.210  16.819  0.0561  0.0971  0.0801
 6436TIP3    H140799   4.621   0.176  16.731 -1.0992 -0.3669  0.4649
 6436TIP3    H240800   4.674   0.136  16.867 -0.0890  0.1225  0.2278
 6437TIP3   OH240801   5.457   1.804  15.143 -0.5638  0.8788  0.6072
 6437TIP3    H140802   5.540   1.788  15.187  1.0249  1.3747 -2.1030
 6437TIP3    H240803   5.437   1.896  15.163  0.4578  1.2844 -0.2098
 6438TIP3   OH240804   6.400   6.005  14.024 -0.6774 -0.2183 -0.0608
 6438TIP3    H140805   6.370   6.020  14.113 -3.4293  0.0900 -0.9815
 6438TIP3    H240806   6.371   6.082  13.976 -1.1412 -1.3564 -1.6583
 6439TIP3   OH240807   4.719   6.050  12.864  0.1247 -0.7370 -0.7323
 6439TIP3    H140808   4.787   6.041  12.797 -0.9247 -1.7972 -1.6661
 6439TIP3    H240809   4.676   5.965  12.867  0.4691 -0.8779  1.6512
 6440TIP3   OH240810   2.856   5.160  17.272 -0.0517 -0.1096  0.1029
 6440TIP3    H140811   2.940   5.135  17.310  0.6492  1.4152 -0.3865
 6440TIP3    H240812   2.849   5.108  17.192  1.0320  0.6688 -0.5188
 6441TIP3   OH240813   4.804   0.936   4.957 -0.3371 -0.3148 -0.4043
 6441TIP3    H140814   4.774   0.957   4.868 -1.1498 -0.8989 -0.2720
 6441TIP3    H240815   4.895   0.966   4.959 -0.1353 -0.7945 -1.6130
 6442TIP3   OH240816   5.370   5.210  15.095 -0.1820 -0.5343  0.2040
 6442TIP3    H140817   5.404   5.121  15.104 -0.2816 -0.6727 -0.7672
 6442TIP3    H240818   5.275   5.200  15.103 -0.4057 -0.8664 -2.3332
 6443TIP3   OH240819   5.720   4.766   5.083  0.3188  0.3495 -0.2486
 6443TIP3    H140820   5.770   4.847   5.078  0.6624  0.3101  1.7890
 6443TIP3    H240821   5.659   4.781   5.155 -1.0473 -0.4462 -1.2252
 6444TIP3   OH240822   1.619   4.586  13.533  0.3265 -0.5376  0.0364
 6444TIP3    H140823   1.714   4.593  13.541  0.3478  0.7516 -1.0035
 6444TIP3    H240824   1.591   4.675  13.508 -0.6043 -1.9473 -4.4352
 6445TIP3   OH240825   0.646   2.076   6.168 -0.3045  0.6357 -0.5303
 6445TIP3    H140826   0.669   1.984   6.187  1.3127  1.1507  0.1569
 6445TIP3    H240827   0.602   2.106   6.247 -0.6217  0.5175 -0.6626
 6446TIP3   OH240828   0.731   5.225   4.468 -0.0136 -0.0574  0.1006
 6446TIP3    H140829   0.694   5.260   4.548  0.6003  0.8107  0.0088
 6446TIP3    H240830   0.711   5.290   4.401  0.4382 -0.2456 -0.2233
 6447TIP3   OH240831   2.404   3.865  11.695 -0.6092 -0.2735  0.2338
 6447TIP3    H140832   2.351   3.935  11.735 -0.9140 -0.2806 -0.1536
 6447TIP3    H240833   2.343   3.818  11.639 -0.0519  0.1116 -0.7158
 6448TIP3   OH240834   6.184   0.938  11.734 -0.4646  0.4761 -0.2928
 6448TIP3    H140835   6.146   0.927  11.647 -0.3607  0.5652 -0.3489
 6448TIP3    H240836   6.181   0.850  11.772 -0.2731  0.3869 -0.4838
 6449TIP3   OH240837   5.158   3.483   1.813 -0.3727 -0.0995 -0.1457
 6449TIP3    H140838   5.070   3.498   1.847 -0.2965 -1.1397  0.5472
 6449TIP3    H240839   5.200   3.569   1.816  0.1027 -0.3644  3.7914
 6450TIP3   OH240840   2.535   3.906   0.948  0.5193  0.3796 -0.0480
 6450TIP3    H140841   2.594   3.909   1.022  0.2504  2.5795  0.1189
 6450TIP3    H240842   2.476   3.833   0.966 -0.7211  2.0307  2.8333
 6451TIP3   OH240843   4.303   6.780   3.528 -0.3212  0.2923 -0.1531
 6451TIP3    H140844   4.238   6.751   3.465  2.0792 -1.4030 -1.9604
 6451TIP3    H240845   4.355   6.701   3.546  2.7767  2.1407 -0.6944
 6452TIP3   OH240846   3.740   2.806  13.504 -0.4227  0.4195  0.4687
 6452TIP3    H140847   3.791   2.759  13.570  1.0943  0.1806 -0.8381
 6452TIP3    H240848   3.653   2.768  13.510  0.3055 -1.2769  0.7191
 6453TIP3   OH240849   2.170   2.173  14.330  0.2137  0.1493  0.7209
 6453TIP3    H140850   2.258   2.201  14.308  0.5081 -0.4179  1.1758
 6453TIP3    H240851   2.154   2.096  14.275  0.4871 -0.5251  1.5802
 6454TIP3   OH240852   4.800   6.722   2.020 -0.1950  0.3087  0.0936
 6454TIP3    H140853   4.769   6.732   2.110 -0.4636  1.1281 -0.0889
 6454TIP3    H240854   4.746   6.783   1.969 -0.1568 -0.2706 -0.6475
 6455TIP3   OH240855   3.436   3.623   1.652 -0.4599  0.1296  0.0842
 6455TIP3    H140856   3.352   3.630   1.606  1.5139  1.2160 -3.5549
 6455TIP3    H240857   3.480   3.549   1.609  1.3040  0.9502  0.4541
 6456TIP3   OH240858   0.821   1.466  13.276  0.4295 -0.1246  0.5542
 6456TIP3    H140859   0.799   1.417  13.197 -0.1660  2.1244 -0.7280
 6456TIP3    H240860   0.780   1.417  13.347 -2.3322 -0.1126 -0.9682
 6457TIP3   OH240861   0.491   0.936  13.387 -0.0722 -0.1070 -0.2818
 6457TIP3    H140862   0.444   0.995  13.445 -2.5239  0.4455 -2.7383
 6457TIP3    H240863   0.536   0.993  13.325  0.3787 -0.7541 -0.5682
 6458TIP3   OH240864   6.068   4.696   5.854 -0.5824  0.2418  0.0397
 6458TIP3    H140865   5.988   4.710   5.802  1.1244 -0.8577 -2.9605
 6458TIP3    H240866   6.092   4.605   5.837  2.1721  1.0092 -0.3815
 6459TIP3   OH240867   2.335   2.516  15.497  0.1962  0.0518  0.4460
 6459TIP3    H140868   2.403   2.467  15.541 -0.9212 -0.2319  1.9021
 6459TIP3    H240869   2.270   2.451  15.470 -0.2607  0.4752  0.4895
 6460TIP3   OH240870   6.685   6.435   2.784  0.0405 -0.5348  0.0529
 6460TIP3    H140871   6.649   6.401   2.866  2.0038 -0.7161  0.8635
 6460TIP3    H240872   6.690   6.529   2.798  1.3997 -0.6713  0.5848
 6461TIP3   OH240873   3.226   0.945  13.505 -0.3393  0.2174 -0.6128
 6461TIP3    H140874   3.219   0.947  13.410 -0.7108  0.3487 -0.5821
 6461TIP3    H240875   3.151   0.995  13.536 -0.5741 -0.3608 -0.2389
 6462TIP3   OH240876   5.197   1.550  12.403 -0.1076  0.2578  0.0659
 6462TIP3    H140877   5.269   1.601  12.364  0.9757 -1.5630 -0.3627
 6462TIP3    H240878   5.158   1.503  12.329  0.3944 -1.3262  0.7924
 6463TIP3   OH240879   0.466   4.519   5.160 -0.1673 -0.5095 -0.2331
 6463TIP3    H140880   0.526   4.548   5.091 -0.6713 -1.0715 -0.9187
 6463TIP3    H240881   0.457   4.425   5.146 -1.5532 -0.3631 -0.4257
 6464TIP3   OH240882   3.809   4.366   0.823  0.1432  0.3917  0.4067
 6464TIP3    H140883   3.751   4.319   0.883  0.1917  0.9683  0.9077
 6464TIP3    H240884   3.897   4.346   0.856  0.3562 -2.0014 -1.4431
 6465TIP3   OH240885   1.489   4.852  16.467 -0.3309  0.6325 -0.5841
 6465TIP3    H140886   1.435   4.931  16.478  0.4419  1.1956 -0.7530
 6465TIP3    H240887   1.507   4.824  16.557 -3.1321 -1.1392 -0.5101
 6466TIP3   OH240888   6.308   0.222   1.805  0.0290  0.5426 -0.8310
 6466TIP3    H140889   6.366   0.146   1.805 -0.5894  0.0285  1.5993
 6466TIP3    H240890   6.360   0.292   1.765  1.6823 -0.3717 -0.3344
 6467TIP3   OH240891   0.430   3.006  15.663 -0.0724 -0.3369  0.6807
 6467TIP3    H140892   0.379   3.073  15.618  0.0212 -0.7332 -0.0170
 6467TIP3    H240893   0.462   3.049  15.742 -0.0043  0.4482  0.2255
 6468TIP3   OH240894   1.973   3.370  11.139  0.4369 -0.0472 -0.2214
 6468TIP3    H140895   1.927   3.395  11.059 -0.1364 -1.2937 -0.2914
 6468TIP3    H240896   1.953   3.440  11.201 -0.4380  0.1103 -0.6757
 6469TIP3   OH240897   6.575   6.179   3.941 -0.1307 -0.3116 -0.1004
 6469TIP3    H140898   6.626   6.122   3.998 -0.3299  0.5980  1.0064
 6469TIP3    H240899   6.576   6.264   3.985 -1.8025 -0.0494 -0.5519
 6470TIP3   OH240900   5.812   3.619   6.501  0.0110  0.5460 -0.0045
 6470TIP3    H140901   5.851   3.694   6.547  0.7333  0.2429 -0.1266
 6470TIP3    H240902   5.727   3.651   6.472 -0.6589  0.6244  1.9241
 6471TIP3   OH240903   5.747   6.616   2.773 -0.0846 -0.0334  0.1240
 6471TIP3    H140904   5.729   6.600   2.866  1.0751  0.2940  0.4134
 6471TIP3    H240905   5.681   6.565   2.726  0.1510 -1.2588  1.1056
 6472TIP3   OH240906   4.047   3.263  16.101 -0.7447 -0.0169 -0.7514
 6472TIP3    H140907   4.008   3.206  16.167 -0.2871 -0.1849 -0.6241
 6472TIP3    H240908   4.079   3.339  16.151 -1.6145  0.4921 -0.9543
 6473TIP3   OH240909   3.043   1.178   0.175  0.2796 -0.3597  0.1849
 6473TIP3    H140910   2.959   1.146   0.206  1.2725 -0.9761  2.3635
 6473TIP3    H240911   3.034   1.182   0.080 -2.3793  0.1206  0.4145
 6474TIP3   OH240912   0.149   3.620  12.870  0.1027 -0.9734 -0.3856
 6474TIP3    H140913   0.150   3.660  12.783  1.5898 -0.9305 -0.3568
 6474TIP3    H240914   0.231   3.571  12.875 -1.8285 -4.4399 -0.6132
 6475TIP3   OH240915   0.076   4.868   3.878 -0.3704 -0.0870  0.5121
 6475TIP3    H140916   0.113   4.953   3.902  0.6609 -1.0879  2.5005
 6475TIP3    H240917   0.134   4.836   3.809  0.4533 -0.0922  1.1982
 6476TIP3   OH240918   1.469   2.984  16.975 -0.0597  0.2356  0.1154
 6476TIP3    H140919   1.503   3.062  16.929 -0.4794 -0.2190 -0.9833
 6476TIP3    H240920   1.500   2.910  16.922  1.3341 -0.4184  1.7982
 6477TIP3   OH240921   5.281   1.408  14.328 -0.1828  0.1789 -0.2661
 6477TIP3    H140922   5.357   1.465  14.337  0.3048 -0.3884 -0.7466
 6477TIP3    H240923   5.207   1.467  14.320  0.1432  0.7365  0.7180
 6478TIP3   OH240924   4.570   0.438  16.133  0.0064  0.0041 -0.4449
 6478TIP3    H140925   4.513   0.460  16.059  2.6717  1.9729 -2.0270
 6478TIP3    H240926   4.586   0.522  16.177  1.0277 -0.6321  0.4348
 6479TIP3   OH240927   0.586   2.320  15.599 -0.2671 -0.6633 -0.1217
 6479TIP3    H140928   0.541   2.278  15.525 -0.3861 -0.8671  0.0656
 6479TIP3    H240929   0.612   2.247  15.656 -1.2840 -0.4240  0.6641
 6480TIP3   OH240930   5.137   6.512  13.302 -0.3146  0.0599  0.0974
 6480TIP3    H140931   5.179   6.546  13.223  0.5603 -0.4322  0.3504
 6480TIP3    H240932   5.156   6.578  13.369  4.8430 -2.6865  1.6274
 6481TIP3   OH240933   0.975   1.430   2.722 -0.1550 -0.1169 -0.0326
 6481TIP3    H140934   1.022   1.481   2.787 -3.5396  1.9211  0.9651
 6481TIP3    H240935   0.926   1.366   2.774 -2.3292  1.0563 -0.5828
 6482TIP3   OH240936   1.591   4.020   0.119  0.1944  0.1036 -0.0189
 6482TIP3    H140937   1.615   3.959   0.188 -0.7979 -0.1073  0.1501
 6482TIP3    H240938   1.652   4.001   0.047  0.2191 -0.7370  0.2182
 6483TIP3   OH240939   4.243   2.665  14.899 -0.4392  0.3498 -0.8682
 6483TIP3    H140940   4.277   2.734  14.957 -0.0376  0.1369 -0.8534
 6483TIP3    H240941   4.279   2.685  14.813 -0.8988  0.5667 -1.0097
 6484TIP3   OH240942   3.992   2.188  12.684 -0.0012  0.3000 -0.6710
 6484TIP3    H140943   3.962   2.266  12.730 -0.8247  0.4898 -1.5249
 6484TIP3    H240944   4.084   2.205  12.665  0.3586  0.2040  0.9430
 6485TIP3   OH240945   2.898   3.002  15.479  0.3485 -0.2811  0.5523
 6485TIP3    H140946   2.867   2.916  15.451  1.2854 -1.2279  2.3427
 6485TIP3    H240947   2.836   3.029  15.547 -0.7613  1.1124 -0.9847
 6486TIP3   OH240948   0.732   4.880  14.038 -0.5619 -0.0712  0.0013
 6486TIP3    H140949   0.808   4.900  14.092 -1.9145 -0.1204  1.9708
 6486TIP3    H240950   0.675   4.828  14.095 -1.7849 -0.5636 -1.6443
 6487TIP3   OH240951   1.020   4.058  15.633  0.1609 -0.0479  0.0597
 6487TIP3    H140952   0.979   4.033  15.716  1.1815  0.5478  0.7606
 6487TIP3    H240953   1.054   3.976  15.597  0.1324 -0.2363  0.4638
 6488TIP3   OH240954   4.237   0.459   0.485 -0.2103  0.5673 -0.1687
 6488TIP3    H140955   4.258   0.512   0.409 -1.0375  0.3427 -0.5592
 6488TIP3    H240956   4.170   0.509   0.532 -3.1917 -1.4260 -2.0955
 6489TIP3   OH240957   0.490   6.345  12.210 -0.2995  0.4602 -0.2029
 6489TIP3    H140958   0.498   6.249  12.215 -0.1939  0.3975 -1.2885
 6489TIP3    H240959   0.580   6.376  12.198 -0.2019  0.7886  1.3181
 6490TIP3   OH240960   2.199   2.851   1.466  0.2648 -0.2514  0.1889
 6490TIP3    H140961   2.150   2.821   1.390 -1.6062  1.7494  0.5711
 6490TIP3    H240962   2.284   2.807   1.458 -0.6133 -1.6490 -1.9401
 6491TIP3   OH240963   4.205   1.122  16.610  0.2765  0.1702 -0.4421
 6491TIP3    H140964   4.122   1.079  16.589 -0.6932  1.3608  0.8349
 6491TIP3    H240965   4.224   1.094  16.699  0.7012  0.7339 -0.3571
 6492TIP3   OH240966   6.652   0.877   1.665  0.7671 -0.2331 -0.1795
 6492TIP3    H140967   6.559   0.856   1.674  0.4210  0.3503 -2.1544
 6492TIP3    H240968   6.694   0.794   1.642  0.4417 -0.1330 -1.1480
 6493TIP3   OH240969   6.177   5.077  13.492 -0.0243 -0.2320  0.6111
 6493TIP3    H140970   6.247   5.084  13.556 -1.2390  0.7693  1.8585
 6493TIP3    H240971   6.211   5.121  13.414  1.9776 -2.6470  0.0714
 6494TIP3   OH240972   2.061   2.856   1.701 -0.1544 -0.3106 -1.0153
 6494TIP3    H140973   1.969   2.847   1.676 -0.7595  2.6839 -0.0116
 6494TIP3    H240974   2.109   2.857   1.619 -1.5135  3.0094 -1.8363
 6495TIP3   OH240975   6.389   6.228   1.374 -0.2362 -0.4002 -0.1802
 6495TIP3    H140976   6.465   6.171   1.364  0.1471 -0.0171  0.4711
 6495TIP3    H240977   6.334   6.183   1.438 -0.4237 -0.5439 -0.4437
 6496TIP3   OH240978   2.752   1.470  16.200 -0.2237 -0.0443 -0.2982
 6496TIP3    H140979   2.700   1.392  16.184 -1.0293  0.5206 -0.4830
 6496TIP3    H240980   2.821   1.468  16.134 -1.1592  0.2002 -1.2943
 6497TIP3   OH240981   3.308   4.350   1.817 -0.4043  0.2387 -0.8136
 6497TIP3    H140982   3.241   4.359   1.749 -1.6650 -2.5831 -0.0113
 6497TIP3    H240983   3.272   4.396   1.893 -0.6033  0.3312 -0.9644
 6498TIP3   OH240984   4.492   6.126   2.884  0.3235 -0.4537  0.5307
 6498TIP3    H140985   4.499   6.197   2.947 -1.5636 -1.4279  1.8758
 6498TIP3    H240986   4.502   6.046   2.936 -1.7299 -1.2987 -0.3011
 6499TIP3   OH240987   4.644   3.261   1.384  0.7340 -0.0130  0.5444
 6499TIP3    H140988   4.579   3.191   1.382  0.4059  0.2724  1.2485
 6499TIP3    H240989   4.647   3.293   1.293 -1.2932  1.0451  0.8168
 6500TIP3   OH240990   5.573   3.060  12.038 -0.3403  0.0544 -0.4637
 6500TIP3    H140991   5.606   3.013  11.961 -0.8452  1.0489 -1.2868
 6500TIP3    H240992   5.650   3.070  12.094  0.0379 -0.6331 -0.8496
 6501TIP3   OH240993   3.596   3.486   5.274  0.3213 -0.2893  0.3150
 6501TIP3    H140994   3.530   3.515   5.337  1.9136 -0.4268  2.0934
 6501TIP3    H240995   3.603   3.557   5.211 -0.0853  0.5787  1.2455
 6502TIP3   OH240996   2.081   2.383   4.687 -0.1341  0.2021  0.1377
 6502TIP3    H140997   2.109   2.310   4.632  2.7557  0.4576  1.1992
 6502TIP3    H240998   1.995   2.357   4.719  0.5062 -2.3895 -0.1426
 6503TIP3   OH240999   2.343   1.473   1.618  0.0181 -0.1564 -0.0116
 6503TIP3    H141000   2.427   1.515   1.638  0.0797 -1.3698  2.5695
 6503TIP3    H241001   2.278   1.541   1.637  0.3356  0.2314 -0.3015
 6504TIP3   OH241002   1.481   0.576  12.132 -0.3100  0.1130  0.1724
 6504TIP3    H141003   1.471   0.493  12.180 -0.0534 -0.0610 -0.0767
 6504TIP3    H241004   1.548   0.558  12.067 -0.7914  0.3011 -0.3746
 6505TIP3   OH241005   4.711   2.695  16.882 -0.1055  0.5382  0.4357
 6505TIP3    H141006   4.710   2.613  16.834 -0.0166  0.1849  1.0335
 6505TIP3    H241007   4.624   2.732  16.869 -1.0058 -0.8458  2.1941
 6506TIP3   OH241008   3.389   5.669   0.924  0.1902 -0.3145 -0.0708
 6506TIP3    H141009   3.309   5.673   0.872  0.5178 -0.8948 -0.6235
 6506TIP3    H241010   3.364   5.619   1.003 -0.4207  0.9482  0.5524
 6507TIP3   OH241011   0.006   5.409  15.628  0.1658  0.7287 -0.3051
 6507TIP3    H141012   0.054   5.369  15.555  0.0941  0.8501 -0.4185
 6507TIP3    H241013   0.041   5.366  15.706  0.4614  0.8190 -0.3849
 6508TIP3   OH241014   3.504   4.163  13.831 -0.1062  0.0052  0.3817
 6508TIP3    H141015   3.526   4.077  13.867  0.7575 -0.1020 -0.3823
 6508TIP3    H241016   3.559   4.171  13.753 -1.1132  0.7215 -0.2649
 6509TIP3   OH241017   2.221   0.636  11.118  0.4065 -0.3182 -0.3352
 6509TIP3    H141018   2.134   0.676  11.113  0.4421 -0.1333  0.4293
 6509TIP3    H241019   2.258   0.647  11.030 -0.0257  0.3265 -0.4372
 6510TIP3   OH241020   2.504   2.326  16.732  0.6160 -0.3613 -0.3318
 6510TIP3    H141021   2.535   2.332  16.641  1.6734  1.5335  0.1395
 6510TIP3    H241022   2.410   2.340  16.726  0.6829 -0.1916 -1.1189
 6511TIP3   OH241023   2.694   6.431  12.083  0.0502  0.2328  0.3947
 6511TIP3    H141024   2.771   6.462  12.130 -0.2271  1.4382  0.0608
 6511TIP3    H241025   2.730   6.392  12.003  0.3353  0.6047  0.3374
 6512TIP3   OH241026   2.768   5.500  11.552 -0.0825 -0.0958 -0.5241
 6512TIP3    H141027   2.849   5.492  11.602 -0.3536 -1.3770 -0.2789
 6512TIP3    H241028   2.708   5.547  11.610 -0.5931 -2.1007  0.6168
 6513TIP3   OH241029   0.620   6.355  12.976  0.0996 -0.3481 -1.0054
 6513TIP3    H141030   0.656   6.357  12.888  2.1698  0.6297 -0.1674
 6513TIP3    H241031   0.614   6.262  12.998 -0.5638 -0.5953 -2.2173
 6514TIP3   OH241032   3.120   0.142  13.532 -0.2258 -0.1722 -0.2659
 6514TIP3    H141033   3.151   0.089  13.605 -1.5060 -1.0743 -0.3618
 6514TIP3    H241034   3.123   0.084  13.456 -0.5634  0.2305 -0.5955
 6515TIP3   OH241035   1.674   0.370   0.248  0.1009  0.3726 -0.2906
 6515TIP3    H141036   1.620   0.407   0.178  1.1690  1.0466 -0.7707
 6515TIP3    H241037   1.749   0.333   0.203 -0.4732 -1.5350  0.2878
 6516TIP3   OH241038   2.686   6.579  12.971  0.7372 -0.3208  0.2673
 6516TIP3    H141039   2.734   6.617  13.045  0.6952  0.5431 -0.1436
 6516TIP3    H241040   2.595   6.602  12.987  0.9391  1.4016 -0.9594
 6517TIP3   OH241041   0.965   4.274  11.696  0.3428  0.1122  0.7965
 6517TIP3    H141042   0.900   4.296  11.629  0.0513  1.5766  1.5375
 6517TIP3    H241043   1.024   4.349  11.698 -0.4691  0.7427  3.1334
 6518TIP3   OH241044   4.599   2.415   4.562  0.0082  0.1338  0.5982
 6518TIP3    H141045   4.572   2.354   4.631  0.1267 -0.6698 -0.0571
 6518TIP3    H241046   4.655   2.363   4.505 -1.4726  0.3134 -1.0498
 6519TIP3   OH241047   3.868   3.175  12.971 -0.0521  0.2953  0.1381
 6519TIP3    H141048   3.931   3.105  12.985  0.5395  0.6619 -0.6076
 6519TIP3    H241049   3.850   3.172  12.877 -0.7370  0.5358  0.2594
 6520TIP3   OH241050   2.451   1.570   0.172 -0.6912 -0.0109 -0.2404
 6520TIP3    H141051   2.369   1.546   0.128 -0.2279  0.2591 -1.2781
 6520TIP3    H241052   2.433   1.559   0.265 -1.4728 -1.3136 -0.5404
 6521TIP3   OH241053   2.651   1.420   5.430 -0.1456 -0.1025 -0.3768
 6521TIP3    H141054   2.635   1.374   5.512 -0.2703  1.6000  0.5772
 6521TIP3    H241055   2.612   1.364   5.363 -4.2806  0.7375  1.1855
 6522TIP3   OH241056   0.751   2.618   0.899  0.1841 -0.3422  0.6254
 6522TIP3    H141057   0.745   2.701   0.946 -1.9829 -0.4102  0.5534
 6522TIP3    H241058   0.701   2.557   0.953  0.3799 -1.1879 -0.1410
 6523TIP3   OH241059   6.582   4.263   4.404 -0.0397 -0.0134  0.8412
 6523TIP3    H141060   6.554   4.278   4.494  1.3159 -0.0917  1.2880
 6523TIP3    H241061   6.673   4.236   4.411 -0.0839 -0.5886 -0.5189
 6524TIP3   OH241062   3.612   3.804  13.473  0.5144  0.2772 -0.3541
 6524TIP3    H141063   3.520   3.802  13.448  0.0063  0.0106  1.4048
 6524TIP3    H241064   3.649   3.724  13.437 -0.4941 -0.7344  0.8098
 6525TIP3   OH241065   0.319   6.120  15.898 -0.6310  0.2333 -0.0096
 6525TIP3    H141066   0.381   6.189  15.922 -0.0699 -0.1153 -0.4378
 6525TIP3    H241067   0.353   6.041  15.940  0.5272 -0.4433 -2.1804
 6526TIP3   OH241068   4.066   4.809  13.472 -0.3342 -0.4318 -0.2986
 6526TIP3    H141069   4.122   4.741  13.435 -0.8987 -0.5321 -0.9829
 6526TIP3    H241070   4.066   4.878  13.405  0.6147  0.4495  0.5920
 6527TIP3   OH241071   3.168   6.816   6.301 -0.5101 -0.3027 -0.5219
 6527TIP3    H141072   3.262   6.836   6.302 -0.6416  0.3962 -1.4047
 6527TIP3    H241073   3.163   6.723   6.321  0.2027  0.2534  2.3589
 6528TIP3   OH241074   3.269   2.016  17.052 -0.5527 -0.2273  0.0972
 6528TIP3    H141075   3.238   2.106  17.049  0.0968  0.0351  1.1980
 6528TIP3    H241076   3.242   1.983  17.137 -1.0482 -1.1802 -0.4147
 6529TIP3   OH241077   5.390   3.947  14.562 -0.7039  0.4424 -0.3580
 6529TIP3    H141078   5.468   3.929  14.510 -0.1324  0.8613  0.3520
 6529TIP3    H241079   5.423   3.979  14.645 -1.5494 -2.2649  1.0743
 6530TIP3   OH241080   5.949   3.327   5.692 -0.9222  0.3077 -0.1087
 6530TIP3    H141081   5.927   3.392   5.758 -0.9303 -0.4685  0.6589
 6530TIP3    H241082   6.045   3.326   5.690 -0.9126 -0.1861  0.4170
 6531TIP3   OH241083   6.320   3.484   3.655 -0.4669 -0.0377 -0.6075
 6531TIP3    H141084   6.401   3.532   3.669 -0.8746  1.2688 -2.4502
 6531TIP3    H241085   6.347   3.401   3.617  0.1299 -0.5144  0.8469
 6532TIP3   OH241086   3.294   6.349   0.864  0.0544  0.0961  0.3196
 6532TIP3    H141087   3.382   6.314   0.881  0.2446  0.5844  0.3481
 6532TIP3    H241088   3.240   6.312   0.933 -0.0842 -1.4451 -0.5883
 6533TIP3   OH241089   0.836   6.382  14.824  0.1135 -0.3717  0.1398
 6533TIP3    H141090   0.910   6.355  14.879  0.1651 -0.9610 -0.2192
 6533TIP3    H241091   0.858   6.472  14.798  0.3241 -0.2647  0.6836
 6534TIP3   OH241092   6.056   4.451  16.551 -0.5313 -0.1381  0.7029
 6534TIP3    H141093   6.074   4.357  16.555 -2.8704 -0.9346 -3.7355
 6534TIP3    H241094   5.979   4.463  16.605 -0.7751 -0.9473  0.5438
 6535TIP3   OH241095   2.176   3.842   3.861  0.3635 -0.3947 -0.1298
 6535TIP3    H141096   2.185   3.748   3.846 -0.6649 -0.3530 -1.0341
 6535TIP3    H241097   2.266   3.876   3.855  0.8831 -1.4610  1.3356
 6536TIP3   OH241098   0.915   4.997   5.840  0.2062 -0.0621 -0.2262
 6536TIP3    H141099   0.965   4.988   5.921  0.7803 -1.3554 -0.7172
 6536TIP3    H241100   0.825   5.012   5.869  0.7396  1.6153  0.6531
 6537TIP3   OH241101   3.359   5.080  13.557  0.7050 -0.0884  0.0892
 6537TIP3    H141102   3.318   5.046  13.637  0.7858 -2.5917 -0.8637
 6537TIP3    H241103   3.453   5.070  13.573  0.7037 -1.5890 -0.6679
 6538TIP3   OH241104   3.865   1.261  13.272  0.2351 -0.3617  0.5664
 6538TIP3    H141105   3.958   1.276  13.257 -0.0181  1.0562  0.4060
 6538TIP3    H241106   3.858   1.248  13.367  0.7331 -1.5235  0.4524
 6539TIP3   OH241107   2.780   2.176  15.024 -0.4226  0.1194  0.5572
 6539TIP3    H141108   2.774   2.217  15.110  3.5272 -0.9896  1.4545
 6539TIP3    H241109   2.816   2.245  14.967  1.8685 -0.6138  1.0399
 6540TIP3   OH241110   6.116   4.369   1.496 -0.3973 -0.0549  0.4443
 6540TIP3    H141111   6.108   4.445   1.439 -0.5856 -0.8746 -0.6347
 6540TIP3    H241112   6.195   4.324   1.465  0.1030  0.0585  1.5165
 6541TIP3   OH241113   4.279   0.475  14.831  0.0290  0.5797  0.2640
 6541TIP3    H141114   4.372   0.459  14.813  0.2517 -0.3778  2.1117
 6541TIP3    H241115   4.275   0.488  14.926 -1.8959 -0.5874  0.3648
 6542TIP3   OH241116   4.938   2.763   0.451 -0.4790 -0.6570  0.3503
 6542TIP3    H141117   4.964   2.697   0.516 -0.1378 -0.9575 -0.0864
 6542TIP3    H241118   4.914   2.840   0.502  0.2454 -0.7353  0.8055
 6543TIP3   OH241119   2.655   6.279  10.644  0.3413  0.3044 -0.8639
 6543TIP3    H141120   2.698   6.342  10.587 -1.3878  0.9219 -1.4990
 6543TIP3    H241121   2.598   6.228  10.586 -1.6111  1.1014  0.3069
 6544TIP3   OH241122   6.814   1.448   3.713 -0.0020  0.0989  0.0537
 6544TIP3    H141123   6.867   1.455   3.634  0.7317 -0.4894  0.4944
 6544TIP3    H241124   6.877   1.436   3.784 -0.4663  3.2130  1.0869
 6545TIP3   OH241125   1.419   2.300   0.303 -0.0430  0.0176 -0.8160
 6545TIP3    H141126   1.446   2.271   0.216  0.2842  0.5899 -0.9066
 6545TIP3    H241127   1.383   2.388   0.289  1.4453  0.7519 -0.1533
 6546TIP3   OH241128   5.517   2.757  10.577  0.9265  0.1185 -1.1122
 6546TIP3    H141129   5.452   2.749  10.508  0.0622 -0.2154 -0.2682
 6546TIP3    H241130   5.547   2.667  10.592  0.6251  0.1058 -0.5872
 6547TIP3   OH241131   0.951   6.595  15.579 -0.1732  0.2414 -0.9991
 6547TIP3    H141132   1.042   6.619  15.597 -0.9727  1.9939  0.9011
 6547TIP3    H241133   0.918   6.665  15.523 -0.7201  0.2695 -0.6420
 6548TIP3   OH241134   6.736   6.772   6.466 -0.1011  0.2011  0.2864
 6548TIP3    H141135   6.817   6.747   6.423 -0.4408 -1.0309  0.3430
 6548TIP3    H241136   6.725   6.708   6.537 -1.8764 -0.5828 -0.6542
 6549TIP3   OH241137   2.080   5.861  15.010 -0.0229 -0.2785 -0.3064
 6549TIP3    H141138   2.050   5.805  14.938 -0.8231 -0.4648  0.1536
 6549TIP3    H241139   2.122   5.800  15.071 -2.5673 -0.7205  1.0963
 6550TIP3   OH241140   4.159   3.645   2.148  0.4996 -0.0796 -0.2079
 6550TIP3    H141141   4.169   3.553   2.174  2.8257  0.1774 -0.0999
 6550TIP3    H241142   4.130   3.641   2.057  2.2655 -0.9149 -0.7498
 6551TIP3   OH241143   1.174   3.106  14.992  0.0547  0.0788  0.0458
 6551TIP3    H141144   1.085   3.125  15.022  0.3077  0.1964  0.7297
 6551TIP3    H241145   1.165   3.092  14.898 -0.4097  1.8699 -0.2027
 6552TIP3   OH241146   3.082   2.746  10.868  0.1596 -0.0009  0.1425
 6552TIP3    H141147   3.069   2.691  10.791 -0.8314  1.0234 -0.4311
 6552TIP3    H241148   2.994   2.768  10.897  0.4736 -1.8133  2.6357
 6553TIP3   OH241149   2.578   3.135   2.311  0.2875  0.2397 -0.1549
 6553TIP3    H141150   2.650   3.166   2.256 -0.1376  1.9098  0.2112
 6553TIP3    H241151   2.508   3.113   2.250  0.7249 -0.3824 -0.4405
 6554TIP3   OH241152   5.028   1.310   1.380 -0.1424  0.4572  0.2988
 6554TIP3    H141153   5.027   1.280   1.470 -0.6729 -0.4203  0.0008
 6554TIP3    H241154   5.033   1.406   1.386 -0.5038  0.4146  1.2490
 6555TIP3   OH241155   2.036   4.395  17.091 -0.2782  0.3007 -0.4516
 6555TIP3    H141156   2.050   4.335  17.165 -0.8519 -0.4794 -0.9727
 6555TIP3    H241157   2.017   4.337  17.017 -0.4235  1.1150 -1.0467
 6556TIP3   OH241158   6.170   0.103   5.541 -0.5143 -0.2424  0.4876
 6556TIP3    H141159   6.085   0.076   5.507 -0.7499  1.0389  0.0372
 6556TIP3    H241160   6.154   0.188   5.583  0.4187 -0.2803  0.9443
 6557TIP3   OH241161   2.108   0.842   3.467 -0.1908  0.1105 -0.1771
 6557TIP3    H141162   2.101   0.815   3.559  2.3720  0.1446  0.0525
 6557TIP3    H241163   2.151   0.927   3.470 -1.4457  0.8025 -1.3406
 6558TIP3   OH241164   4.468   2.311   6.114  0.4562  0.4868 -0.8140
 6558TIP3    H141165   4.524   2.233   6.113 -0.4695 -0.1899 -0.1904
 6558TIP3    H241166   4.461   2.336   6.022 -0.6650 -1.1911 -1.1936
 6559TIP3   OH241167   5.558   5.345   3.531  0.0245 -0.4059 -0.4721
 6559TIP3    H141168   5.631   5.289   3.557  1.6309  0.8463 -2.1769
 6559TIP3    H241169   5.588   5.434   3.549 -1.4965  0.0779 -0.2296
 6560TIP3   OH241170   6.567   1.571  16.700  0.2660 -0.2769 -0.1459
 6560TIP3    H141171   6.628   1.529  16.640  0.0017  0.4045 -0.8956
 6560TIP3    H241172   6.578   1.524  16.783 -1.1764 -2.8488 -1.3835
 6561TIP3   OH241173   6.720   4.785   5.702  0.3021  0.0989  0.1451
 6561TIP3    H141174   6.804   4.816   5.667  0.0095  0.6095 -0.1051
 6561TIP3    H241175   6.745   4.720   5.769  0.8543 -1.4094 -1.4746
 6562TIP3   OH241176   3.015   6.279   0.356 -0.0849  0.5141 -0.6298
 6562TIP3    H141177   2.957   6.219   0.310 -1.3666  0.8760  0.4840
 6562TIP3    H241178   3.092   6.287   0.299 -0.7665 -0.6124 -1.7236
 6563TIP3   OH241179   5.785   3.692  12.062  0.3505  0.3725 -0.7077
 6563TIP3    H141180   5.695   3.659  12.060  0.0874  1.0184  0.3603
 6563TIP3    H241181   5.786   3.764  11.999 -0.1962  1.1280  0.1258
 6564TIP3   OH241182   1.134   0.711  16.475  0.0845 -0.2533  0.2709
 6564TIP3    H141183   1.079   0.674  16.406  0.7863 -1.4524  0.3333
 6564TIP3    H241184   1.075   0.766  16.526 -0.8857 -0.9240 -0.1145
 6565TIP3   OH241185   4.373   4.628  16.569 -0.4319  0.9405  0.6790
 6565TIP3    H141186   4.396   4.586  16.652 -1.5897 -1.1877 -0.0291
 6565TIP3    H241187   4.400   4.564  16.503 -3.2357  0.8002 -0.3982
 6566TIP3   OH241188   3.317   5.456  15.823 -0.2408  0.6776  0.6889
 6566TIP3    H141189   3.299   5.522  15.756  2.0568  1.3968  0.7141
 6566TIP3    H241190   3.312   5.373  15.776 -0.3497  1.0652 -0.0034
 6567TIP3   OH241191   0.681   1.275   3.135 -0.3664 -0.5637 -0.5769
 6567TIP3    H141192   0.608   1.313   3.085 -1.8871 -2.3880  0.2033
 6567TIP3    H241193   0.664   1.181   3.135  0.7929 -0.8046  1.5104
 6568TIP3   OH241194   2.342   2.691  16.888 -0.1040  0.1241  0.1776
 6568TIP3    H141195   2.394   2.731  16.818  0.2318  0.7587  0.7834
 6568TIP3    H241196   2.301   2.615  16.847 -1.6756  1.7205 -1.3177
 6569TIP3   OH241197   2.733   0.980   0.789  0.0650  0.0046 -0.1145
 6569TIP3    H141198   2.687   1.052   0.831 -0.3093  0.3436 -1.0926
 6569TIP3    H241199   2.826   1.000   0.802 -0.0485 -0.1356  0.9406
 6570TIP3   OH241200   5.804   6.046  12.768 -0.5745  0.3227  0.0176
 6570TIP3    H141201   5.754   6.091  12.700  1.0258  1.3803 -0.4751
 6570TIP3    H241202   5.864   5.989  12.721 -0.9808 -0.6171  0.6060
 6571TIP3   OH241203   2.786   2.820   5.435  0.0852  0.0502  0.0519
 6571TIP3    H141204   2.726   2.769   5.489  0.1481  0.5652  0.6084
 6571TIP3    H241205   2.749   2.815   5.347 -0.5861  0.0773  0.3277
 6572TIP3   OH241206   1.377   5.888   2.662  0.4791 -0.2124 -0.0295
 6572TIP3    H141207   1.467   5.893   2.693  0.6352 -0.5848 -0.4051
 6572TIP3    H241208   1.343   5.977   2.671  0.1373 -0.5489  2.2950
 6573TIP3   OH241209   4.579   3.153   1.912 -0.1840  0.1139 -0.2579
 6573TIP3    H141210   4.498   3.197   1.938  0.4611  2.0470 -1.4320
 6573TIP3    H241211   4.615   3.207   1.842  1.4171 -1.4844 -0.7190
 6574TIP3   OH241212   3.615   2.611   6.231  0.0378 -0.3838 -0.2923
 6574TIP3    H141213   3.695   2.654   6.260 -1.3770  2.1276  0.0093
 6574TIP3    H241214   3.626   2.601   6.137  0.3954  0.6444 -0.3699
 6575TIP3   OH241215   3.260   3.841  16.744 -0.5083  0.3856  0.4082
 6575TIP3    H141216   3.277   3.788  16.666 -1.5878  0.4000  0.1646
 6575TIP3    H241217   3.325   3.912  16.739  0.3825 -0.4326  0.2960
 6576TIP3   OH241218   1.102   2.516   0.291  0.1938 -0.1011  0.3120
 6576TIP3    H141219   1.046   2.543   0.218  0.1364  0.2110  0.4714
 6576TIP3    H241220   1.050   2.532   0.369  0.7991  0.9671  0.5159
 6577TIP3   OH241221   4.515   5.674   5.347  0.3404 -0.4771  0.2384
 6577TIP3    H141222   4.529   5.768   5.339 -0.2167 -0.4265 -0.1205
 6577TIP3    H241223   4.573   5.636   5.281  0.3754 -0.3758  0.2103
 6578TIP3   OH241224   0.740   3.946  13.746  0.3875 -0.0779  0.5591
 6578TIP3    H141225   0.678   4.018  13.752  0.8765  0.2074  2.4944
 6578TIP3    H241226   0.685   3.869  13.730 -0.2580  0.4981 -0.0495
 6579TIP3   OH241227   4.092   6.762   0.943  0.2473  0.0605  0.8358
 6579TIP3    H141228   4.113   6.809   1.025  1.3240 -0.3599  0.8082
 6579TIP3    H241229   3.997   6.753   0.945  0.2023  0.6021  1.7529
 6580TIP3   OH241230   2.828   0.446   4.341 -0.2968  0.8269 -0.0439
 6580TIP3    H141231   2.865   0.469   4.256  0.4463  1.3318  0.4156
 6580TIP3    H241232   2.736   0.425   4.322  0.5447 -1.8144 -1.3985
 6581TIP3   OH241233   3.796   1.080  12.431 -0.0702 -0.1518  0.1724
 6581TIP3    H141234   3.847   1.090  12.511  0.6121  0.7504 -0.3770
 6581TIP3    H241235   3.858   1.095  12.360 -1.0237  0.6261 -0.5077
 6582TIP3   OH241236   4.462   4.835  10.527 -0.8541 -0.6095  0.1900
 6582TIP3    H141237   4.541   4.862  10.574 -1.0813 -0.7172  0.6414
 6582TIP3    H241238   4.488   4.835  10.435 -0.2251 -0.9784  0.3594
 6583TIP3   OH241239   0.091   1.553   4.173 -0.0469 -0.7947  0.4080
 6583TIP3    H141240   0.036   1.628   4.195 -1.0758 -1.0987 -1.1050
 6583TIP3    H241241   0.049   1.479   4.217  0.1460 -0.7427  0.6850
 6584TIP3   OH241242   4.678   6.005   4.718  0.5485  0.5593  0.2369
 6584TIP3    H141243   4.693   6.033   4.628  0.4258  1.9100  0.6127
 6584TIP3    H241244   4.748   5.943   4.736  0.6183  0.3375 -0.7654
 6585TIP3   OH241245   6.383   1.637   5.968  0.2313  0.1243  0.2149
 6585TIP3    H141246   6.376   1.654   6.062  0.6804  0.9844  0.0991
 6585TIP3    H241247   6.476   1.643   5.949 -0.1278  3.4871 -0.9103
 6586TIP3   OH241248   3.096   5.881   1.688  0.4117  0.0815 -0.3165
 6586TIP3    H141249   3.145   5.929   1.755  0.5255  0.0530 -0.3775
 6586TIP3    H241250   3.043   5.818   1.736  1.1455 -0.5298 -0.2948
 6587TIP3   OH241251   6.415   1.712  13.931 -0.1725 -0.1831 -0.1434
 6587TIP3    H141252   6.456   1.724  13.845  0.4625  1.0150  0.3275
 6587TIP3    H241253   6.464   1.639  13.970  0.8902  0.6185  0.0309
 6588TIP3   OH241254   6.204   4.089  14.262 -0.0419  0.8610  0.2861
 6588TIP3    H141255   6.234   4.173  14.298 -0.3076  1.0879 -0.0199
 6588TIP3    H241256   6.270   4.067  14.196 -0.1294  0.9761  0.1588
 6589TIP3   OH241257   0.534   2.698   2.998  0.1994 -0.0824 -0.1169
 6589TIP3    H141258   0.524   2.604   3.013  1.0664 -0.2089 -0.2970
 6589TIP3    H241259   0.519   2.738   3.084  0.9290 -0.4761  0.2010
 6590TIP3   OH241260   2.025   4.855   6.366  0.3276 -0.2147  0.8550
 6590TIP3    H141261   1.971   4.810   6.301 -0.3363 -0.6440  1.6900
 6590TIP3    H241262   1.976   4.847   6.448  1.1261  0.3660  1.4024
 6591TIP3   OH241263   4.450   2.625  15.301 -0.1780 -0.1722  0.0645
 6591TIP3    H141264   4.472   2.715  15.326  0.0850 -0.0285 -0.6859
 6591TIP3    H241265   4.448   2.577  15.384 -1.1068  0.6960  0.5585
 6592TIP3   OH241266   0.904   6.194   4.056 -0.2694  0.3920 -0.1600
 6592TIP3    H141267   0.819   6.155   4.037  0.1932 -0.8997  0.3435
 6592TIP3    H241268   0.946   6.132   4.115  1.0733  0.9678 -0.4905
 6593TIP3   OH241269   6.724   5.052   6.615 -0.5232 -0.0651 -0.2656
 6593TIP3    H141270   6.705   5.116   6.684 -0.2075 -0.4842  0.2102
 6593TIP3    H241271   6.639   5.032   6.576 -0.9184 -1.0701  1.0870
 6594TIP3   OH241272   4.845   1.098  14.427 -0.3341  0.3715 -0.1231
 6594TIP3    H141273   4.827   1.146  14.508 -2.2853 -1.5529  0.6491
 6594TIP3    H241274   4.940   1.102  14.417 -0.0096  0.2018  2.5656
 6595TIP3   OH241275   1.158   3.174   3.200  0.6651 -0.2444  0.4586
 6595TIP3    H141276   1.153   3.266   3.224 -0.1530  0.3738 -1.9672
 6595TIP3    H241277   1.084   3.133   3.245 -0.2859  0.7039 -0.2243
 6596TIP3   OH241278   2.755   6.680   0.558  0.0308 -0.2215 -0.0769
 6596TIP3    H141279   2.706   6.654   0.636  0.2090 -1.2736 -0.3098
 6596TIP3    H241280   2.843   6.644   0.571  1.3859  3.3486  1.2750
 6597TIP3   OH241281   4.489   5.395  12.812  0.0899  0.2179 -0.2913
 6597TIP3    H141282   4.398   5.369  12.824 -0.2967  2.5996  2.4932
 6597TIP3    H241283   4.497   5.410  12.718 -2.1459 -0.8272 -0.6909
 6598TIP3   OH241284   4.815   6.313  12.582 -0.3280 -0.5660  0.4956
 6598TIP3    H141285   4.720   6.303  12.594 -0.4015 -0.4313  0.0059
 6598TIP3    H241286   4.827   6.405  12.560 -0.0709 -0.5579  0.6705
 6599TIP3   OH241287   2.243   1.077   3.489 -0.1808 -0.2046  0.5137
 6599TIP3    H141288   2.165   1.131   3.498  0.0653  0.0712  1.0001
 6599TIP3    H241289   2.313   1.128   3.530  0.3478 -0.2565 -0.3039
 6600TIP3   OH241290   5.264   0.864   4.623  1.0754 -0.0637  0.2553
 6600TIP3    H141291   5.202   0.848   4.694 -0.7316  0.2973 -1.2221
 6600TIP3    H241292   5.271   0.780   4.578  2.2328 -0.2967  0.8528
 6601TIP3   OH241293   0.786   2.426   0.254  0.5169  0.2079 -0.6947
 6601TIP3    H141294   0.753   2.337   0.249  0.6353  0.1526 -0.4990
 6601TIP3    H241295   0.754   2.468   0.173  0.9732 -0.1812 -1.0784
 6602TIP3   OH241296   2.887   6.810   2.058  0.3416  0.0039  0.1543
 6602TIP3    H141297   2.935   6.864   2.121 -0.6299  2.1421 -0.8747
 6602TIP3    H241298   2.930   6.827   1.975  0.6310 -1.6027 -0.0424
 6603TIP3   OH241299   0.987   2.777   3.789  0.5363 -0.2054  0.2789
 6603TIP3    H141300   1.007   2.799   3.698  1.5945  0.0881  0.5751
 6603TIP3    H241301   0.960   2.686   3.787 -0.0509 -0.0199 -0.4166
 6604TIP3   OH241302   3.728   5.011  11.569 -0.4220 -0.5087  0.0795
 6604TIP3    H141303   3.727   5.091  11.622 -1.8431  1.4870 -2.7743
 6604TIP3    H241304   3.801   5.024  11.508  0.0662 -1.9315  0.3407
 6605TIP3   OH241305   1.838   3.425   3.877 -0.1387  0.2712 -0.2451
 6605TIP3    H141306   1.787   3.360   3.828  1.9698 -2.0035  0.4975
 6605TIP3    H241307   1.902   3.373   3.926  0.2650  2.7808  1.9687
 6606TIP3   OH241308   1.328   5.229   2.956 -0.1619 -0.4038  0.0661
 6606TIP3    H141309   1.355   5.243   2.865  2.8056  1.9359  1.2111
 6606TIP3    H241310   1.392   5.166   2.991 -1.2291 -1.2283  0.5578
 6607TIP3   OH241311   2.591   0.521  12.347 -0.6534  0.4933 -0.2893
 6607TIP3    H141312   2.642   0.586  12.298  1.2283  0.6690  1.8465
 6607TIP3    H241313   2.524   0.492  12.285  1.2758  1.1611 -2.7947
 6608TIP3   OH241314   3.715   5.427  14.373 -0.1105  0.2815 -0.5049
 6608TIP3    H141315   3.621   5.443  14.370 -0.0510  0.6703 -0.3272
 6608TIP3    H241316   3.752   5.508  14.408  0.4060  0.6085 -1.7708
 6609TIP3   OH241317   1.513   4.346   1.887 -0.5973 -0.1875 -0.0724
 6609TIP3    H141318   1.547   4.384   1.806 -0.5225 -0.8656 -0.3556
 6609TIP3    H241319   1.557   4.262   1.896 -0.1899  0.1289  0.9665
 6610TIP3   OH241320   5.883   2.196   2.655 -0.1643  0.0912  0.8368
 6610TIP3    H141321   5.938   2.235   2.588  1.5637 -3.0557  0.3029
 6610TIP3    H241322   5.894   2.252   2.732  1.6079  1.0498 -0.1097
 6611TIP3   OH241323   2.836   1.613  15.182  1.0329 -0.5357  0.4466
 6611TIP3    H141324   2.893   1.571  15.118 -1.0797 -0.6978 -1.3745
 6611TIP3    H241325   2.821   1.546  15.248  1.2499 -1.1864 -0.1621
 6612TIP3   OH241326   0.695   3.821   2.281  0.2634 -0.0743 -0.2761
 6612TIP3    H141327   0.675   3.915   2.282 -2.4554 -0.6124  1.6837
 6612TIP3    H241328   0.653   3.788   2.202 -1.3664 -0.1303  0.5970
 6613TIP3   OH241329   5.076   4.728   2.069  0.1669  0.2536 -0.0778
 6613TIP3    H141330   5.075   4.634   2.049  1.7923  0.3624 -0.7738
 6613TIP3    H241331   4.984   4.751   2.083 -0.3926 -1.1456 -1.3199
 6614TIP3   OH241332   6.395   2.776  14.219  0.4082  0.3260 -0.0926
 6614TIP3    H141333   6.396   2.741  14.130 -0.1479  0.2929 -0.0832
 6614TIP3    H241334   6.382   2.699  14.275  1.6343  0.2258  0.0765
 6615TIP3   OH241335   3.290   2.683  14.355  0.1360  0.2355  0.0636
 6615TIP3    H141336   3.369   2.736  14.362 -0.6928  1.7251 -1.4694
 6615TIP3    H241337   3.311   2.615  14.292  0.8469 -0.6190  1.2086
 6616TIP3   OH241338   2.408   3.995   0.041  0.1430  0.1314 -0.0426
 6616TIP3    H141339   2.416   4.030  -0.048 -0.8952  1.1131  0.2436
 6616TIP3    H241340   2.489   4.022   0.084  1.3357 -1.6454 -1.1175
 6617TIP3   OH241341   5.876   1.577   1.962 -0.0576  0.3611  0.6251
 6617TIP3    H141342   5.816   1.624   1.904  0.2866  0.4158  0.3119
 6617TIP3    H241343   5.869   1.623   2.046  0.7448  1.3659  0.1519
 6618TIP3   OH241344   0.922   6.328   3.340 -0.1774  0.8052 -0.1413
 6618TIP3    H141345   0.890   6.290   3.258 -0.8697 -0.2392  0.6003
 6618TIP3    H241346   0.854   6.307   3.404  1.3411 -0.2282  1.1635
 6619TIP3   OH241347   1.115   2.962   0.195 -0.4115  0.5214  0.1309
 6619TIP3    H141348   1.050   2.908   0.150 -0.4373  0.8716 -0.2558
 6619TIP3    H241349   1.075   2.981   0.280 -0.4679  0.0699  0.2091
 6620TIP3   OH241350   4.955   2.086  11.468  0.2249  0.4362 -0.6425
 6620TIP3    H141351   4.869   2.125  11.447  0.9453  2.8108  0.5737
 6620TIP3    H241352   4.988   2.140  11.539  1.6541 -2.0390  0.6187
 6621TIP3   OH241353   5.481   3.437  11.159  0.2874 -0.2488 -0.5270
 6621TIP3    H141354   5.471   3.368  11.224 -0.0725 -0.9093 -1.2780
 6621TIP3    H241355   5.431   3.510  11.195  2.8670  0.5673  1.5561
 6622TIP3   OH241356   4.146   0.601  12.215 -0.3021  0.4211 -0.6400
 6622TIP3    H141357   4.196   0.609  12.295  0.2287 -0.6010 -0.8559
 6622TIP3    H241358   4.171   0.677  12.162 -0.6811  1.1090  0.1662
 6623TIP3   OH241359   3.233   3.376  16.962 -0.0746 -0.5416  0.3516
 6623TIP3    H141360   3.196   3.424  16.888 -0.6421 -0.6559  0.5593
 6623TIP3    H241361   3.194   3.416  17.039 -0.4308 -1.2292  0.5333
 6624TIP3   OH241362   0.753   1.742  12.309  0.6873 -0.1236  0.1912
 6624TIP3    H141363   0.726   1.650  12.310  2.4519 -0.6576  1.1444
 6624TIP3    H241364   0.833   1.743  12.257 -0.5501  1.2626 -1.7232
 6625TIP3   OH241365   5.609   5.828   4.612 -0.6761  0.3508  0.0960
 6625TIP3    H141366   5.690   5.860   4.573 -1.1664  1.7978  0.2407
 6625TIP3    H241367   5.608   5.734   4.593  0.3320  0.5919 -1.1396
 6626TIP3   OH241368   4.777   1.368   6.182 -0.4524 -0.2628 -0.4284
 6626TIP3    H141369   4.838   1.307   6.222 -0.8864 -1.1301 -1.0751
 6626TIP3    H241370   4.740   1.321   6.108 -0.7372  0.8116 -0.9857
 6627TIP3   OH241371   5.292   3.085  11.898 -0.2323  0.1578 -0.4150
 6627TIP3    H141372   5.376   3.046  11.922  0.0852 -0.5068 -2.5031
 6627TIP3    H241373   5.277   3.153  11.964  1.4101 -0.4430  0.6046
 6628TIP3   OH241374   4.357   2.507  12.246 -0.2681  0.6986 -0.1080
 6628TIP3    H141375   4.434   2.456  12.222 -0.7269  0.0205 -0.1721
 6628TIP3    H241376   4.380   2.598  12.226  0.0908  0.3660 -1.2304
 6629TIP3   OH241377   4.069   6.055  12.606  0.1699  0.7072 -0.3104
 6629TIP3    H141378   4.044   6.091  12.521 -0.3744  0.2147 -0.3651
 6629TIP3    H241379   4.003   6.088  12.667 -0.2644 -0.0835 -0.3422
 6630TIP3   OH241380   4.144   6.137   1.062 -0.9273  0.3074  0.2765
 6630TIP3    H141381   4.121   6.173   1.148 -1.1742 -0.2681  0.4560
 6630TIP3    H241382   4.111   6.202   1.000 -1.5026  0.3256  0.5922
 6631TIP3   OH241383   1.020   6.649  16.740 -0.6352 -0.1670  0.2968
 6631TIP3    H141384   1.040   6.558  16.762  0.0567  0.0611  0.6442
 6631TIP3    H241385   1.085   6.672  16.674  0.3887  0.6309  1.5361
 6632TIP3   OH241386   4.732   5.739  14.595  0.4114  0.1782 -0.1278
 6632TIP3    H141387   4.714   5.680  14.668  0.1418 -1.1430 -1.2191
 6632TIP3    H241388   4.660   5.724  14.534  1.8162 -0.4379 -1.6800
 6633TIP3   OH241389   6.662   2.814  13.385 -0.0004 -0.0185 -0.3101
 6633TIP3    H141390   6.699   2.898  13.358 -0.0714  0.3111  0.6052
 6633TIP3    H241391   6.692   2.752  13.319 -0.6146  0.8738 -1.4509
 6634TIP3   OH241392   0.206   5.030  12.623 -0.0032  0.1727  0.1946
 6634TIP3    H141393   0.256   5.107  12.598 -0.7507  0.1660 -1.3491
 6634TIP3    H241394   0.224   4.966  12.555 -0.9953 -0.3156  0.3860
 6635TIP3   OH241395   3.184   1.354   0.554 -0.1024 -0.9699  0.4155
 6635TIP3    H141396   3.095   1.330   0.582 -0.5614 -0.3871 -0.4984
 6635TIP3    H241397   3.206   1.290   0.487  0.0032 -0.8759  0.3606
 6636TIP3   OH241398   1.104   0.462  11.943 -0.4745  0.1949 -0.0460
 6636TIP3    H141399   1.125   0.421  12.026  0.0132 -3.5077 -1.8937
 6636TIP3    H241400   1.167   0.534  11.935 -0.2331  0.3111  2.5183
 6637TIP3   OH241401   5.235   1.580  11.962 -0.1241  0.1924  0.1009
 6637TIP3    H141402   5.151   1.535  11.966 -0.4993  0.6504 -2.2467
 6637TIP3    H241403   5.268   1.562  11.874  2.2226  0.0706  0.9598
 6638TIP3   OH241404   5.879   1.596   4.451  0.7514  0.0457 -0.0471
 6638TIP3    H141405   5.833   1.591   4.535  0.0094  1.1178 -0.3806
 6638TIP3    H241406   5.812   1.574   4.386  1.2357 -0.4295 -0.3851
 6639TIP3   OH241407   1.359   1.524   5.036  0.3146 -0.1980  0.5312
 6639TIP3    H141408   1.443   1.564   5.012 -0.8388  2.0488  0.0244
 6639TIP3    H241409   1.295   1.572   4.984 -1.4684 -0.5774  2.3356
 6640TIP3   OH241410   4.256   0.848  14.965 -0.0346  0.5406  0.3056
 6640TIP3    H141411   4.265   0.943  14.962 -2.0051  0.6934 -1.9086
 6640TIP3    H241412   4.171   0.833  15.007 -0.4259 -0.1827 -0.7230
 6641TIP3   OH241413   6.019   0.057   0.765  0.2353 -0.2453  0.7372
 6641TIP3    H141414   6.103   0.069   0.720 -0.6772 -1.2242 -1.3157
 6641TIP3    H241415   6.040   0.062   0.858  2.2620  1.5277  0.2324
 6642TIP3   OH241416   4.639   4.029  14.117  0.1828  0.2020 -0.1396
 6642TIP3    H141417   4.723   4.072  14.103 -0.1669  0.5152 -1.4007
 6642TIP3    H241418   4.628   4.026  14.212  1.4099  0.5459  0.0202
 6643TIP3   OH241419   2.350   6.650  14.534 -0.5497  0.2040  0.5015
 6643TIP3    H141420   2.305   6.628  14.452  2.1383 -3.0055 -0.1983
 6643TIP3    H241421   2.315   6.587  14.598  1.1270 -0.7010  0.5391
 6644TIP3   OH241422   3.297   5.297   4.838  0.5691 -0.0851  0.1872
 6644TIP3    H141423   3.252   5.239   4.900  1.4033 -1.6366 -0.6294
 6644TIP3    H241424   3.341   5.237   4.777  0.2283  1.4067 -1.5643
 6645TIP3   OH241425   1.837   5.275   4.658  0.0869  0.0218 -0.5250
 6645TIP3    H141426   1.848   5.339   4.587  1.3101 -0.4668 -0.7835
 6645TIP3    H241427   1.819   5.328   4.735 -0.3120  0.6090 -1.0176
 6646TIP3   OH241428   3.527   0.391  10.709  0.0721  0.4485  0.1947
 6646TIP3    H141429   3.463   0.443  10.758  0.6258 -0.5545  2.0357
 6646TIP3    H241430   3.609   0.439  10.719 -0.2838  1.5531 -1.8813
 6647TIP3   OH241431   2.205   6.320  12.835 -0.0176  0.1013 -0.3902
 6647TIP3    H141432   2.141   6.356  12.774  0.1685  0.1763 -0.5446
 6647TIP3    H241433   2.267   6.273  12.780 -0.7655 -1.2447 -0.1021
 6648TIP3   OH241434   1.061   1.064  15.962 -0.4539  1.0603  0.3691
 6648TIP3    H141435   1.139   1.042  16.013 -0.4496  3.8154  1.6218
 6648TIP3    H241436   1.014   0.981  15.954  1.9737 -0.3912  0.6479
 6649TIP3   OH241437   3.636   2.956   0.698 -0.1149 -0.5425 -0.0267
 6649TIP3    H141438   3.549   2.975   0.735  0.1411  3.3736 -1.2024
 6649TIP3    H241439   3.619   2.897   0.625 -1.7349 -0.1568  0.0179
 6650TIP3   OH241440   2.406   2.005  12.629  0.1727  0.3036  0.1801
 6650TIP3    H141441   2.321   2.037  12.598  0.6232  1.9299  0.5791
 6650TIP3    H241442   2.447   1.967  12.551 -0.1838  1.1290 -0.4214
 6651TIP3   OH241443   2.884   2.047  16.479 -0.4714  0.0774 -0.0038
 6651TIP3    H141444   2.834   1.967  16.495 -1.2702  0.5160 -0.2805
 6651TIP3    H241445   2.877   2.061  16.385 -0.3869  0.5091  0.0554
 6652TIP3   OH241446   5.824   1.486  16.722 -0.2123 -0.0304 -0.3619
 6652TIP3    H141447   5.831   1.499  16.627 -0.4240  2.3967 -0.0704
 6652TIP3    H241448   5.859   1.399  16.737  0.6297 -0.0950 -2.5765
 6653TIP3   OH241449   1.960   1.719   4.403  0.5438 -0.5587  0.0237
 6653TIP3    H141450   1.935   1.797   4.452 -0.2153  0.0694 -1.3333
 6653TIP3    H241451   1.989   1.751   4.318  0.5918 -1.7111 -0.4111
 6654TIP3   OH241452   3.073   3.884   3.855  0.1675 -0.1896 -0.6895
 6654TIP3    H141453   3.159   3.850   3.831  0.3488 -2.9427  3.4093
 6654TIP3    H241454   3.018   3.807   3.863 -1.5281  1.1603  1.1230
 6655TIP3   OH241455   0.152   3.437  12.197 -0.2792  0.5044  0.1276
 6655TIP3    H141456   0.098   3.384  12.256 -1.8337  1.8638 -0.0399
 6655TIP3    H241457   0.220   3.473  12.254 -0.2072 -0.3152  0.5719
 6656TIP3   OH241458   0.701   1.509   4.686 -0.1797  0.1079  0.4372
 6656TIP3    H141459   0.617   1.519   4.730 -1.4065 -0.0904 -1.7491
 6656TIP3    H241460   0.700   1.418   4.655  0.3597  0.4239 -0.5172
 6657TIP3   OH241461   1.955   5.682  14.818  0.0843 -0.0321  0.6910
 6657TIP3    H141462   2.010   5.612  14.784  0.2484  0.0860  0.7140
 6657TIP3    H241463   1.917   5.645  14.898 -1.9473 -1.0650 -0.6969
 6658TIP3   OH241464   3.103   5.813  15.989  0.2540  0.1331  0.5035
 6658TIP3    H141465   3.136   5.839  15.903  0.0971  1.1223  0.7378
 6658TIP3    H241466   3.142   5.875  16.050  1.0123 -1.0716  1.2614
 6659TIP3   OH241467   2.060   4.428   1.983 -0.5969  1.0597 -0.6587
 6659TIP3    H141468   2.150   4.396   1.986 -0.7155  0.4540 -2.8316
 6659TIP3    H241469   2.005   4.349   1.987 -1.1393  1.5221  2.8151
 6660TIP3   OH241470   0.854   3.743   3.601  0.3732 -0.1462  0.3235
 6660TIP3    H141471   0.817   3.787   3.677 -1.8760 -0.3505 -0.5967
 6660TIP3    H241472   0.881   3.657   3.634 -0.5934 -0.2387  0.9041
 6661TIP3   OH241473   0.520   2.545   6.550  0.4132  0.1123  0.5680
 6661TIP3    H141474   0.484   2.566   6.636  1.5696  1.2144  0.8046
 6661TIP3    H241475   0.597   2.491   6.568  0.5947  0.2513  0.2205
 6662TIP3   OH241476   3.888   1.956   2.175 -0.1612  0.9709 -0.2009
 6662TIP3    H141477   3.923   1.882   2.224 -0.1979  0.7584 -0.4901
 6662TIP3    H241478   3.881   1.924   2.085 -1.3323  0.9134 -0.1064
 6663TIP3   OH241479   2.845   2.324   5.331  0.3303 -0.1243 -0.2440
 6663TIP3    H141480   2.844   2.304   5.237 -0.5549  0.6711 -0.4044
 6663TIP3    H241481   2.784   2.396   5.341 -0.4565 -0.9651  1.1241
 6664TIP3   OH241482   1.528   6.118  13.493 -0.0531  0.1836  0.6385
 6664TIP3    H141483   1.487   6.097  13.577 -0.9787 -1.0664 -0.1163
 6664TIP3    H241484   1.455   6.141  13.436  0.5237  0.4224 -0.0132
 6665TIP3   OH241485   5.299   2.306  15.134 -0.0775 -0.1622 -0.1330
 6665TIP3    H141486   5.207   2.290  15.116  0.3993  0.0749 -3.1149
 6665TIP3    H241487   5.303   2.398  15.159 -0.5031  0.1441 -1.1831
 6666TIP3   OH241488   5.442   5.766  13.709  0.4358 -0.5389  0.3497
 6666TIP3    H141489   5.420   5.673  13.708  0.1350 -0.4614 -0.9578
 6666TIP3    H241490   5.482   5.782  13.624  2.6685  0.0189  1.4629
 6667TIP3   OH241491   4.500   3.448  13.523  0.1312  0.3444 -0.4105
 6667TIP3    H141492   4.502   3.366  13.573 -3.4639 -1.1565 -2.5513
 6667TIP3    H241493   4.523   3.423  13.434  0.2512  1.8958 -0.8270
 6668TIP3   OH241494   6.037   6.260  16.923  0.1244  0.4111  0.7097
 6668TIP3    H141495   6.114   6.295  16.968  1.2642  0.7634 -1.4698
 6668TIP3    H241496   6.073   6.204  16.854 -1.5655  0.8526 -0.5487
 6669TIP3   OH241497   6.178   6.070   1.500 -0.2338  0.2236  0.3192
 6669TIP3    H141498   6.244   6.005   1.526  0.6162  1.1909  0.6202
 6669TIP3    H241499   6.104   6.018   1.470  1.0541 -0.8802 -1.0257
 6670TIP3   OH241500   0.880   1.300   0.244 -0.4738 -0.0729  0.3623
 6670TIP3    H141501   0.906   1.361   0.313  0.9732 -0.3961  0.1101
 6670TIP3    H241502   0.821   1.350   0.188  3.6190  2.3400 -2.0076
 6671TIP3   OH241503   5.017   2.769   6.519 -0.3220  0.0431  0.4102
 6671TIP3    H141504   5.028   2.767   6.614 -2.0641 -3.3023  0.6224
 6671TIP3    H241505   4.930   2.733   6.505  1.0133 -2.1502 -2.6018
 6672TIP3   OH241506   3.010   0.448  12.483  0.0441 -0.3045  0.0102
 6672TIP3    H141507   2.952   0.377  12.456 -0.7617  0.1910  0.4343
 6672TIP3    H241508   3.097   0.420  12.454 -0.5713 -0.4824 -1.7261
 6673TIP3   OH241509   3.767   0.242   1.501  0.2334 -0.0886  0.1366
 6673TIP3    H141510   3.757   0.275   1.590 -1.2101 -0.7538  0.2274
 6673TIP3    H241511   3.714   0.162   1.498  1.5873 -0.9890 -0.8418
 6674TIP3   OH241512   6.492   2.951  16.134  0.3950 -0.1454 -0.0243
 6674TIP3    H141513   6.441   2.973  16.056  0.4136 -4.5953 -1.3954
 6674TIP3    H241514   6.571   3.005  16.126 -0.8126  1.4594 -1.6445
 6675TIP3   OH241515   4.074   4.384   5.772  0.3520 -0.2048 -0.1701
 6675TIP3    H141516   3.996   4.400   5.825  0.2067 -1.6503  0.0877
 6675TIP3    H241517   4.072   4.452   5.705 -1.4627 -0.5571 -0.5182
 6676TIP3   OH241518   0.209   2.415  14.958  0.6554  0.0922  0.5893
 6676TIP3    H141519   0.247   2.480  15.017  1.4542  0.6824 -0.5769
 6676TIP3    H241520   0.157   2.466  14.896 -0.6505 -0.5735  1.0995
 6677TIP3   OH241521   2.259   4.182   3.779 -0.0501 -0.4517 -0.0412
 6677TIP3    H141522   2.330   4.246   3.774 -1.5546  1.2997  0.4815
 6677TIP3    H241523   2.266   4.132   3.697  1.3365  0.1850 -0.3141
 6678TIP3   OH241524   6.254   4.065  15.646 -0.3093  0.0783 -0.0019
 6678TIP3    H141525   6.311   4.009  15.593  0.1607  1.0540 -0.5637
 6678TIP3    H241526   6.282   4.051  15.736  0.8768  0.5815 -0.2774
 6679TIP3   OH241527   3.297   5.978  15.410 -0.3891 -0.6241  0.2861
 6679TIP3    H141528   3.370   6.002  15.352 -1.7736  0.0940 -1.2186
 6679TIP3    H241529   3.339   5.954  15.492  1.5177  0.3738 -0.3458
 6680TIP3   OH241530   0.985   5.960  14.253 -0.2149  0.2942  0.1157
 6680TIP3    H141531   1.000   6.040  14.303 -0.4910 -1.3374  2.9041
 6680TIP3    H241532   1.071   5.938  14.217  0.3017  0.7123  1.0706
 6681TIP3   OH241533   0.470   6.002  14.958  0.1680  0.5725  0.4082
 6681TIP3    H141534   0.525   6.062  15.009 -0.2444  0.9048  0.4642
 6681TIP3    H241535   0.522   5.922  14.952  1.8028  1.7635 -1.8257
 6682TIP3   OH241536   5.592   1.030  13.781  0.2328  0.1507  0.2647
 6682TIP3    H141537   5.590   1.090  13.856 -0.5235 -1.0944  1.2709
 6682TIP3    H241538   5.530   0.960  13.805 -0.2735 -0.0834 -1.6798
 6683TIP3   OH241539   2.141   6.616  14.856  0.2553 -0.0245  0.5784
 6683TIP3    H141540   2.062   6.598  14.805 -0.9529  0.1930  2.3260
 6683TIP3    H241541   2.188   6.533  14.856 -0.6190 -0.5298  0.6030
 6684TIP3   OH241542   4.706   4.003   5.201  0.3171  0.0974  0.4605
 6684TIP3    H141543   4.614   3.981   5.187  0.3172 -1.0932  2.2143
 6684TIP3    H241544   4.704   4.091   5.240 -0.0161  0.4408 -0.3199
 6685TIP3   OH241545   4.941   5.746   2.572  0.1624 -0.0012  0.2986
 6685TIP3    H141546   4.910   5.821   2.624 -0.1457  0.1882 -0.1606
 6685TIP3    H241547   5.034   5.739   2.596  0.5507  1.4175 -0.7076
 6686TIP3   OH241548   1.501   6.586   2.655 -0.2400  0.5299  0.5121
 6686TIP3    H141549   1.417   6.563   2.695 -0.1565 -0.1442  0.3062
 6686TIP3    H241550   1.566   6.555   2.718 -0.0487 -2.3850 -1.0476
 6687TIP3   OH241551   1.065   4.037  11.844 -0.7200  0.2519  0.0501
 6687TIP3    H141552   1.136   4.040  11.780 -1.8979  1.6053 -1.2210
 6687TIP3    H241553   0.992   4.081  11.802 -2.6071 -1.8313  1.0150
 6688TIP3   OH241554   4.332   1.308  15.842  0.1545  0.0476  0.2378
 6688TIP3    H141555   4.426   1.324  15.830 -0.0805  1.3466  0.0605
 6688TIP3    H241556   4.299   1.390  15.879 -0.7067 -0.8050  1.3959
 6689TIP3   OH241557   1.823   0.176  11.249 -0.2491 -0.1591  0.7545
 6689TIP3    H141558   1.914   0.148  11.264 -0.6177 -0.7903  1.9115
 6689TIP3    H241559   1.814   0.256  11.300 -0.0774  0.4102 -0.1072
 6690TIP3   OH241560   5.568   0.818   6.525 -0.1264 -0.7263 -0.0422
 6690TIP3    H141561   5.587   0.754   6.594  0.5137 -0.0991  0.3690
 6690TIP3    H241562   5.546   0.898   6.572  1.5353  0.0505 -0.5741
 6691TIP3   OH241563   1.260   5.117   3.399  0.1239  0.4606  0.2010
 6691TIP3    H141564   1.233   5.025   3.389 -0.7780  0.8909 -1.5527
 6691TIP3    H241565   1.351   5.119   3.368  0.3034  0.0724  0.6970
 6692TIP3   OH241566   2.442   4.429   0.696 -0.0458 -0.5076  0.2879
 6692TIP3    H141567   2.468   4.512   0.738  0.1739  0.0278 -0.8880
 6692TIP3    H241568   2.363   4.451   0.648  0.0755 -0.9613 -0.1203
 6693TIP3   OH241569   6.315   1.424   3.500 -0.4582 -0.1314  0.3266
 6693TIP3    H141570   6.362   1.343   3.522 -0.0103 -0.1929 -0.7920
 6693TIP3    H241571   6.341   1.442   3.410 -1.4412  0.6530  0.1945
 6694TIP3   OH241572   1.909   3.237   2.328 -0.5967 -0.5645 -0.2854
 6694TIP3    H141573   1.864   3.270   2.251 -1.3933  0.2768  0.5213
 6694TIP3    H241574   1.938   3.149   2.304 -0.4948 -0.1669 -1.6626
 6695TIP3   OH241575   1.205   5.809   3.347  0.3503  0.1343 -0.1736
 6695TIP3    H141576   1.159   5.749   3.405 -2.1344  2.0403 -0.1189
 6695TIP3    H241577   1.237   5.753   3.276 -1.4681 -1.3167  0.1225
 6696TIP3   OH241578   2.710   2.402   6.125 -0.4688 -0.2392  0.1357
 6696TIP3    H141579   2.760   2.331   6.166  1.0947  0.0721 -1.1667
 6696TIP3    H241580   2.699   2.467   6.194 -0.3562 -0.9678  0.8443
 6697TIP3   OH241581   1.177   6.707  11.593 -0.3925  0.4491  0.6875
 6697TIP3    H141582   1.224   6.763  11.531  2.8337 -2.9019 -0.0514
 6697TIP3    H241583   1.174   6.758  11.674 -0.4626  2.9886 -0.8528
 6698TIP3   OH241584   2.183   2.442   2.047  0.3664  0.0769 -0.5893
 6698TIP3    H141585   2.236   2.497   2.106  1.7265 -1.6150 -0.1937
 6698TIP3    H241586   2.238   2.431   1.970 -0.3073  0.0693 -1.0639
 6699TIP3   OH241587   4.861   1.736  16.599  0.5116 -0.0737 -0.1278
 6699TIP3    H141588   4.866   1.804  16.531  2.1600  0.3021  0.3508
 6699TIP3    H241589   4.910   1.772  16.672 -0.2918 -0.9676  0.8662
 6700TIP3   OH241590   5.707   6.244   5.118  0.5386 -0.1947 -0.0050
 6700TIP3    H141591   5.732   6.167   5.169 -0.5014 -0.7386 -0.2950
 6700TIP3    H241592   5.639   6.287   5.170  1.0375  0.4681  0.1035
 6701TIP3   OH241593   2.320   6.487  15.614  0.4960 -0.2325  0.8937
 6701TIP3    H141594   2.249   6.524  15.666  1.5624 -0.3004  2.4473
 6701TIP3    H241595   2.393   6.480  15.676  1.5535 -1.0557 -0.4295
 6702TIP3   OH241596   6.052   0.228  13.284 -0.4053  0.8326 -0.3800
 6702TIP3    H141597   6.032   0.137  13.261 -1.9159  1.7463 -2.7624
 6702TIP3    H241598   6.084   0.267  13.203  4.4441  1.3427  1.5983
 6703TIP3   OH241599   5.627   1.832  16.751  0.0380 -0.3432 -0.1957
 6703TIP3    H141600   5.609   1.738  16.747 -1.3592 -0.1524  1.0923
 6703TIP3    H241601   5.551   1.869  16.796  0.9323  1.3035 -0.0008
 6704TIP3   OH241602   5.134   0.485  16.511 -0.0066  0.6799  0.1222
 6704TIP3    H141603   5.213   0.480  16.565 -0.5518 -1.7962  0.7376
 6704TIP3    H241604   5.092   0.400  16.521 -0.8012  0.6058 -3.2004
 6705TIP3   OH241605   2.052   6.332  16.527 -0.3449  0.1413  0.1079
 6705TIP3    H141606   2.096   6.248  16.541 -1.0607 -0.3675 -0.6495
 6705TIP3    H241607   2.099   6.372  16.454 -1.0790 -0.3741 -0.6597
 6706TIP3   OH241608   1.359   0.824  15.864 -0.8931  0.0029  0.4970
 6706TIP3    H141609   1.388   0.755  15.805  0.9657 -0.1682  1.5650
 6706TIP3    H241610   1.282   0.787  15.909 -2.3765  0.1770 -1.8280
 6707TIP3   OH241611   3.915   6.648  14.735  0.3765 -0.3560  0.1409
 6707TIP3    H141612   4.008   6.670  14.748  0.2910  1.1644 -1.7888
 6707TIP3    H241613   3.884   6.709  14.669 -1.1389 -3.0783 -1.7369
 6708TIP3   OH241614   1.387   6.297  14.295  0.1845  0.5220 -0.0432
 6708TIP3    H141615   1.444   6.297  14.218  0.0419 -1.8613 -0.2102
 6708TIP3    H241616   1.437   6.248  14.361 -0.8658  0.0490  0.4140
 6709TIP3   OH241617   6.300   5.503   4.630  0.0943  0.2747 -0.1434
 6709TIP3    H141618   6.317   5.463   4.545 -0.5131 -1.8139  0.7116
 6709TIP3    H241619   6.206   5.493   4.643 -0.1458  2.3161 -0.0615
 6710TIP3   OH241620   1.331   5.584  16.683 -0.5517 -0.3651 -0.1674
 6710TIP3    H141621   1.328   5.488  16.685 -1.1272 -0.3987 -1.6763
 6710TIP3    H241622   1.358   5.609  16.771 -0.3935 -1.9169  0.2472
 6711TIP3   OH241623   1.380   3.150  12.340  0.2008  0.4845  0.6500
 6711TIP3    H141624   1.378   3.234  12.294 -2.0202 -0.8416 -1.7487
 6711TIP3    H241625   1.288   3.125  12.350  0.8400 -1.8012  1.1158
 6712TIP3   OH241626   0.205   6.640   0.779  0.0356  0.3890  0.1830
 6712TIP3    H141627   0.249   6.575   0.723 -2.2862  0.4658 -1.8275
 6712TIP3    H241628   0.248   6.723   0.758 -0.0149  0.2189 -0.5988
 6713TIP3   OH241629   3.848   0.257   3.988 -0.8227  0.4264  0.4166
 6713TIP3    H141630   3.771   0.297   4.028 -0.9676 -0.1333  0.7112
 6713TIP3    H241631   3.886   0.204   4.058 -1.1046 -0.6066 -0.1980
 6714TIP3   OH241632   0.925   2.626  16.162 -0.2913  0.6574  0.1117
 6714TIP3    H141633   1.011   2.598  16.191 -0.5931 -1.8269 -1.2816
 6714TIP3    H241634   0.942   2.707  16.113  1.0916  0.8545  0.8961
 6715TIP3   OH241635   6.122   5.341  13.781 -0.1313 -0.4622 -0.3852
 6715TIP3    H141636   6.055   5.385  13.729 -0.5284  1.2688  1.5075
 6715TIP3    H241637   6.189   5.316  13.718 -0.5468  1.6284 -1.7230
 6716TIP3   OH241638   1.860   4.477   1.435  0.7332  0.4241 -0.2448
 6716TIP3    H141639   1.879   4.540   1.365  0.4862  0.9857  0.1840
 6716TIP3    H241640   1.943   4.468   1.482  0.2558  2.0121  0.9432
 6717TIP3   OH241641   5.841   6.413   3.007  0.8171  0.1624 -0.5902
 6717TIP3    H141642   5.854   6.331   2.960  0.0553  0.0517 -0.6190
 6717TIP3    H241643   5.754   6.443   2.979  0.1641 -0.1387  1.0961
 6718TIP3   OH241644   2.668   1.952   1.728 -0.2823  0.1113  0.2619
 6718TIP3    H141645   2.738   1.889   1.741  0.6693  1.2492  0.7601
 6718TIP3    H241646   2.706   2.020   1.673 -1.8664 -0.6604 -1.8573
 6719TIP3   OH241647   5.269   3.633  11.250 -0.1019  0.5766 -0.0336
 6719TIP3    H141648   5.314   3.717  11.257  2.0644 -0.5351 -0.1296
 6719TIP3    H241649   5.208   3.644  11.177  0.6903  1.8304 -0.5166
 6720TIP3   OH241650   4.776   2.208  11.917  0.2656  0.1158  0.2939
 6720TIP3    H141651   4.828   2.243  11.990  0.4675  0.0500  0.1823
 6720TIP3    H241652   4.800   2.262  11.842 -2.1980  2.1677  0.9071
 6721TIP3   OH241653   0.465   1.505   4.434 -0.5721 -0.2312 -0.4395
 6721TIP3    H141654   0.535   1.551   4.387 -0.6092 -0.9816 -1.2440
 6721TIP3    H241655   0.388   1.561   4.424 -1.2022 -1.5388 -3.3929
 6722TIP3   OH241656   4.927   5.002  17.063 -0.2677  0.1541 -0.4086
 6722TIP3    H141657   4.941   5.030  17.153 -0.1654  0.7593 -0.6088
 6722TIP3    H241658   4.969   4.916  17.058 -0.7111 -0.1089  0.2511
 6723TIP3   OH241659   6.457   4.352   6.072  0.3059  0.3725  0.2992
 6723TIP3    H141660   6.498   4.346   5.985  1.0796 -1.0009  0.7513
 6723TIP3    H241661   6.519   4.309   6.131  1.5215  4.4290  2.1655
 6724TIP3   OH241662   5.340   5.808   3.569  0.4132  0.1813  0.1809
 6724TIP3    H141663   5.287   5.730   3.556 -0.6236  0.8334  0.4482
 6724TIP3    H241664   5.347   5.817   3.665  1.8952 -0.4951  0.1488
 6725TIP3   OH241665   0.943   0.576   5.383 -0.4794 -0.1381  0.0602
 6725TIP3    H141666   0.934   0.660   5.339 -0.5297  0.5431  1.3453
 6725TIP3    H241667   0.998   0.524   5.324 -0.7431  0.6686 -0.9086
 6726TIP3   OH241668   5.321   0.513  15.538  0.2951 -0.2550 -0.6108
 6726TIP3    H141669   5.328   0.537  15.446  0.4227  2.1615 -0.0123
 6726TIP3    H241670   5.246   0.563  15.570  0.2806 -1.0363  0.6018
 6727TIP3   OH241671   6.151   5.945   6.497 -0.2269 -0.3847  0.5923
 6727TIP3    H141672   6.135   5.851   6.504 -2.9634 -0.1619 -1.7827
 6727TIP3    H241673   6.074   5.986   6.537 -0.9536  0.7849 -1.8848
 6728TIP3   OH241674   0.456   4.726  14.545 -0.0809 -0.3100 -0.4263
 6728TIP3    H141675   0.550   4.719  14.531 -0.1211 -1.4903 -0.1546
 6728TIP3    H241676   0.437   4.820  14.539  0.9442 -0.1738 -1.5415
 6729TIP3   OH241677   1.140   2.310   5.056 -0.4227 -0.1232  0.1418
 6729TIP3    H141678   1.231   2.281   5.064 -0.3994  0.3729  1.9059
 6729TIP3    H241679   1.092   2.231   5.030  0.6827 -0.0994 -2.0335
 6730TIP3   OH241680   4.208   1.102   1.086  0.2802 -0.7311  0.2389
 6730TIP3    H141681   4.168   1.123   1.170  0.2987 -0.7265  0.2468
 6730TIP3    H241682   4.288   1.054   1.109 -0.2477 -1.6462  0.1978
 6731TIP3   OH241683   3.659   6.210   3.706 -0.3982 -0.1128  0.2061
 6731TIP3    H141684   3.721   6.137   3.705  1.1888  1.2260 -0.7604
 6731TIP3    H241685   3.714   6.288   3.717 -1.7299  1.2519 -2.5173
 6732TIP3   OH241686   5.548   3.239   1.533  0.4006 -0.0116  0.4618
 6732TIP3    H141687   5.528   3.148   1.513 -0.1092  0.4619 -1.3227
 6732TIP3    H241688   5.469   3.272   1.577 -0.8302  0.4562 -1.9681
 6733TIP3   OH241689   1.047   2.713   5.255  0.0416  0.0679  0.5904
 6733TIP3    H141690   1.112   2.683   5.318  0.9696  0.7617 -0.0210
 6733TIP3    H241691   1.070   2.669   5.173 -0.2298  0.3439  0.3622
 6734TIP3   OH241692   2.651   6.069  14.138 -0.1664 -0.4126  0.2954
 6734TIP3    H141693   2.620   6.146  14.090 -0.0197 -0.1323  0.6499
 6734TIP3    H241694   2.594   6.064  14.215 -0.6064 -1.0469 -0.0668
 6735TIP3   OH241695   4.610   0.405   4.821 -0.1137  0.5330  0.6457
 6735TIP3    H141696   4.518   0.430   4.834 -0.6130 -0.3237 -1.2010
 6735TIP3    H241697   4.657   0.488   4.816 -1.1838  1.0328 -1.2317
 6736TIP3   OH241698   4.750   0.458  14.973  0.0407  0.0486  0.5232
 6736TIP3    H141699   4.727   0.406  15.050  2.8052 -3.5515 -0.9002
 6736TIP3    H241700   4.846   0.455  14.971  0.0300  0.5052 -2.7389
 6737TIP3   OH241701   2.497   2.455  11.943  0.0551  0.0144 -0.0613
 6737TIP3    H141702   2.518   2.536  11.989 -1.1815 -0.3960  1.2773
 6737TIP3    H241703   2.560   2.391  11.977  0.8101  0.3338 -0.8644
 6738TIP3   OH241704   4.000   6.011  12.006 -0.0539 -0.1823 -0.4132
 6738TIP3    H141705   4.055   5.991  12.083  2.3811 -0.8986 -2.2757
 6738TIP3    H241706   4.024   5.944  11.942 -0.8638  1.3617 -2.3764
 6739TIP3   OH241707   3.224   4.845  10.393  0.0443  0.2132 -0.3547
 6739TIP3    H141708   3.210   4.917  10.455 -0.4297  0.0676 -0.2902
 6739TIP3    H241709   3.319   4.835  10.389  0.0613  0.0466  0.5395
 6740TIP3   OH241710   4.109   3.889  16.842  0.7481 -0.0991 -0.1623
 6740TIP3    H141711   4.101   3.915  16.750 -0.6152  0.7954  0.2025
 6740TIP3    H241712   4.040   3.937  16.887  1.7510 -0.1192  1.4315
 6741TIP3   OH241713   0.591   2.814  15.194 -0.1332  0.1016 -0.2804
 6741TIP3    H141714   0.543   2.805  15.276  0.5529 -0.7417  0.0418
 6741TIP3    H241715   0.548   2.886  15.148 -0.2994  0.8033  0.9718
 6742TIP3   OH241716   6.217   3.582   5.954  0.1323 -0.3598  0.0052
 6742TIP3    H141717   6.195   3.587   5.861 -2.6526 -1.1582  0.5790
 6742TIP3    H241718   6.143   3.536   5.994  1.7237 -0.8705  2.4815
 6743TIP3   OH241719   1.512   6.358  11.676 -0.7243 -0.5927 -0.7095
 6743TIP3    H141720   1.597   6.316  11.664 -0.9312 -0.5404 -2.5692
 6743TIP3    H241721   1.527   6.427  11.741  0.2160 -1.8030  0.3826
 6744TIP3   OH241722   0.247   3.000  13.022 -0.1189  0.3444 -0.1858
 6744TIP3    H141723   0.198   3.077  12.993 -1.5006 -0.5918 -0.3739
 6744TIP3    H241724   0.203   2.927  12.980  1.1899 -0.5629 -0.0014
 6745TIP3   OH241725   5.944   3.265   2.453  0.7265  0.4564 -0.0919
 6745TIP3    H141726   5.966   3.211   2.529  1.4106  0.7601 -0.0756
 6745TIP3    H241727   5.918   3.202   2.386  1.3949  0.1095 -0.0280
 6746TIP3   OH241728   0.755   2.188   2.562 -0.2342  0.1511  0.0867
 6746TIP3    H141729   0.676   2.215   2.516  0.4954  2.2280  0.0319
 6746TIP3    H241730   0.820   2.174   2.493 -0.2829 -0.6927  0.2020
 6747TIP3   OH241731   3.249   2.218   2.468 -0.3289  0.1974  0.8990
 6747TIP3    H141732   3.226   2.310   2.482 -0.7421  0.2917 -0.3103
 6747TIP3    H241733   3.324   2.221   2.409 -0.3090 -0.2429  0.9008
 6748TIP3   OH241734   4.363   0.530  16.737  0.0318 -0.4100 -0.3138
 6748TIP3    H141735   4.378   0.452  16.790  0.8316 -0.3090 -0.3926
 6748TIP3    H241736   4.429   0.526  16.668 -1.5762 -1.0282 -1.8719
 6749TIP3   OH241737   0.146   3.064  10.678 -0.2366 -0.2542 -0.0555
 6749TIP3    H141738   0.116   3.137  10.624  2.4469  0.9566 -0.0410
 6749TIP3    H241739   0.239   3.082  10.692  0.1397 -2.9110  1.2230
 6750TIP3   OH241740   1.510   2.705   4.972 -0.0850  0.6661  0.5327
 6750TIP3    H141741   1.575   2.694   5.042  0.3196  1.6959  0.3383
 6750TIP3    H241742   1.453   2.775   5.004 -1.2722 -0.4196  0.8203
 6751TIP3   OH241743   4.882   5.194   4.598 -0.2476  0.0655 -0.0580
 6751TIP3    H141744   4.919   5.282   4.595 -0.8987  0.3132 -2.2090
 6751TIP3    H241745   4.940   5.141   4.543 -0.4158 -0.6131  0.4051
 6752TIP3   OH241746   0.905   5.554  13.566  0.4664  0.0686 -0.3211
 6752TIP3    H141747   0.821   5.509  13.579  0.5922  0.0948  0.5927
 6752TIP3    H241748   0.886   5.620  13.500 -0.3491  0.3824  0.2130
 6753TIP3   OH241749   4.496   2.410   5.852 -0.3045  0.5837 -0.2905
 6753TIP3    H141750   4.574   2.463   5.834 -1.0838  1.4557 -1.1569
 6753TIP3    H241751   4.439   2.425   5.776 -0.0499 -2.4201 -1.1232
 6754TIP3   OH241752   0.322   6.237  14.359 -0.1813 -0.3499  0.6003
 6754TIP3    H141753   0.245   6.257  14.306  0.1073 -0.9169 -0.0376
 6754TIP3    H241754   0.394   6.279  14.314  0.1146 -1.1038  0.3604
 6755TIP3   OH241755   2.138   0.331   2.198 -0.4642  0.0427  0.3986
 6755TIP3    H141756   2.164   0.415   2.235 -0.8713 -0.1383  1.0872
 6755TIP3    H241757   2.180   0.265   2.254  1.4799 -0.2215 -1.2794
 6756TIP3   OH241758   1.788   3.132  13.163  0.5278 -0.2205  0.0318
 6756TIP3    H141759   1.785   3.037  13.153 -0.5570 -0.1539 -0.3720
 6756TIP3    H241760   1.746   3.148  13.248  0.3964 -0.0738 -0.0620
 6757TIP3   OH241761   2.902   2.125   0.984 -0.7176  0.2549  0.3610
 6757TIP3    H141762   2.851   2.043   0.978  0.1643 -0.3155  0.6085
 6757TIP3    H241763   2.897   2.161   0.895 -1.0528 -0.0975  0.2288
 6758TIP3   OH241764   2.563   2.124  15.303 -0.2240  0.4277 -0.5601
 6758TIP3    H141765   2.638   2.065  15.316  0.4151  1.9175  3.1353
 6758TIP3    H241766   2.599   2.197  15.252  0.3931  0.2741 -0.3473
 6759TIP3   OH241767   3.614   4.364   5.817  0.0774 -0.6764 -0.3680
 6759TIP3    H141768   3.577   4.400   5.736  0.8535  1.4722  0.2065
 6759TIP3    H241769   3.539   4.353   5.875 -0.2012 -0.1649 -0.6270
 6760TIP3   OH241770   6.395   1.163   3.560 -0.1464 -0.2762 -0.1677
 6760TIP3    H141771   6.479   1.209   3.556 -0.5985  0.5042 -0.8437
 6760TIP3    H241772   6.415   1.079   3.601  0.5964  0.7448  1.6121
 6761TIP3   OH241773   2.044   4.290  11.975  0.2324 -0.2033  0.7079
 6761TIP3    H141774   2.065   4.301  11.882 -1.2046  1.0780  0.5212
 6761TIP3    H241775   2.123   4.251  12.012  1.3999  0.6781 -0.7609
 6762TIP3   OH241776   0.330   5.805   5.878  0.2757  0.4952  0.2479
 6762TIP3    H141777   0.298   5.842   5.961  1.3592  0.2971  0.7583
 6762TIP3    H241778   0.400   5.745   5.904 -0.0709 -0.3452 -0.7376
 6763TIP3   OH241779   1.667   5.502  12.070 -0.2935  0.2041 -0.3769
 6763TIP3    H141780   1.727   5.528  12.000 -2.0598 -1.0177 -2.4001
 6763TIP3    H241781   1.601   5.570  12.073 -0.0389  0.4232  0.3409
 6764TIP3   OH241782   2.506   1.585   4.661  0.1459 -0.0083  0.1917
 6764TIP3    H141783   2.539   1.649   4.599 -2.2137 -0.1547 -1.2914
 6764TIP3    H241784   2.483   1.636   4.739  1.3336  0.4457  0.2531
 6765TIP3   OH241785   3.995   2.576  13.441 -0.2791 -0.0665  0.0198
 6765TIP3    H141786   3.985   2.571  13.536 -0.7960 -1.6524 -0.1071
 6765TIP3    H241787   4.041   2.495  13.418 -1.0142 -0.1476 -1.1881
 6766TIP3   OH241788   2.717   6.213   5.384  0.2032  0.1556  0.0741
 6766TIP3    H141789   2.761   6.153   5.324 -0.6997 -0.7541  0.2960
 6766TIP3    H241790   2.656   6.157   5.433  0.5557  0.9605  1.4696
 6767TIP3   OH241791   3.531   5.383   3.951 -0.5304 -0.1218 -0.3291
 6767TIP3    H141792   3.619   5.402   3.920  0.3573 -0.0304  2.1205
 6767TIP3    H241793   3.473   5.432   3.893  1.1845  2.1787 -0.1440
 6768TIP3   OH241794   0.215   4.128   1.009 -0.0195 -0.2105  0.0371
 6768TIP3    H141795   0.241   4.066   0.941 -1.1729  0.3984 -0.9786
 6768TIP3    H241796   0.154   4.078   1.064 -0.0201 -0.3455 -0.0839
 6769TIP3   OH241797   3.565   3.149  11.645  0.2801 -0.3648 -0.1418
 6769TIP3    H141798   3.649   3.158  11.600  0.4532  0.6421  0.3596
 6769TIP3    H241799   3.528   3.067  11.611  0.1385  0.6528 -2.5592
 6770TIP3   OH241800   1.293   0.100  12.509 -0.1857  0.3630  0.1051
 6770TIP3    H141801   1.248   0.119  12.427 -0.4857 -1.1260 -0.0761
 6770TIP3    H241802   1.257   0.164  12.571 -1.9581 -0.2621 -0.2479
 6771TIP3   OH241803   4.764   1.413   1.597 -0.3341  0.3065 -0.5260
 6771TIP3    H141804   4.680   1.384   1.561  0.4621 -0.8448 -1.5041
 6771TIP3    H241805   4.823   1.339   1.582  1.4262  1.9570 -1.9554
 6772TIP3   OH241806   5.333   2.648  11.558  0.4435 -0.6141 -0.1073
 6772TIP3    H141807   5.357   2.711  11.490 -0.1322 -0.0496  0.1986
 6772TIP3    H241808   5.333   2.700  11.639  0.5754 -1.1530  0.2430
 6773TIP3   OH241809   1.463   3.938  13.637  0.2626  0.9104  0.0351
 6773TIP3    H141810   1.438   4.019  13.593  1.6829  1.6232  0.4669
 6773TIP3    H241811   1.433   3.950  13.727 -2.2988 -0.3820 -0.6237
 6774TIP3   OH241812   0.413   1.378  16.609  0.2717 -0.3271  0.1705
 6774TIP3    H141813   0.372   1.296  16.637  0.6559 -1.1087 -1.5004
 6774TIP3    H241814   0.505   1.355  16.597  1.0222  1.1297  2.7629
 6775TIP3   OH241815   0.022   1.255   0.858 -0.3771  0.1671 -0.0381
 6775TIP3    H141816  -0.035   1.297   0.793  1.9884  1.2807 -1.4763
 6775TIP3    H241817   0.065   1.328   0.903  0.1448 -0.6463  0.7900
 6776TIP3   OH241818   6.597   3.704   3.296  0.6401  0.4448  0.1285
 6776TIP3    H141819   6.545   3.725   3.374  1.8705  1.5596  0.6654
 6776TIP3    H241820   6.578   3.775   3.235  0.4454  0.0975 -0.2163
 6777TIP3   OH241821   6.484   1.864   0.725  0.5577 -0.0148  0.8340
 6777TIP3    H141822   6.430   1.792   0.758  0.0941  0.8153  1.9179
 6777TIP3    H241823   6.569   1.824   0.708  0.1909 -0.9074  1.0450
 6778TIP3   OH241824   1.963   6.450   4.441  0.2253  0.2225 -0.3743
 6778TIP3    H141825   2.045   6.495   4.424 -1.0645  2.2657 -1.4674
 6778TIP3    H241826   1.942   6.405   4.360 -0.0703  0.2537 -0.3168
 6779TIP3   OH241827   0.017   5.246  15.251  0.7738 -0.3438 -0.0681
 6779TIP3    H141828   0.022   5.165  15.200  0.2560 -2.1931  2.7222
 6779TIP3    H241829   0.085   5.237  15.317  0.2861  1.2260  0.6648
 6780TIP3   OH241830   4.740   5.038  16.854 -0.2081  0.5615  0.4374
 6780TIP3    H141831   4.810   5.049  16.918 -1.7346  1.7187  1.9964
 6780TIP3    H241832   4.755   5.107  16.789 -0.1017  1.0645  0.9836
 6781TIP3   OH241833   6.498   1.541   0.329 -0.1458 -0.8252  0.2593
 6781TIP3    H141834   6.477   1.506   0.415 -0.2951 -1.9472 -0.2313
 6781TIP3    H241835   6.588   1.515   0.313 -0.2330 -0.9278 -0.0716
 6782TIP3   OH241836   0.604   0.462   3.531 -0.0201 -0.8593 -0.0721
 6782TIP3    H141837   0.670   0.531   3.520 -2.0319  1.2312  0.5197
 6782TIP3    H241838   0.593   0.426   3.443 -1.9543  2.4831 -1.3014
 6783TIP3   OH241839   5.811   0.357  14.135 -0.5128  0.0220  0.3743
 6783TIP3    H141840   5.845   0.277  14.175 -0.3850 -0.9896 -1.6732
 6783TIP3    H241841   5.735   0.328  14.084  0.6837  0.8337 -1.9686
 6784TIP3   OH241842   0.899   1.901   6.515  0.8537  0.0770 -0.3660
 6784TIP3    H141843   0.810   1.931   6.532  0.6913 -0.2111 -0.6946
 6784TIP3    H241844   0.940   1.973   6.466  0.5839 -0.0767 -0.8216
 6785TIP3   OH241845   2.259   3.716   2.887  0.8851  0.6819  0.0282
 6785TIP3    H141846   2.240   3.809   2.900 -0.3169  0.7170 -1.8634
 6785TIP3    H241847   2.236   3.675   2.970 -0.0969  1.8616  0.3550
 6786TIP3   OH241848   1.133   1.536  15.499  0.3270 -0.8333 -0.3075
 6786TIP3    H141849   1.090   1.518  15.415 -0.9385  0.8660 -0.0590
 6786TIP3    H241850   1.060   1.540  15.562  1.0406  0.2922  0.4490
 6787TIP3   OH241851   3.967   0.622   2.127  0.1938  0.1659 -0.5792
 6787TIP3    H141852   3.918   0.703   2.111 -1.0852  0.1786  2.9723
 6787TIP3    H241853   4.013   0.638   2.209  3.2810 -1.2635 -1.9346
 6788TIP3   OH241854   0.206   4.222  16.551 -0.1028 -0.0934  0.3808
 6788TIP3    H141855   0.286   4.258  16.513 -0.5405 -0.8643 -1.3246
 6788TIP3    H241856   0.232   4.189  16.637  1.4805 -0.5970 -0.2764
 6789TIP3   OH241857   3.040   3.387  14.551 -0.1915  0.0425  0.8789
 6789TIP3    H141858   3.070   3.448  14.618 -1.4012  0.4588  1.0680
 6789TIP3    H241859   3.078   3.420  14.470 -1.1870  1.3417  0.9081
 6790TIP3   OH241860   5.168   1.978   2.705 -0.1970  0.0594 -0.0449
 6790TIP3    H141861   5.244   2.009   2.657 -1.0862  2.6086  0.1341
 6790TIP3    H241862   5.100   1.968   2.639  0.1425 -1.8272 -0.1427
 6791TIP3   OH241863   0.653   4.536  15.821 -0.0501 -0.6046  0.0284
 6791TIP3    H141864   0.725   4.591  15.791  1.2376 -1.2581  1.8305
 6791TIP3    H241865   0.664   4.453  15.774  0.0316 -0.5130 -0.1140
 6792TIP3   OH241866   5.808   4.960  13.784  0.2196  0.7503  0.2027
 6792TIP3    H141867   5.887   5.012  13.775  0.4777  0.2077 -0.6982
 6792TIP3    H241868   5.771   4.987  13.868  0.7814  1.7859  0.1215
 6793TIP3   OH241869   5.573   0.420   5.771 -0.6940  0.5883 -0.0900
 6793TIP3    H141870   5.553   0.503   5.728  2.2049  0.4439 -1.8699
 6793TIP3    H241871   5.523   0.354   5.723  0.4671  0.7733 -1.5761
 6794TIP3   OH241872   5.015   6.328   4.411 -0.6117 -0.3515  0.2867
 6794TIP3    H141873   5.024   6.271   4.487 -0.1534 -0.3548  0.2340
 6794TIP3    H241874   4.923   6.353   4.410 -0.8834 -1.3209  0.1445
 6795TIP3   OH241875   4.736   4.982   1.347  0.6620 -0.1019 -0.1960
 6795TIP3    H141876   4.793   4.965   1.272  2.5556  0.5346  1.0602
 6795TIP3    H241877   4.766   5.066   1.382  1.5027 -1.5501  2.7471
 6796TIP3   OH241878   0.133   0.076   3.713  0.1305  0.4045 -0.3195
 6796TIP3    H141879   0.145  -0.019   3.724 -0.4752  0.1051 -2.0168
 6796TIP3    H241880   0.053   0.096   3.761 -0.5987 -0.2434 -1.2384
 6797TIP3   OH241881   6.690   2.007  17.129 -0.0995  0.0485 -0.4491
 6797TIP3    H141882   6.690   1.960  17.212  0.2107  1.7107  0.5254
 6797TIP3    H241883   6.754   1.961  17.075  0.2989 -0.5570  0.5273
 6798TIP3   OH241884   1.757   5.667   4.566 -0.4156  0.1271  0.3916
 6798TIP3    H141885   1.709   5.703   4.641 -2.2815  0.4625 -0.9170
 6798TIP3    H241886   1.734   5.726   4.494  2.5539  0.7031 -0.1400
 6799TIP3   OH241887   6.089   5.059   0.657 -0.0228 -0.6328 -0.0115
 6799TIP3    H141888   6.011   5.035   0.707  1.2955  1.2836  3.1357
 6799TIP3    H241889   6.058   5.123   0.593 -1.6042 -2.4765 -1.1365
 6800TIP3   OH241890   6.119   0.370  14.652 -0.6143  0.8655 -0.2223
 6800TIP3    H141891   6.132   0.312  14.726  2.1436  0.5236 -0.9147
 6800TIP3    H241892   6.179   0.443  14.668  1.0420  0.1428 -2.7107
 6801TIP3   OH241893   6.783   1.254   3.372 -0.0384 -0.0172  0.2425
 6801TIP3    H141894   6.709   1.288   3.423  0.8425  0.8394  0.9659
 6801TIP3    H241895   6.810   1.326   3.316 -0.5942 -0.7602 -1.0031
 6802TIP3   OH241896   5.334   5.329  13.504  0.1121 -0.2786  0.4887
 6802TIP3    H141897   5.248   5.326  13.464  0.2777  0.2729  0.0911
 6802TIP3    H241898   5.356   5.237  13.522  0.0248 -0.5226 -0.6480
 6803TIP3   OH241899   2.510   5.050  12.451 -0.2139 -0.2441 -0.2267
 6803TIP3    H141900   2.457   4.973  12.468 -1.2662  0.2622 -1.1583
 6803TIP3    H241901   2.452   5.124  12.469 -0.3438  0.3116 -2.7033
 6804TIP3   OH241902   2.847   0.074   3.530  0.6064  0.6395  0.5411
 6804TIP3    H141903   2.941   0.073   3.550  1.1312  1.3537 -1.6457
 6804TIP3    H241904   2.807   0.121   3.603  1.9107  0.0572  1.6561
 6805TIP3   OH241905   4.622   4.186   3.108  0.3651  0.0585  0.1915
 6805TIP3    H141906   4.547   4.196   3.050  0.6186 -1.3632 -0.4091
 6805TIP3    H241907   4.586   4.202   3.196 -0.3773  0.5591 -0.1955
 6806TIP3   OH241908   1.586   3.729   4.536 -0.8851  0.6834 -0.1096
 6806TIP3    H141909   1.519   3.739   4.603  0.1649  0.7122  0.9652
 6806TIP3    H241910   1.663   3.773   4.572  0.2864 -1.0068 -0.4675
 6807TIP3   OH241911   3.912   3.837  10.533 -0.0813  0.1543  0.0060
 6807TIP3    H141912   3.979   3.866  10.595 -1.3546 -1.0892  2.0475
 6807TIP3    H241913   3.831   3.877  10.565 -0.9107 -1.2607 -0.2805
 6808TIP3   OH241914   2.783   4.459   0.066  0.2653  0.1480 -0.1025
 6808TIP3    H141915   2.876   4.434   0.063  0.0482 -0.6144 -0.6304
 6808TIP3    H241916   2.763   4.467   0.159  0.2472 -2.0486  0.1026
 6809TIP3   OH241917   6.726   0.307  15.277  0.2238 -0.0225  0.6677
 6809TIP3    H141918   6.632   0.296  15.259 -0.1789  0.9700  2.0277
 6809TIP3    H241919   6.751   0.226  15.320 -0.2122  0.0302  1.0312
 6810TIP3   OH241920   2.753   4.053  14.135  0.1245  0.4439  0.4009
 6810TIP3    H141921   2.809   3.975  14.133 -0.2802  0.0896  2.0400
 6810TIP3    H241922   2.762   4.091  14.047  0.2901 -1.4581 -0.4289
 6811TIP3   OH241923   5.284   3.416   0.164  0.2406  0.2063  0.4651
 6811TIP3    H141924   5.369   3.402   0.206  1.0223  0.1273 -1.0804
 6811TIP3    H241925   5.299   3.489   0.105 -1.2735  1.3787  1.5119
 6812TIP3   OH241926   5.615   5.322   0.239  0.1531 -0.1644  0.3060
 6812TIP3    H141927   5.531   5.290   0.207  0.8468  0.2011 -1.9475
 6812TIP3    H241928   5.594   5.403   0.285 -0.8445 -0.6125  0.6649
 6813TIP3   OH241929   1.722   3.887   5.408 -0.0445  0.4467  1.0403
 6813TIP3    H141930   1.794   3.950   5.409  0.5894 -0.2781  1.8787
 6813TIP3    H241931   1.650   3.932   5.451  0.1477  0.8951  0.8960
 6814TIP3   OH241932   2.005   1.731   3.448 -0.5556  0.3264  0.5381
 6814TIP3    H141933   1.984   1.824   3.461  6.1858  1.8102  2.5680
 6814TIP3    H241934   2.035   1.726   3.357 -0.3440  0.2595  0.6115
 6815TIP3   OH241935   3.679   0.671  16.126 -0.0818 -0.2180 -0.4515
 6815TIP3    H141936   3.753   0.613  16.109 -0.6846 -1.4597  0.9671
 6815TIP3    H241937   3.602   0.618  16.104 -0.6304  0.1409  0.5847
 6816TIP3   OH241938   5.740   1.394   1.795 -0.0092 -0.3651 -0.4860
 6816TIP3    H141939   5.668   1.455   1.780 -0.1671 -0.1735  0.9359
 6816TIP3    H241940   5.807   1.447   1.839 -0.0524 -1.1501  0.5557
 6817TIP3   OH241941   3.331   1.943  11.279 -0.2486 -0.0730 -0.2534
 6817TIP3    H141942   3.357   1.952  11.187  0.0611 -0.5209 -0.2111
 6817TIP3    H241943   3.318   2.033  11.309 -1.1953  0.0499 -0.9795
 6818TIP3   OH241944   3.182   3.087   4.020  0.5521 -0.0842  0.5349
 6818TIP3    H141945   3.187   3.037   4.102  1.8863 -0.7406  0.0707
 6818TIP3    H241946   3.104   3.054   3.976  0.9610 -1.1678  0.6149
 6819TIP3   OH241947   2.688   5.239  14.777 -0.0781 -0.0725 -0.6210
 6819TIP3    H141948   2.685   5.186  14.857  0.6775  1.2622  0.3086
 6819TIP3    H241949   2.597   5.244  14.748 -0.2751 -1.1060 -0.2111
 6820TIP3   OH241950   4.071   3.886   2.523  0.2266 -0.1570 -0.2126
 6820TIP3    H141951   3.975   3.887   2.518  0.1476  0.3053  1.1686
 6820TIP3    H241952   4.094   3.973   2.553  1.0131 -0.5925  0.4551
 6821TIP3   OH241953   3.364   0.795  11.909 -0.0129  0.5304  0.0964
 6821TIP3    H141954   3.407   0.875  11.878  1.6488 -0.0385  0.9115
 6821TIP3    H241955   3.399   0.780  11.996  0.1721 -1.4330 -0.2795
 6822TIP3   OH241956   3.885   6.064   5.079 -0.4212 -0.5419  0.5672
 6822TIP3    H141957   3.958   6.025   5.128  0.6479  1.6909  0.8412
 6822TIP3    H241958   3.808   6.013   5.105  0.8355 -2.1130  1.2687
 6823TIP3   OH241959   1.743   1.546   0.674  0.1600 -0.4811  0.0392
 6823TIP3    H141960   1.828   1.505   0.689 -0.0601 -1.0332 -0.2302
 6823TIP3    H241961   1.764   1.628   0.628  1.0285  2.2329  4.8843
 6824TIP3   OH241962   4.664   0.415   6.201  0.2512  0.2549 -0.3034
 6824TIP3    H141963   4.639   0.398   6.292  0.8519  1.0011  0.0049
 6824TIP3    H241964   4.734   0.480   6.207 -1.4434  2.2460 -1.4097
 6825TIP3   OH241965   2.796   2.560  13.301 -0.8640 -0.6038  0.1148
 6825TIP3    H141966   2.831   2.643  13.334 -1.0027  0.0078 -1.2194
 6825TIP3    H241967   2.800   2.501  13.376  2.0040 -0.2376  0.3156
 6826TIP3   OH241968   2.693   4.936  15.500  0.3269  0.3903 -0.0374
 6826TIP3    H141969   2.621   4.957  15.441 -0.6299 -2.2429  0.1245
 6826TIP3    H241970   2.658   4.867  15.557  1.3910  2.4899  3.2632
 6827TIP3   OH241971   4.663   3.304   5.107  0.3149 -0.5200 -0.3966
 6827TIP3    H141972   4.674   3.209   5.111 -2.7232 -0.8907  0.7935
 6827TIP3    H241973   4.635   3.327   5.196 -1.6823  1.0859 -1.4317
 6828TIP3   OH241974   5.865   0.551  15.976  0.0348 -0.6928 -0.1410
 6828TIP3    H141975   5.879   0.645  15.971 -1.4705 -0.4048  0.6809
 6828TIP3    H241976   5.770   0.541  15.967  0.3122 -2.2433 -1.7647
 6829TIP3   OH241977   5.102   2.772  11.235 -0.2322 -0.2718 -0.2126
 6829TIP3    H141978   5.166   2.839  11.211  1.8623 -1.3961  1.9714
 6829TIP3    H241979   5.131   2.694  11.188  0.9597 -1.1810  1.9652
 6830TIP3   OH241980   4.970   4.492   0.599 -0.2740 -0.7976  0.8934
 6830TIP3    H141981   4.997   4.447   0.679 -0.5882 -0.2377  1.3203
 6830TIP3    H241982   5.042   4.553   0.580  0.5531 -2.0793 -0.1721
 6831TIP3   OH241983   6.663   5.908   1.043 -0.0771 -0.4869  0.0842
 6831TIP3    H141984   6.695   5.882   1.129  0.2721 -0.2067  0.0381
 6831TIP3    H241985   6.568   5.903   1.050 -0.1005  0.9933  0.9382
 6832TIP3   OH241986   5.352   1.606   6.727 -0.3609  0.3962  0.8116
 6832TIP3    H141987   5.305   1.536   6.682  1.8036 -0.4809 -0.2118
 6832TIP3    H241988   5.342   1.682   6.670  0.1922 -0.0247  0.1413
 6833TIP3   OH241989   6.565   0.630  11.474 -0.7379 -0.1676  0.2289
 6833TIP3    H141990   6.509   0.703  11.448 -1.3111 -1.1003 -1.2306
 6833TIP3    H241991   6.555   0.625  11.569 -0.5396  1.7639  0.3797
 6834TIP3   OH241992   2.366   5.349  13.586 -0.0222  0.5106  0.4285
 6834TIP3    H141993   2.273   5.355  13.608 -0.1477  0.0318  0.0317
 6834TIP3    H241994   2.388   5.257  13.598 -0.1920  0.1398 -1.7970
 6835TIP3   OH241995   6.475   6.312  14.577 -0.0384 -0.1643 -0.1472
 6835TIP3    H141996   6.435   6.399  14.579 -1.3884 -0.7618 -0.7371
 6835TIP3    H241997   6.469   6.281  14.667  1.8406  0.9539  0.3968
 6836TIP3   OH241998   0.576   5.832  16.747 -0.2523  0.1170  0.0235
 6836TIP3    H141999   0.593   5.892  16.674 -2.9298  1.4882  0.4812
 6836TIP3    H242000   0.491   5.793  16.727  0.1463 -1.4043  1.1820
 6837TIP3   OH242001   6.102   4.944  15.598 -0.4213 -0.0408  0.1013
 6837TIP3    H142002   6.117   4.936  15.692 -0.7943  1.1502  0.2752
 6837TIP3    H242003   6.164   4.884  15.558 -0.5181 -0.8348  1.1230
 6838TIP3   OH242004   2.319   4.165  14.118  0.1513 -0.1557  0.0985
 6838TIP3    H142005   2.405   4.187  14.085  0.8590 -1.2798  1.1459
 6838TIP3    H242006   2.276   4.249  14.133  1.0366  0.4032 -0.4884
 6839TIP3   OH242007   6.728   4.489  16.188 -0.1057 -0.2758 -0.4395
 6839TIP3    H142008   6.707   4.466  16.097  1.1469  1.8514 -1.3220
 6839TIP3    H242009   6.694   4.578  16.199 -1.0998 -0.8801  1.4992
 6840TIP3   OH242010   3.515   5.212   1.753  0.4490  0.4948 -0.7365
 6840TIP3    H142011   3.458   5.190   1.679  0.2689  1.9036 -1.0248
 6840TIP3    H242012   3.531   5.305   1.744 -1.6128  1.2276  2.4033
 6841TIP3   OH242013   4.165   3.301  12.950  0.5844 -0.1044 -0.1110
 6841TIP3    H142014   4.095   3.325  12.889  2.2908 -1.7339 -2.8378
 6841TIP3    H242015   4.129   3.228  13.000 -1.4623  2.3524  2.1350
 6842TIP3   OH242016   0.407   4.921   4.307 -0.0431  0.0074 -0.0943
 6842TIP3    H142017   0.360   4.839   4.297  0.8579 -0.5257  0.0213
 6842TIP3    H242018   0.496   4.896   4.332  0.6251  0.9557 -1.4192
 6843TIP3   OH242019   5.737   5.598   0.130  0.4819  0.6290 -0.6404
 6843TIP3    H142020   5.713   5.567   0.043 -0.5365  0.3568 -0.2679
 6843TIP3    H242021   5.818   5.550   0.151 -0.6691 -1.2514 -0.3725
 6844TIP3   OH242022   6.430   4.296   5.747  0.1521 -0.4369 -0.8703
 6844TIP3    H142023   6.387   4.214   5.720  1.3408 -1.2369 -0.3486
 6844TIP3    H242024   6.510   4.268   5.790  0.2912  0.9988 -0.1808
 6845TIP3   OH242025   3.597   2.934  12.613 -0.5754  0.2811  0.0891
 6845TIP3    H142026   3.538   2.925  12.538 -1.4057  0.9272  0.6645
 6845TIP3    H242027   3.563   2.873  12.678  0.7536 -1.0529 -0.4246
 6846TIP3   OH242028   5.780   5.461   4.928  0.1157 -0.0155  0.0630
 6846TIP3    H142029   5.870   5.428   4.932  0.6568  1.0949 -2.0408
 6846TIP3    H242030   5.729   5.388   4.895  0.7571  0.2348 -1.5142
 6847TIP3   OH242031   6.275   4.281   3.213 -0.3743  0.1087  0.9392
 6847TIP3    H142032   6.210   4.295   3.143 -1.2062  0.4341  1.7702
 6847TIP3    H242033   6.228   4.229   3.279  0.2652  0.2184  1.4797
 6848TIP3   OH242034   4.550   5.401  17.020  0.1985  0.1770 -0.2513
 6848TIP3    H142035   4.556   5.443  17.105 -0.5577  0.7689 -0.4798
 6848TIP3    H242036   4.590   5.463  16.959 -0.5240  0.3731 -0.5253
 6849TIP3   OH242037   3.315   6.314   5.511  0.2582  0.2669  0.1437
 6849TIP3    H142038   3.267   6.335   5.591  0.3080 -5.5274  1.9157
 6849TIP3    H242039   3.406   6.335   5.531  0.2928 -1.2973  1.7211
 6850TIP3   OH242040   1.004   0.257  15.629  0.5845 -0.2184 -0.3856
 6850TIP3    H142041   1.058   0.298  15.561 -0.1099  0.3622 -0.6018
 6850TIP3    H242042   1.039   0.290  15.711 -0.7878  1.8900 -0.5973
 6851TIP3   OH242043   6.697   0.653   6.474  0.1443  0.0711  0.4835
 6851TIP3    H142044   6.780   0.611   6.452 -1.0771 -1.3983 -1.4436
 6851TIP3    H242045   6.653   0.591   6.532 -0.3456  0.0909  0.1302
 6852TIP3   OH242046   2.007   1.418  16.954 -0.6226  0.8852  0.3209
 6852TIP3    H142047   1.980   1.444  17.042 -0.4831  0.8568  0.3705
 6852TIP3    H242048   2.083   1.473  16.934 -0.0348  0.1840  0.6116
 6853TIP3   OH242049   1.115   2.649  15.530  0.1509  0.2652 -0.4078
 6853TIP3    H142050   1.183   2.678  15.469  0.5249 -2.2110 -1.2501
 6853TIP3    H242051   1.077   2.572  15.488 -2.2827  0.8428  0.6837
 6854TIP3   OH242052   2.299   2.613  11.515 -0.6249 -0.4209  0.4166
 6854TIP3    H142053   2.271   2.535  11.467  1.3031 -0.8967  0.0190
 6854TIP3    H242054   2.316   2.582  11.604  0.9714 -0.6474  0.0442
 6855TIP3   OH242055   2.463   6.074  16.768  0.2004  0.3080 -0.1956
 6855TIP3    H142056   2.448   6.121  16.686  1.8871  1.3474  0.0734
 6855TIP3    H242057   2.457   5.981  16.743 -3.9768  0.5665 -0.5676
 6856TIP3   OH242058   2.760   5.416  12.847  0.1080 -0.1867 -0.1558
 6856TIP3    H142059   2.845   5.399  12.807  1.1514  2.1191  0.9245
 6856TIP3    H242060   2.719   5.481  12.790  0.2665  0.7477  0.7616
 6857TIP3   OH242061   3.522   6.182  12.527 -0.1123 -0.1932  0.2009
 6857TIP3    H142062   3.466   6.243  12.575 -1.0334 -0.0172 -1.0809
 6857TIP3    H242063   3.555   6.122  12.594 -1.0237  0.3183  1.1192
 6858TIP3   OH242064   6.514   1.924   4.726 -0.0190  0.2494  0.6285
 6858TIP3    H142065   6.591   1.906   4.781 -0.5892 -2.6972  0.5445
 6858TIP3    H242066   6.465   1.990   4.775  0.7345 -0.5182  2.4860
 6859TIP3   OH242067   5.673   2.093  11.211 -0.1696  0.4211  0.3243
 6859TIP3    H142068   5.708   2.030  11.147 -1.5366 -0.1529  0.1132
 6859TIP3    H242069   5.682   2.049  11.295  2.1953  1.4237  0.6318
 6860TIP3   OH242070   0.855   2.292   3.390  0.4298 -0.2517 -0.3224
 6860TIP3    H142071   0.824   2.256   3.307 -0.4137  1.6700 -0.8716
 6860TIP3    H242072   0.914   2.363   3.365  0.5391  0.0388  0.7269
 6861TIP3   OH242073   6.127   2.980   0.864  0.0345 -0.4423  1.1604
 6861TIP3    H142074   6.175   3.026   0.795 -0.8124 -0.7354  0.3658
 6861TIP3    H242075   6.176   2.899   0.878  0.1780 -0.4094  0.8565
 6862TIP3   OH242076   2.876   3.677   4.702  0.3337  0.2186 -0.2869
 6862TIP3    H142077   2.804   3.639   4.651  0.3749 -0.3439  0.0664
 6862TIP3    H242078   2.924   3.601   4.735 -0.2992  0.5482  1.4719
 6863TIP3   OH242079   3.682   3.029  10.903  0.1101  0.1991 -0.1678
 6863TIP3    H142080   3.710   2.955  10.849 -1.7163  0.3571 -1.3688
 6863TIP3    H242081   3.699   3.106  10.849  2.6977  0.7542  1.3726
 6864TIP3   OH242082   2.573   4.136  13.315 -0.0729  0.3423 -0.3106
 6864TIP3    H142083   2.665   4.112  13.314 -0.2458 -0.3847  0.6689
 6864TIP3    H242084   2.565   4.198  13.388 -0.4052  0.2058 -0.2294
 6865TIP3   OH242085   0.313   5.840   1.977 -0.3648  0.3837  0.1847
 6865TIP3    H142086   0.279   5.927   1.955 -1.1069 -0.1879 -0.9411
 6865TIP3    H242087   0.406   5.855   1.996  0.1277  1.0264 -2.5551
 6866TIP3   OH242088   2.950   3.451  13.696 -0.6106 -0.1750 -0.1288
 6866TIP3    H142089   2.983   3.374  13.649 -1.6841 -0.9476  0.3357
 6866TIP3    H242090   2.988   3.526  13.652  0.5806 -0.9970 -0.5011
 6867TIP3   OH242091   4.714   4.510  11.322  0.1189  0.1469 -0.3681
 6867TIP3    H142092   4.756   4.481  11.241  0.5629 -0.0968 -0.0577
 6867TIP3    H242093   4.785   4.512  11.386 -0.5961 -1.7339  0.5417
 6868TIP3   OH242094   4.208   5.091  16.135 -0.6922 -0.4468  0.1714
 6868TIP3    H142095   4.205   5.133  16.049 -0.4162  0.6319  0.6728
 6868TIP3    H242096   4.116   5.083  16.160 -0.7164  1.1158  0.6502
 6869TIP3   OH242097   4.291   0.839   0.373 -0.0332 -0.1751 -0.4308
 6869TIP3    H142098   4.353   0.781   0.418 -0.6495  0.3642  1.1641
 6869TIP3    H242099   4.229   0.779   0.331 -0.6085 -0.7105  1.1191
 6870TIP3   OH242100   2.890   5.318  14.437  0.2479  0.1034 -0.1596
 6870TIP3    H142101   2.963   5.263  14.466 -0.3196  0.2478  1.6125
 6870TIP3    H242102   2.825   5.311  14.507 -1.0323  0.7626 -1.2527
 6871TIP3   OH242103   6.365   4.966  12.500 -0.4071 -0.2948 -0.5651
 6871TIP3    H142104   6.348   4.873  12.483 -2.0584  0.3347 -2.5410
 6871TIP3    H242105   6.307   4.987  12.574  1.1336 -1.1777  0.9432
 6872TIP3   OH242106   0.292   1.858   2.463  0.4119 -0.7295 -0.0345
 6872TIP3    H142107   0.369   1.827   2.416  0.6723 -0.8398  0.4639
 6872TIP3    H242108   0.327   1.906   2.538 -0.0017 -0.6937  0.1381
 6873TIP3   OH242109   6.396   3.396  15.963  0.3351  0.3674  0.0375
 6873TIP3    H142110   6.367   3.482  15.994 -0.4786  0.0219  0.2701
 6873TIP3    H242111   6.482   3.411  15.925  0.2404  1.2677  0.1727
 6874TIP3   OH242112   0.426   3.817   3.262 -0.2557  0.2438 -0.1720
 6874TIP3    H142113   0.416   3.811   3.168 -1.3701 -0.8703  0.0089
 6874TIP3    H242114   0.521   3.811   3.277 -0.1645 -0.8348 -1.1356
 6875TIP3   OH242115   6.396   5.569  11.534 -0.4641 -0.4507  0.2191
 6875TIP3    H142116   6.487   5.572  11.504 -0.6454  1.6070 -0.2525
 6875TIP3    H242117   6.383   5.655  11.575 -2.4552 -0.4102 -0.4780
 6876TIP3   OH242118   3.492   0.882  13.515 -0.6113  0.2165 -0.3750
 6876TIP3    H142119   3.520   0.823  13.446  1.4610  0.3960  0.2583
 6876TIP3    H242120   3.399   0.896  13.500 -1.0053 -2.7144 -0.8885
 6877TIP3   OH242121   2.858   1.812   2.927  0.1400 -0.1094 -0.2328
 6877TIP3    H142122   2.801   1.801   3.003 -1.3613  1.2399 -1.1304
 6877TIP3    H242123   2.942   1.842   2.963  0.0595 -1.4040  1.0375
 6878TIP3   OH242124   1.631   4.547  15.726  0.3180  0.0150 -0.3865
 6878TIP3    H142125   1.623   4.561  15.820  0.2550 -0.8423 -0.2558
 6878TIP3    H242126   1.621   4.634  15.687 -0.3190  0.2768  0.3570
 6879TIP3   OH242127   5.403   0.467   0.552  0.2477  0.1555 -0.3005
 6879TIP3    H142128   5.318   0.446   0.512  0.8778 -0.4013 -1.3788
 6879TIP3    H242129   5.409   0.562   0.548 -0.2261  0.1794 -0.4382
 6880TIP3   OH242130   4.731   1.370  12.121  0.1258 -0.0231  0.1877
 6880TIP3    H142131   4.826   1.368  12.120  0.1124 -1.8218  1.1685
 6880TIP3    H242132   4.707   1.386  12.029  1.3451 -2.2621 -0.5619
 6881TIP3   OH242133   3.108   5.142   6.504  0.3159 -0.2932  1.3406
 6881TIP3    H142134   3.028   5.089   6.500  0.2998 -0.3092  1.8987
 6881TIP3    H242135   3.098   5.195   6.583  0.9420 -0.4302  1.5139
 6882TIP3   OH242136   0.673   2.087  14.300 -0.6644 -0.0050 -0.1826
 6882TIP3    H142137   0.705   1.999  14.280  0.6131  0.3722  0.1797
 6882TIP3    H242138   0.721   2.144  14.241  1.1776  0.8303  2.0505
 6883TIP3   OH242139   5.284   1.361   5.028 -0.0412  0.1631  0.2670
 6883TIP3    H142140   5.234   1.343   4.949  0.5168  0.1022 -0.0750
 6883TIP3    H242141   5.230   1.328   5.099 -0.0464 -0.7861 -0.1753
 6884TIP3   OH242142   0.043   2.630  12.784 -0.4645  1.1468  0.5301
 6884TIP3    H142143  -0.029   2.568  12.794 -0.9007  1.6765  0.6947
 6884TIP3    H242144   0.115   2.577  12.751 -0.6890  0.4603  1.1176
 6885TIP3   OH242145   0.902   1.782  16.769  0.1670 -0.1779  0.3706
 6885TIP3    H142146   0.969   1.822  16.825  0.5307  1.1321 -0.9504
 6885TIP3    H242147   0.930   1.802  16.680 -1.2264 -0.8696 -0.2459
 6886TIP3   OH242148   5.203   2.908  16.742  0.3500  0.4737 -0.7675
 6886TIP3    H142149   5.210   2.904  16.837 -0.6175 -0.3112 -0.7141
 6886TIP3    H242150   5.150   2.986  16.724 -0.8637 -0.2785 -0.5609
 6887TIP3   OH242151   1.319   5.672  16.435 -0.2054 -0.4233 -0.2695
 6887TIP3    H142152   1.313   5.640  16.525  0.1075 -0.4699 -0.2651
 6887TIP3    H242153   1.404   5.639  16.404  0.9089  1.8433  0.2858
 6888TIP3   OH242154   0.531   4.090  10.933 -0.4057  0.3275  0.5793
 6888TIP3    H142155   0.522   3.996  10.946  1.2163  0.1548  0.5606
 6888TIP3    H242156   0.461   4.113  10.873 -0.8607 -0.8593  0.6488
 6889TIP3   OH242157   1.758   4.298   1.255  0.5318 -0.2714 -0.5536
 6889TIP3    H142158   1.702   4.239   1.306 -1.0264 -0.0640 -1.9919
 6889TIP3    H242159   1.766   4.376   1.310  2.0960 -1.5489  1.0857
 6890TIP3   OH242160   4.859   2.798  14.983 -0.1172  0.1299 -0.0568
 6890TIP3    H142161   4.770   2.777  15.009 -0.6525  1.9903 -0.3532
 6890TIP3    H242162   4.914   2.745  15.041 -1.3908 -0.7521  0.3666
 6891TIP3   OH242163   1.329   3.408  16.989 -0.5760 -0.3298 -0.7798
 6891TIP3    H142164   1.407   3.438  17.034 -0.2292 -0.0670 -1.5597
 6891TIP3    H242165   1.265   3.478  17.002 -0.6359 -0.4696 -0.2881
 6892TIP3   OH242166   1.336   1.225   0.574 -0.7187 -0.2755  0.4002
 6892TIP3    H142167   1.306   1.246   0.485  2.4716 -1.0353 -0.9314
 6892TIP3    H242168   1.429   1.247   0.573  0.4578 -4.6712  2.0864
 6893TIP3   OH242169   5.666   0.189   5.955 -0.5998  0.3350 -0.0872
 6893TIP3    H142170   5.617   0.196   6.037  1.4769 -0.0271  1.2111
 6893TIP3    H242171   5.605   0.149   5.894 -1.4083 -1.6425  1.9584
 6894TIP3   OH242172   3.020   1.455  14.289 -0.3356 -0.4048  0.3094
 6894TIP3    H142173   3.008   1.382  14.228 -1.2688  0.5428 -0.6554
 6894TIP3    H242174   2.967   1.526  14.253  0.8978  0.8963  1.0022
 6895TIP3   OH242175   0.409   5.895  17.263  0.2148  0.1989  0.3964
 6895TIP3    H142176   0.412   5.978  17.216 -0.5615 -1.5822 -2.9757
 6895TIP3    H242177   0.485   5.846  17.230 -0.4994 -1.2050  0.7886
 6896TIP3   OH242178   2.345   0.064   1.134  0.2027 -0.4805  0.1528
 6896TIP3    H142179   2.429   0.023   1.155  0.6393  0.0134 -0.6191
 6896TIP3    H242180   2.350   0.081   1.040 -1.2991 -1.6849 -0.1591
 6897TIP3   OH242181   1.825   3.996  17.253  0.3070  0.8466  0.4480
 6897TIP3    H142182   1.855   3.997  17.162  2.7296 -0.5787  1.1611
 6897TIP3    H242183   1.906   3.986  17.304 -1.0803  0.8717  2.7156
 6898TIP3   OH242184   6.709   0.154   5.398  0.0634 -0.7021  0.2096
 6898TIP3    H142185   6.648   0.155   5.472 -1.2808 -0.2739 -0.8957
 6898TIP3    H242186   6.751   0.068   5.403 -0.4558 -0.9130  1.1163
 6899TIP3   OH242187   3.043   2.675   3.954  0.0129  0.2160  0.3266
 6899TIP3    H142188   3.114   2.708   4.008  0.2840  0.7883 -0.3828
 6899TIP3    H242189   3.049   2.724   3.872  0.1028 -1.1933 -0.5396
 6900TIP3   OH242190   6.697   3.401   5.233  0.6058  0.2267 -0.2847
 6900TIP3    H142191   6.788   3.412   5.262  1.3394 -1.5523 -1.8137
 6900TIP3    H242192   6.697   3.317   5.188 -2.1737 -0.5666  1.0937
 6901TIP3   OH242193   3.721   5.424   1.201  0.1725  0.4899 -0.3377
 6901TIP3    H142194   3.699   5.443   1.110 -1.0448  0.1575 -0.1173
 6901TIP3    H242195   3.638   5.400   1.242  0.6161  1.2073  1.0100
 6902TIP3   OH242196   3.841   0.933  13.239 -0.3913 -0.3451  0.0658
 6902TIP3    H142197   3.781   0.978  13.298 -0.6807 -0.5869 -0.0439
 6902TIP3    H242198   3.901   1.001  13.209 -0.3086 -0.2018  0.5539
 6903TIP3   OH242199   4.876   0.281   5.680 -0.1728  0.4936 -0.3107
 6903TIP3    H142200   4.852   0.188   5.683 -2.8860  1.1479 -0.5402
 6903TIP3    H242201   4.909   0.300   5.768  0.6553 -0.7452 -0.3480
 6904TIP3   OH242202   5.766   0.449  15.043  0.0321 -0.6688 -0.1832
 6904TIP3    H142203   5.825   0.374  15.045 -0.0858 -0.7524  1.4798
 6904TIP3    H242204   5.723   0.447  15.129 -2.1313 -0.4152 -1.2137
 6905TIP3   OH242205   1.355   6.412  16.298 -0.5554  0.3046  0.6511
 6905TIP3    H142206   1.374   6.318  16.310  0.0663  0.3866  0.3392
 6905TIP3    H242207   1.437   6.455  16.323 -0.5117  0.7068 -0.1946
 6906TIP3   OH242208   0.576   5.783   6.481 -0.1320 -0.0110  0.1513
 6906TIP3    H142209   0.624   5.824   6.409 -0.5955  1.0307  0.4329
 6906TIP3    H242210   0.500   5.743   6.440 -0.8301  1.2824  0.1568
 6907TIP3   OH242211   0.149   1.467   1.006  0.0532  0.0183 -0.3680
 6907TIP3    H142212   0.122   1.549   0.965 -1.5610 -1.0338 -1.5056
 6907TIP3    H242213   0.090   1.458   1.081  1.7585  1.0203  1.1013
 6908TIP3   OH242214   2.392   6.186  16.498 -0.0225  0.0614  0.4652
 6908TIP3    H142215   2.414   6.122  16.430 -1.4533  1.3150 -1.2192
 6908TIP3    H242216   2.312   6.151  16.539 -2.5002  2.1256 -2.4012
 6909TIP3   OH242217   4.232   6.722  16.458  0.5912 -0.3563  0.1081
 6909TIP3    H142218   4.183   6.639  16.459  0.1653 -0.1244 -1.0407
 6909TIP3    H242219   4.166   6.789  16.477  1.0745 -0.3321  1.7958
 6910TIP3   OH242220   1.133   4.640  13.873  0.0927  0.0505 -0.0336
 6910TIP3    H142221   1.185   4.560  13.869 -0.1736 -0.1408  0.3081
 6910TIP3    H242222   1.111   4.659  13.782  0.2688 -0.1900 -0.1277
 6911TIP3   OH242223   1.236   6.503  11.771 -0.4873  0.3917 -0.0150
 6911TIP3    H142224   1.203   6.543  11.690 -2.0444  0.8304  0.8048
 6911TIP3    H242225   1.299   6.565  11.805  3.2825 -1.5858 -2.9193
 6912TIP3   OH242226   2.870   4.727  11.918  0.0771 -0.1392 -0.6045
 6912TIP3    H142227   2.935   4.745  11.986 -2.0175 -0.3085  1.5154
 6912TIP3    H242228   2.904   4.651  11.872  2.6371  1.3389 -1.2351
 6913TIP3   OH242229   1.548   5.700   0.641  0.1366  0.0260 -0.1041
 6913TIP3    H142230   1.518   5.745   0.720  1.8890  1.4752 -0.2457
 6913TIP3    H242231   1.641   5.685   0.656  0.2735 -0.5477 -1.5033
 6914TIP3   OH242232   2.284   1.636  14.271 -0.1372 -0.2929 -0.2634
 6914TIP3    H142233   2.207   1.675  14.229  0.2124  1.1531  0.4165
 6914TIP3    H242234   2.354   1.647  14.206 -0.2546 -0.6749 -0.4586
 6915TIP3   OH242235   4.410   1.950   4.644  0.2290 -0.0215 -0.3797
 6915TIP3    H142236   4.455   1.883   4.594 -1.3613 -0.6937 -0.9499
 6915TIP3    H242237   4.342   1.982   4.585 -0.2684  0.7081  0.5788
 6916TIP3   OH242238   0.656   3.883   1.368 -0.4068 -0.2417  0.1804
 6916TIP3    H142239   0.576   3.835   1.346  0.0714  0.5318 -3.4688
 6916TIP3    H242240   0.631   3.975   1.362  0.1287  0.0159  1.6535
 6917TIP3   OH242241   6.596   5.644   3.787  0.1707  0.2639 -0.0215
 6917TIP3    H142242   6.595   5.734   3.821  1.7218  1.0053 -1.8204
 6917TIP3    H242243   6.504   5.625   3.767 -0.3758  0.8704  1.8018
 6918TIP3   OH242244   6.429   0.160   0.400 -0.5689  0.1091 -0.4269
 6918TIP3    H142245   6.473   0.224   0.344  0.0627 -0.8072 -1.0136
 6918TIP3    H242246   6.478   0.163   0.483 -1.1132  1.0252 -0.1327
 6919TIP3   OH242247   0.638   3.376   4.861 -0.4415 -0.0026 -0.4868
 6919TIP3    H142248   0.563   3.339   4.815 -0.9708 -0.9935  1.1575
 6919TIP3    H242249   0.628   3.471   4.850 -2.5645 -0.0624  0.6573
 6920TIP3   OH242250   0.616   2.931  12.378  0.0930  0.2532 -0.0514
 6920TIP3    H142251   0.711   2.918  12.369  0.0126 -0.3915  0.0096
 6920TIP3    H242252   0.607   2.977  12.462  0.2338 -1.3096  0.8538
 6921TIP3   OH242253   5.526   4.429   2.741 -0.2159  0.1918 -0.4534
 6921TIP3    H142254   5.501   4.507   2.791  0.6464  1.3341 -1.7541
 6921TIP3    H242255   5.509   4.453   2.649  2.1636 -0.3086 -1.0655
 6922TIP3   OH242256   1.738   3.136  11.678 -0.1296 -0.0839  0.0331
 6922TIP3    H142257   1.810   3.085  11.640 -0.6312 -0.5341 -0.3361
 6922TIP3    H242258   1.733   3.214  11.624  1.0471  0.6688  0.9827
 6923TIP3   OH242259   1.101   5.515  15.073 -0.1331  0.3076  0.1910
 6923TIP3    H142260   1.145   5.504  15.157 -0.6713  0.3899  0.4896
 6923TIP3    H242261   1.045   5.592  15.086 -1.5221 -0.7087  0.3221
 6924TIP3   OH242262   0.851   4.435   6.324  0.0715 -0.0082  0.0555
 6924TIP3    H142263   0.811   4.359   6.283 -0.4094  0.7961 -0.9762
 6924TIP3    H242264   0.880   4.403   6.410 -1.7085 -0.9001  0.3429
 6925TIP3   OH242265   5.074   6.461   3.218 -0.1488  0.1410 -0.0632
 6925TIP3    H142266   5.075   6.557   3.225  1.1324  0.3756 -2.7347
 6925TIP3    H242267   4.983   6.439   3.202 -0.4246  0.9359  0.3661
 6926TIP3   OH242268   6.723   1.000   1.201 -0.1814  0.4328  0.0267
 6926TIP3    H142269   6.808   1.030   1.234 -0.1183  0.6397 -0.3330
 6926TIP3    H242270   6.725   0.905   1.215  1.4221 -0.0268 -2.9750
 6927TIP3   OH242271   4.883   5.054   0.793 -0.0849 -0.3181  0.1060
 6927TIP3    H142272   4.929   4.975   0.764 -0.5044 -0.7476  0.6057
 6927TIP3    H242273   4.893   5.116   0.720 -0.7849 -1.2422 -0.7818
 6928TIP3   OH242274   0.811   5.072  15.074 -0.5185 -0.2787  0.3720
 6928TIP3    H142275   0.878   5.138  15.091 -0.7488 -0.1352  0.7147
 6928TIP3    H242276   0.797   5.076  14.980  1.2545 -1.5454  0.0221
 6929TIP3   OH242277   5.862   5.862   3.090  0.4708 -0.1819  0.3191
 6929TIP3    H142278   5.770   5.851   3.115  0.3052  0.5789  0.0611
 6929TIP3    H242279   5.911   5.811   3.155 -0.1221 -0.4031  0.5924
 6930TIP3   OH242280   0.292   4.584   0.731 -0.1388  0.3016 -0.2075
 6930TIP3    H142281   0.248   4.542   0.805  1.3918 -0.9742 -0.0013
 6930TIP3    H242282   0.384   4.563   0.742  0.3678  1.7298 -1.4309
 6931TIP3   OH242283   3.632   6.002   3.330 -0.2676 -0.3346 -0.3528
 6931TIP3    H142284   3.718   6.044   3.329  1.3640 -3.4327  0.5130
 6931TIP3    H242285   3.582   6.049   3.397  1.4196  0.3036  0.4804
 6932TIP3   OH242286   6.726   3.249   3.142  0.0352  0.4458  0.0502
 6932TIP3    H142287   6.803   3.305   3.153 -0.4812  0.8031  2.0608
 6932TIP3    H242288   6.652   3.309   3.138 -0.4736 -0.0175  1.7638
 6933TIP3   OH242289   6.451   2.997   3.114 -0.1307 -0.1277  0.0437
 6933TIP3    H142290   6.541   3.010   3.144 -0.8047  0.8633  1.7764
 6933TIP3    H242291   6.450   3.032   3.025  1.0371  0.5210  0.2661
 6934TIP3   OH242292   0.246   2.759  12.423 -0.2666  0.6842 -0.2411
 6934TIP3    H142293   0.322   2.703  12.436 -0.3785  0.8382  1.0612
 6934TIP3    H242294   0.190   2.709  12.363  0.4052  0.1568 -0.4355
 6935TIP3   OH242295   2.002   1.758   2.317 -0.2560 -0.2359 -0.3592
 6935TIP3    H142296   2.049   1.773   2.399  0.4287  0.8310 -0.9295
 6935TIP3    H242297   1.911   1.778   2.337 -0.0614  0.1841  0.0968
 6936TIP3   OH242298   2.561   5.642  16.869 -0.2048  0.0019  0.2111
 6936TIP3    H142299   2.627   5.613  16.932  0.2690 -0.4375 -0.4956
 6936TIP3    H242300   2.478   5.616  16.909  0.0798 -0.0270  0.7909
 6937TIP3   OH242301   5.119   1.624   1.536 -0.3673  0.3060 -0.0139
 6937TIP3    H142302   5.054   1.644   1.469 -2.5688  0.6428  2.1228
 6937TIP3    H242303   5.068   1.588   1.609  1.5342  2.7381  2.6426
 6938TIP3   OH242304   6.616   4.089   1.736 -0.1603 -0.2697  0.4909
 6938TIP3    H142305   6.584   4.082   1.826 -1.2844  0.2000  0.1344
 6938TIP3    H242306   6.588   4.008   1.694 -1.0812  0.2339  0.1215
 6939TIP3   OH242307   6.103   5.376   0.831  0.2696  0.1097  0.2611
 6939TIP3    H142308   6.060   5.294   0.855 -0.4077  0.7122  1.1646
 6939TIP3    H242309   6.075   5.392   0.741  0.1387 -0.4841  0.1947
 6940TIP3   OH242310   2.680   1.948   0.013 -0.6187  0.2394  0.1027
 6940TIP3    H142311   2.699   1.915  -0.074  1.6197  0.0196  0.6453
 6940TIP3    H242312   2.668   1.870   0.067 -0.7817  0.3554  0.2374
 6941TIP3   OH242313   6.544   3.935  14.494 -0.1426  0.3554 -0.0297
 6941TIP3    H142314   6.477   3.919  14.561  1.5731  0.9206  1.8576
 6941TIP3    H242315   6.517   3.881  14.419 -3.3909  1.5406  0.2145
 6942TIP3   OH242316   3.427   1.792  14.110  0.3408 -0.1052 -0.0403
 6942TIP3    H142317   3.506   1.753  14.148  1.9652  0.6797 -2.5185
 6942TIP3    H242318   3.384   1.718  14.066  0.5924 -0.1827 -0.1583
 6943TIP3   OH242319   0.879   6.526  11.708  0.0378  0.2070 -0.5229
 6943TIP3    H142320   0.912   6.437  11.696  0.5308  0.3556 -0.3071
 6943TIP3    H242321   0.881   6.565  11.620 -1.8266 -0.5433 -0.9255
 6944TIP3   OH242322   5.464   6.287  15.959  0.5144 -0.0451 -0.3436
 6944TIP3    H142323   5.512   6.242  15.889 -2.4361  0.4857 -2.8051
 6944TIP3    H242324   5.412   6.218  16.000  1.1970 -0.0973  0.4454
 6945TIP3   OH242325   3.650   2.252   4.129 -0.1765 -0.3151  0.0545
 6945TIP3    H142326   3.725   2.298   4.167 -1.0186 -0.2813  1.6822
 6945TIP3    H242327   3.657   2.270   4.035  1.2414  0.5957  0.3186
 6946TIP3   OH242328   0.780   1.705  15.249  0.1357  0.1921  0.2906
 6946TIP3    H142329   0.748   1.701  15.159 -0.6592  0.3225  0.5634
 6946TIP3    H242330   0.825   1.789  15.255  0.0680  0.2437  0.0535
 6947TIP3   OH242331   1.374   0.418  13.910 -0.3498 -0.2414  1.1133
 6947TIP3    H142332   1.321   0.492  13.940  0.4392  0.1511  1.5479
 6947TIP3    H242333   1.316   0.370  13.851 -0.5833  1.1954  0.1541
 6948TIP3   OH242334   0.334   4.728   6.457  0.1994  0.3608 -0.6956
 6948TIP3    H142335   0.253   4.676   6.460  0.8579 -0.6680 -0.4222
 6948TIP3    H242336   0.385   4.697   6.532  0.3381  1.8678 -0.1469
 6949TIP3   OH242337   5.580   0.276  11.836  0.3054 -0.1943  0.1997
 6949TIP3    H142338   5.506   0.315  11.883 -1.5551 -1.8803 -1.2282
 6949TIP3    H242339   5.586   0.187  11.871  2.3251  0.2414  1.0129
 6950TIP3   OH242340   3.411   4.433  16.444 -0.0460 -0.1959 -0.6870
 6950TIP3    H142341   3.425   4.444  16.350  0.4702 -0.4278 -0.6376
 6950TIP3    H242342   3.471   4.495  16.485 -1.7639  1.4265 -0.5578
 6951TIP3   OH242343   3.481   1.228   2.538 -0.0311  0.6014 -0.0667
 6951TIP3    H142344   3.471   1.182   2.455  1.2346  1.0716 -0.4897
 6951TIP3    H242345   3.462   1.161   2.604  1.4273 -0.4581 -0.6861
 6952TIP3   OH242346   2.243   0.656  16.718  0.1233  0.2354 -0.0474
 6952TIP3    H142347   2.171   0.707  16.754 -1.3777 -2.7906  1.4161
 6952TIP3    H242348   2.200   0.581  16.676  2.2851 -0.1767 -1.5864
 6953TIP3   OH242349   0.986   1.771  14.104  0.1172 -0.4898  0.5565
 6953TIP3    H142350   0.974   1.680  14.128  0.1181 -0.7061 -0.2317
 6953TIP3    H242351   1.079   1.787  14.115  0.2650 -0.8406 -0.1574
 6954TIP3   OH242352   6.525   5.098   1.572  0.0108  0.2479  0.4847
 6954TIP3    H142353   6.493   5.012   1.601  1.7620 -0.7264 -0.3787
 6954TIP3    H242354   6.461   5.160   1.606 -1.2853 -1.4011  1.1417
 6955TIP3   OH242355   6.420   6.147  15.339  0.2620  0.2533  0.6844
 6955TIP3    H142356   6.511   6.172  15.325  0.0264  0.1114 -1.3293
 6955TIP3    H242357   6.379   6.225  15.376  1.6550 -0.4039  3.7356
 6956TIP3   OH242358   5.998   1.759   4.926  0.0618  0.4285  0.7056
 6956TIP3    H142359   6.002   1.664   4.918 -0.6957  0.2917  1.9410
 6956TIP3    H242360   6.055   1.791   4.855  0.2422 -0.9276  0.2244
 6957TIP3   OH242361   3.872   1.149   5.545  0.3019  0.0942 -0.5694
 6957TIP3    H142362   3.885   1.121   5.636 -1.6753 -1.7945 -0.8387
 6957TIP3    H242363   3.781   1.178   5.542 -0.4416 -2.3488 -2.5635
 6958TIP3   OH242364   3.191   4.416   3.830  0.4849 -0.2798 -0.1779
 6958TIP3    H142365   3.209   4.390   3.740 -0.5154  4.0843 -1.7904
 6958TIP3    H242366   3.262   4.477   3.851 -1.0745  1.2641  0.7401
 6959TIP3   OH242367   2.931   1.821  14.407 -0.2313  0.0198 -0.0653
 6959TIP3    H142368   2.844   1.821  14.446 -0.0202  0.1176  0.4051
 6959TIP3    H242369   2.991   1.830  14.481  0.2261 -1.0885 -0.2834
 6960TIP3   OH242370   6.297   3.707   1.584 -0.5020  0.1777 -0.4829
 6960TIP3    H142371   6.376   3.695   1.532 -0.6210  1.6067 -1.0108
 6960TIP3    H242372   6.253   3.781   1.544 -1.4270  0.2518  0.6484
 6961TIP3   OH242373   4.943   2.018  14.754  0.2624  0.3358  0.4352
 6961TIP3    H142374   5.011   2.079  14.782  0.0039  0.7795  0.1089
 6961TIP3    H242375   4.863   2.071  14.752 -0.2124 -0.3469  1.4521
 6962TIP3   OH242376   2.144   2.136   4.570  0.5581 -0.1931  0.2640
 6962TIP3    H142377   2.175   2.141   4.479 -0.4764  0.5942 -0.0639
 6962TIP3    H242378   2.222   2.121   4.622  1.4215  1.2233 -0.5867
 6963TIP3   OH242379   4.072   2.453   0.861 -0.2711 -0.2331 -0.6675
 6963TIP3    H142380   4.147   2.497   0.821 -0.2752  0.7842  0.4351
 6963TIP3    H242381   4.109   2.400   0.931 -0.3758 -1.2357 -1.3625
 6964TIP3   OH242382   5.800   0.017   6.354  0.2130  0.1329 -0.0900
 6964TIP3    H142383   5.744   0.095   6.352 -0.8170 -0.6066 -0.2096
 6964TIP3    H242384   5.757  -0.045   6.295  1.1524 -0.4501 -0.1671
 6965TIP3   OH242385   2.415   4.152   1.929  0.1308  0.1566 -0.1218
 6965TIP3    H142386   2.448   4.076   1.977  0.1540  1.8075  2.5188
 6965TIP3    H242387   2.371   4.114   1.853  0.5722 -2.4799  0.8899
 6966TIP3   OH242388   5.413   0.879   5.540 -0.2147 -1.2364  0.3374
 6966TIP3    H142389   5.474   0.923   5.481  0.8434  0.3424  2.5283
 6966TIP3    H242390   5.328   0.919   5.523 -0.3240 -2.2387 -1.5315
 6967TIP3   OH242391   1.963   5.708  14.033  0.1005 -0.5299  0.2386
 6967TIP3    H142392   2.036   5.663  13.991  0.5896  0.8101 -0.3778
 6967TIP3    H242393   1.893   5.643  14.037  0.2567 -0.8687 -2.0565
 6968TIP3   OH242394   1.550   0.607  15.349 -0.0333 -0.3331 -0.2069
 6968TIP3    H142395   1.623   0.666  15.370 -0.8057  0.1267  1.2767
 6968TIP3    H242396   1.533   0.560  15.431 -1.5796 -0.2327 -0.4630
 6969TIP3   OH242397   5.580   0.633   3.166 -1.1859 -0.1820 -0.5898
 6969TIP3    H142398   5.603   0.674   3.083  0.0090  1.6891  0.6329
 6969TIP3    H242399   5.579   0.705   3.229 -1.5363 -1.6584  1.1317
 6970TIP3   OH242400   0.822   2.124  12.046  0.2618 -0.3506 -0.3954
 6970TIP3    H142401   0.916   2.135  12.057  0.0190  0.3440  1.0998
 6970TIP3    H242402   0.786   2.127  12.135 -1.1232 -1.1310 -0.8968
 6971TIP3   OH242403   3.838   4.535   2.594  0.5324 -0.1185 -0.0631
 6971TIP3    H142404   3.793   4.457   2.626  0.5698 -0.3996 -0.6833
 6971TIP3    H242405   3.771   4.583   2.546  0.2486  0.7447  1.1626
 6972TIP3   OH242406   1.839   1.326   1.833  0.7639 -0.5542  0.2227
 6972TIP3    H142407   1.770   1.260   1.831  0.0082  0.1933  1.3150
 6972TIP3    H242408   1.895   1.300   1.906  0.4976 -0.0263  0.6181
 6973TIP3   OH242409   2.501   5.359   1.220  0.5485 -0.2226 -0.2580
 6973TIP3    H142410   2.532   5.398   1.139 -1.0013  1.7684  0.0731
 6973TIP3    H242411   2.411   5.332   1.201  0.9995 -2.0643  0.0644
 6974TIP3   OH242412   2.879   1.011  13.751  0.0537  0.7126 -0.0952
 6974TIP3    H142413   2.879   1.000  13.656 -1.3519 -1.6173  0.1200
 6974TIP3    H242414   2.800   1.061  13.770 -2.1678 -2.6905  0.1370
 6975TIP3   OH242415   3.367   0.942   1.219  0.0372 -0.2939 -0.3976
 6975TIP3    H142416   3.408   1.003   1.281 -0.2320  0.0594 -0.5695
 6975TIP3    H242417   3.410   0.959   1.136  0.1701 -0.5475 -0.3841
 6976TIP3   OH242418   3.977   0.263  14.467 -0.2960  0.0709  0.6196
 6976TIP3    H142419   4.003   0.315  14.543  1.9651 -1.1087  0.6759
 6976TIP3    H242420   4.057   0.254  14.415 -1.0367 -2.0067 -0.2076
 6977TIP3   OH242421   4.195   2.822  15.335 -0.2915  0.4208  0.0110
 6977TIP3    H142422   4.255   2.752  15.311 -0.7399 -0.0751  0.3515
 6977TIP3    H242423   4.153   2.847  15.253 -1.8286 -1.2786  0.2720
 6978TIP3   OH242424   1.869   6.117   1.954 -0.5196  0.1446 -0.6689
 6978TIP3    H142425   1.853   6.031   1.916  0.6205 -0.5287  0.3539
 6978TIP3    H242426   1.946   6.105   2.009 -1.6498  1.2636  1.2326
 6979TIP3   OH242427   0.654   5.897  13.606  0.4159 -0.0919 -0.2655
 6979TIP3    H142428   0.634   5.846  13.527 -0.1317 -0.4633  0.1009
 6979TIP3    H242429   0.568   5.912  13.646  0.6136  0.8507 -0.2028
 6980TIP3   OH242430   1.277   5.557   2.165  0.1568  0.4401  0.2127
 6980TIP3    H142431   1.354   5.613   2.155 -0.3408  1.2666  0.9155
 6980TIP3    H242432   1.278   5.500   2.088  0.9143  1.1138 -0.2816
 6981TIP3   OH242433   2.767   3.903   5.456  0.0283  0.0770 -0.8128
 6981TIP3    H142434   2.814   3.980   5.423 -1.5666  0.0452 -3.3269
 6981TIP3    H242435   2.681   3.908   5.414 -1.4633 -1.0358  1.9999
 6982TIP3   OH242436   5.648   3.430   3.571 -0.1623  0.1968 -0.0150
 6982TIP3    H142437   5.637   3.373   3.495  0.2296  0.5223 -0.3169
 6982TIP3    H242438   5.585   3.500   3.559  2.7525  2.5686 -2.2170
 6983TIP3   OH242439   2.728   0.029  16.380 -0.0847 -0.0596 -0.4214
 6983TIP3    H142440   2.663   0.033  16.450 -0.7627 -0.6277 -1.0133
 6983TIP3    H242441   2.695  -0.037  16.319  0.4011  0.5392 -1.3668
 6984TIP3   OH242442   0.627   4.265  13.398  0.0254  0.5594 -0.3438
 6984TIP3    H142443   0.536   4.271  13.370 -1.3333  1.1348  3.8164
 6984TIP3    H242444   0.668   4.344  13.364 -1.2514  0.7343 -1.5026
 6985TIP3   OH242445   0.215   6.317   4.721  0.2320 -0.3522 -0.3324
 6985TIP3    H142446   0.309   6.302   4.708  0.1034 -1.2033 -0.2743
 6985TIP3    H242447   0.204   6.411   4.706  1.1356 -0.2038 -0.0812
 6986TIP3   OH242448   1.034   3.759  13.357  0.6023 -0.8928 -0.4640
 6986TIP3    H142449   0.987   3.797  13.283  0.1567 -1.5241 -0.5057
 6986TIP3    H242450   1.027   3.664  13.345  2.2497 -1.0102 -0.6983
 6987TIP3   OH242451   0.029   4.783  15.184 -0.1828  0.0028 -0.0132
 6987TIP3    H142452   0.059   4.796  15.274  0.4018 -1.4266  0.0243
 6987TIP3    H242453   0.005   4.870  15.153  2.4065  0.9690  0.5614
 6988TIP3   OH242454   4.978   3.299   3.665 -0.5591 -0.2615 -0.0909
 6988TIP3    H142455   4.903   3.312   3.607 -1.1725 -1.5064  0.3951
 6988TIP3    H242456   5.052   3.284   3.605 -0.6467  1.1366 -0.5722
 6989TIP3   OH242457   4.980   5.596   1.343 -0.0510 -0.2194  0.2100
 6989TIP3    H142458   5.034   5.608   1.265  2.0430 -2.5116  1.2407
 6989TIP3    H242459   4.902   5.550   1.312  0.1330  0.1156 -0.7577
 6990TIP3   OH242460   3.837   5.152  14.709 -0.1086 -0.0818  0.4501
 6990TIP3    H142461   3.896   5.217  14.746 -0.1157 -0.5009  1.2289
 6990TIP3    H242462   3.772   5.202  14.661  0.0440  0.4662  0.8121
 6991TIP3   OH242463   4.851   4.861   3.728  0.4297  0.3419  0.0455
 6991TIP3    H142464   4.803   4.886   3.807  0.2370 -0.8578  0.3226
 6991TIP3    H242465   4.787   4.871   3.657 -0.0978 -0.7784  0.3497
 6992TIP3   OH242466   1.403   1.916   2.485 -0.7146  0.2809 -0.4687
 6992TIP3    H142467   1.397   1.821   2.496  0.2389  0.5107  2.7161
 6992TIP3    H242468   1.427   1.928   2.393  1.5608 -2.6734 -0.3494
 6993TIP3   OH242469   5.191   2.134   0.951  0.3625  0.1052 -0.4290
 6993TIP3    H142470   5.286   2.137   0.954  0.3300 -0.0308  1.1554
 6993TIP3    H242471   5.170   2.047   0.918  0.7750 -0.3476  0.4897
 6994TIP3   OH242472   0.325   1.847  15.028 -0.5663  0.1010 -0.0572
 6994TIP3    H142473   0.254   1.783  15.032  1.1493 -1.8065  0.4409
 6994TIP3    H242474   0.403   1.795  15.010  0.8196  2.0900  0.1104
 6995TIP3   OH242475   1.472   5.410  12.940  0.3575 -0.4037  0.1680
 6995TIP3    H142476   1.536   5.422  12.870  1.1081  0.4714  0.9920
 6995TIP3    H242477   1.522   5.381  13.015 -0.1650  0.4622  0.8725
 6996TIP3   OH242478   3.383   5.828  14.885 -0.0930  0.4571  0.3739
 6996TIP3    H142479   3.442   5.883  14.833  0.4984 -0.4642  0.0739
 6996TIP3    H242480   3.351   5.887  14.953 -1.2796  1.8301 -1.3111
 6997TIP3   OH242481   5.858   0.096   6.671 -0.0769 -0.1060 -0.6278
 6997TIP3    H142482   5.892   0.113   6.759  1.3372  1.3201 -1.4425
 6997TIP3    H242483   5.897   0.012   6.646  0.5653  0.1315 -0.4210
 6998TIP3   OH242484   0.678   3.445  11.893  0.4146  0.4116 -0.4362
 6998TIP3    H142485   0.764   3.442  11.851  0.1837 -2.6848 -0.8169
 6998TIP3    H242486   0.696   3.429  11.986  0.2057 -1.0137 -0.6310
 6999TIP3   OH242487   1.165   0.713   1.874  0.1125  0.5808 -0.3414
 6999TIP3    H142488   1.179   0.774   1.802  1.6406  1.1682  0.4393
 6999TIP3    H242489   1.138   0.768   1.948 -2.3323 -0.1026 -0.6562
 7000TIP3   OH242490   6.309   0.384   1.440 -0.0451  0.6174  0.2665
 7000TIP3    H142491   6.218   0.413   1.429 -0.9269 -1.9493  0.4721
 7000TIP3    H242492   6.319   0.313   1.377  2.0483  1.2837 -0.1965
 7001TIP3   OH242493   1.272   4.754   2.303 -0.1435  0.0204  0.9849
 7001TIP3    H142494   1.347   4.717   2.349 -0.2880 -2.0724 -0.3869
 7001TIP3    H242495   1.309   4.796   2.226 -0.3964 -1.4021  0.0718
 7002TIP3   OH242496   0.720   1.963  13.396  0.4440  0.3491 -0.1070
 7002TIP3    H142497   0.782   1.993  13.463  1.8442  1.0784 -1.6907
 7002TIP3    H242498   0.648   2.026  13.402  0.1627 -0.0809  1.2673
 7003TIP3   OH242499   0.479   6.322  14.132  0.5574 -0.4292  0.0144
 7003TIP3    H142500   0.452   6.406  14.170  1.4368 -0.4680  0.7244
 7003TIP3    H242501   0.417   6.308  14.060  0.4011  0.8281 -0.1086
 7004TIP3   OH242502   5.786   3.791   6.028  0.0702  0.3381  0.2501
 7004TIP3    H142503   5.794   3.859   5.962  0.8911  2.1690  2.1775
 7004TIP3    H242504   5.704   3.810   6.073 -0.6855 -1.1364 -0.4777
 7005TIP3   OH242505   2.756   3.018   1.230 -0.2347 -0.7291 -0.2642
 7005TIP3    H142506   2.792   3.100   1.264 -1.3424 -0.2124 -0.3180
 7005TIP3    H242507   2.809   2.998   1.153 -0.0006 -0.0323 -0.2803
 7006TIP3   OH242508   3.602   5.637  15.676 -0.0760 -0.6007 -0.1425
 7006TIP3    H142509   3.599   5.546  15.645  0.6117 -0.7309  0.1576
 7006TIP3    H242510   3.688   5.644  15.718  0.0701  0.3279 -0.5976
 7007TIP3   OH242511   0.281   2.098   3.748 -0.7129 -0.0919  0.0764
 7007TIP3    H142512   0.289   2.162   3.819  1.2483  1.5626 -1.5960
 7007TIP3    H242513   0.187   2.095   3.729 -1.1106  0.4036  1.8354
 7008TIP3   OH242514   5.518   1.396  12.521  0.7214 -0.6331 -0.2059
 7008TIP3    H142515   5.513   1.328  12.453 -0.0223  0.6801 -1.4799
 7008TIP3    H242516   5.429   1.401  12.557  0.5839  0.2318 -0.6684
 7009TIP3   OH242517   5.720   0.963   2.913  0.2829 -0.2126 -0.2188
 7009TIP3    H142518   5.653   0.979   2.980 -0.3126 -0.3419 -0.7821
 7009TIP3    H242519   5.733   0.869   2.914  0.0451 -0.2463 -0.5132
 7010TIP3   OH242520   5.374   3.641  17.270 -0.0127  0.1264 -0.2921
 7010TIP3    H142521   5.401   3.687  17.190 -0.2283  1.1542  0.2253
 7010TIP3    H242522   5.440   3.665  17.335 -0.4363  0.1415  0.1324
 7011TIP3   OH242523   5.786   2.756   4.814 -0.1609 -0.5948 -0.4353
 7011TIP3    H142524   5.743   2.705   4.882  1.5079 -0.7743  0.5048
 7011TIP3    H242525   5.715   2.805   4.772 -1.3910 -1.5666  0.4755
 7012TIP3   OH242526   4.088   2.755   3.299 -0.1148  0.0766  0.3562
 7012TIP3    H142527   4.045   2.840   3.311 -1.2771 -0.1973 -1.6835
 7012TIP3    H242528   4.032   2.707   3.239  2.3771 -0.7754 -1.3934
 7013TIP3   OH242529   5.689   1.540  14.968 -0.0786 -0.5286 -0.2783
 7013TIP3    H142530   5.738   1.504  14.895 -0.3024 -1.2549 -0.0773
 7013TIP3    H242531   5.611   1.579  14.929  0.5299  0.3994 -0.5728
 7014TIP3   OH242532   5.655   3.212  15.027  0.5300 -0.0947  0.4728
 7014TIP3    H142533   5.639   3.284  15.087  2.1688  0.5521  0.1651
 7014TIP3    H242534   5.679   3.255  14.944 -1.8580 -0.9622 -0.6975
 7015TIP3   OH242535   1.893   5.698  12.923  0.0720  0.7467 -0.8936
 7015TIP3    H142536   1.807   5.709  12.963 -0.4061  1.8958 -2.1982
 7015TIP3    H242537   1.912   5.604  12.933 -0.8807  0.6610  0.2722
 7016TIP3   OH242538   5.717   6.174   1.320 -0.0991 -0.1182  0.2486
 7016TIP3    H142539   5.777   6.211   1.385  1.2972 -0.5342 -0.7554
 7016TIP3    H242540   5.769   6.106   1.276 -0.8373  0.4906 -1.6297
 7017TIP3   OH242541   1.234   1.138  15.211 -0.7954 -0.1934 -0.4881
 7017TIP3    H142542   1.316   1.182  15.191  0.3561 -1.7067  0.7322
 7017TIP3    H242543   1.201   1.183  15.289 -0.0294 -0.9322  0.2785
 7018TIP3   OH242544   4.514   6.161  13.952  0.5960  0.2211  0.4224
 7018TIP3    H142545   4.528   6.072  13.985 -0.2489 -0.0098  0.1835
 7018TIP3    H242546   4.420   6.175  13.960  0.4848  0.4572 -1.1312
 7019TIP3   OH242547   0.997   0.547  14.101  0.0830  0.3439 -0.2488
 7019TIP3    H142548   0.984   0.642  14.098 -1.4770  0.1526  0.1585
 7019TIP3    H242549   0.940   0.513  14.032  2.6089 -0.1194 -2.1836
 7020TIP3   OH242550   0.694   5.862  14.739 -0.2161  0.0386  0.4582
 7020TIP3    H142551   0.655   5.945  14.712 -2.0557 -0.5921  1.1451
 7020TIP3    H242552   0.739   5.830  14.660  0.2540  1.5170  0.1057
 7021TIP3   OH242553   2.109   1.333   0.244 -0.8798  0.4280  0.3835
 7021TIP3    H142554   2.108   1.416   0.291  0.3910  0.0597  1.0932
 7021TIP3    H242555   2.131   1.356   0.154  0.8230  0.7551  0.8571
 7022TIP3   OH242556   3.136   3.376   2.122 -0.3416 -0.5458 -0.7380
 7022TIP3    H142557   3.140   3.348   2.031  0.5556  0.6306 -1.0708
 7022TIP3    H242558   3.147   3.472   2.118 -2.0693 -0.2901  0.4610
 7023TIP3   OH242559   0.099   0.390   0.440 -0.2060 -0.1388 -0.0720
 7023TIP3    H142560   0.117   0.348   0.525 -1.0878 -0.1884  0.0987
 7023TIP3    H242561   0.043   0.327   0.394  0.1435 -0.0414 -0.6307
 7024TIP3   OH242562   3.693   2.929  16.196 -0.2680  0.1321  0.2963
 7024TIP3    H142563   3.740   2.851  16.223  1.3918  0.3503 -1.8057
 7024TIP3    H242564   3.738   3.001  16.241 -1.2162 -0.0310  1.5128
 7025TIP3   OH242565   1.639   2.328   5.157 -0.6246 -0.1762  0.7314
 7025TIP3    H142566   1.558   2.377   5.174 -0.8154 -0.1354 -0.2752
 7025TIP3    H242567   1.706   2.375   5.207 -1.0022  0.5222  0.5937
 7026TIP3   OH242568   2.514   3.446   1.856 -1.1395 -0.2154 -0.2859
 7026TIP3    H142569   2.446   3.469   1.793 -0.4483  0.8817 -0.6515
 7026TIP3    H242570   2.471   3.385   1.916 -2.5713  0.7448 -0.2895
 7027TIP3   OH242571   5.059   5.782  11.777 -0.3990 -0.6485  0.1482
 7027TIP3    H142572   5.125   5.804  11.712 -0.2244 -1.3662  0.0766
 7027TIP3    H242573   4.980   5.828  11.749 -0.3238 -0.9595 -0.5697
 7028TIP3   OH242574   2.650   6.211  13.831  0.5495 -0.7292  0.8228
 7028TIP3    H142575   2.572   6.181  13.877  0.8085 -0.8641  1.1816
 7028TIP3    H242576   2.650   6.163  13.748 -1.4945  1.6365 -0.6260
 7029TIP3   OH242577   0.280   6.645   4.394  0.1837  0.5773  0.1567
 7029TIP3    H142578   0.304   6.632   4.485  0.1808 -2.1311 -0.1910
 7029TIP3    H242579   0.340   6.589   4.345 -1.0741  0.4968 -1.3352
 7030TIP3   OH242580   6.101   0.219   6.863 -0.0199  0.3912 -0.0835
 7030TIP3    H142581   6.185   0.176   6.881 -0.4639  0.0047  1.1186
 7030TIP3    H242582   6.125   0.306   6.832  0.8276  0.7691  1.5477
 7031TIP3   OH242583   2.560   2.958   4.550  0.3163 -0.5003 -0.7148
 7031TIP3    H142584   2.492   2.962   4.484  0.0552 -0.8327 -0.4680
 7031TIP3    H242585   2.594   3.047   4.556 -0.5303 -0.2003 -0.3860
 7032TIP3   OH242586   6.629   5.402  11.871 -0.7510 -0.2516 -0.5245
 7032TIP3    H142587   6.538   5.375  11.878 -0.4714 -1.2881 -0.9365
 7032TIP3    H242588   6.667   5.380  11.956 -1.1246  1.1426  0.0316
 7033TIP3   OH242589   2.059   1.108  13.989 -0.5717 -0.7881 -0.3673
 7033TIP3    H142590   2.141   1.061  14.000  0.3299  1.0128  0.8888
 7033TIP3    H242591   2.015   1.064  13.916  0.6947 -2.8706  0.0953
 7034TIP3   OH242592   0.430   0.877  14.956 -0.0067 -0.4057 -0.0617
 7034TIP3    H142593   0.435   0.847  15.046  1.6456 -1.7843 -0.5822
 7034TIP3    H242594   0.520   0.897  14.931 -0.6002  1.3896 -0.9671
 7035TIP3   OH242595   4.420   2.115   3.739 -0.0118 -0.3188 -0.1379
 7035TIP3    H142596   4.435   2.208   3.752  0.6126  0.1532 -3.6199
 7035TIP3    H242597   4.369   2.087   3.815  0.0634  2.7740  1.0966
 7036TIP3   OH242598   6.535   1.892   5.250 -0.2808 -0.5072  0.1230
 7036TIP3    H142599   6.576   1.944   5.320  0.4496 -1.8443  0.6973
 7036TIP3    H242600   6.496   1.957   5.192  1.2458  0.7222  0.4500
 7037TIP3   OH242601   3.330   0.003   2.829 -0.3511  0.4985 -0.0146
 7037TIP3    H142602   3.389   0.028   2.757  0.4646  0.3055  0.5892
 7037TIP3    H242603   3.349  -0.089   2.845 -0.0580  0.7118  0.8952
 7038TIP3   OH242604   0.551   2.880   3.238  0.0881 -0.1151  0.5660
 7038TIP3    H142605   0.460   2.883   3.265 -0.0757 -1.7542  0.2549
 7038TIP3    H242606   0.567   2.964   3.196 -1.5789 -0.2304 -0.3169
 7039TIP3   OH242607   3.715   2.603  12.433 -0.0239  0.3273 -0.3240
 7039TIP3    H142608   3.782   2.671  12.427  0.7629 -0.3667  0.4766
 7039TIP3    H242609   3.665   2.627  12.512  1.5628 -1.1606  1.1833
 7040TIP3   OH242610   2.213   5.153   4.231  0.3689 -0.2877  0.3782
 7040TIP3    H142611   2.267   5.127   4.306 -0.3699 -0.5497  0.8217
 7040TIP3    H242612   2.218   5.078   4.171  3.3475  1.0694 -1.1900
 7041TIP3   OH242613   5.665   5.550   5.965  0.4776 -0.1042 -0.5031
 7041TIP3    H142614   5.595   5.486   5.971  1.4426 -1.1553 -0.3618
 7041TIP3    H242615   5.638   5.621   6.023 -0.3303 -0.6348 -0.2285
 7042TIP3   OH242616   2.843   4.983  15.182  0.1099  0.5540 -0.4020
 7042TIP3    H142617   2.850   4.896  15.222  1.3434  0.7048 -0.2906
 7042TIP3    H242618   2.841   4.965  15.088  1.7135  0.4849 -0.4300
 7043TIP3   OH242619   2.755   5.113   3.396 -0.6941  0.3098  0.0545
 7043TIP3    H142620   2.788   5.201   3.415  3.6403 -0.6982 -2.2262
 7043TIP3    H242621   2.770   5.064   3.477  2.5740  0.2008 -0.5279
 7044TIP3   OH242622   1.608   2.463  14.465 -0.1466 -0.0761  0.6686
 7044TIP3    H142623   1.678   2.521  14.495 -2.8143  3.8603 -0.4226
 7044TIP3    H242624   1.611   2.469  14.370 -3.0536  1.5848  0.6212
 7045TIP3   OH242625   4.033   2.025  11.144 -0.9220  0.3054  0.1683
 7045TIP3    H142626   4.054   1.932  11.145 -1.0821  0.2520  2.5044
 7045TIP3    H242627   4.116   2.068  11.124 -0.9016 -0.3407 -1.1783
 7046TIP3   OH242628   5.550   6.697   0.977 -0.1957  0.1408 -0.0786
 7046TIP3    H142629   5.519   6.707   1.067 -2.5785  2.1320 -1.0441
 7046TIP3    H242630   5.579   6.785   0.952  0.7872 -0.4752 -1.1360
 7047TIP3   OH242631   6.013   1.415   3.035 -0.0627 -0.3093 -0.0306
 7047TIP3    H142632   5.951   1.444   2.968 -0.1836  1.0856  0.6826
 7047TIP3    H242633   6.080   1.483   3.038  1.4764 -1.7541 -0.7196
 7048TIP3   OH242634   5.236   0.228   2.255 -0.5588  0.2310  0.0145
 7048TIP3    H142635   5.276   0.170   2.191 -1.9876  0.1191 -0.7915
 7048TIP3    H242636   5.225   0.175   2.334  1.4314  0.4413  0.4473
 7049TIP3   OH242637   0.768   3.577  15.940  0.2067 -0.5808 -0.2384
 7049TIP3    H142638   0.718   3.531  15.873 -1.0347  0.0009  0.2618
 7049TIP3    H242639   0.708   3.644  15.973  1.6481  0.7641 -0.2675
 7050TIP3   OH242640   1.912   5.074  16.575  0.2369 -0.2684 -0.1210
 7050TIP3    H142641   1.938   5.095  16.485 -0.2574 -0.1245 -0.2313
 7050TIP3    H242642   1.978   5.118  16.629 -0.8786  1.7774 -0.3458
 7051TIP3   OH242643   6.227   0.297   3.058 -0.0404  0.2241  0.2073
 7051TIP3    H142644   6.226   0.207   3.025 -3.2743 -0.8991  3.1371
 7051TIP3    H242645   6.256   0.289   3.149  0.6437  2.3159  0.2149
 7052TIP3   OH242646   0.420   0.387  15.618 -0.0622 -0.4309 -0.2717
 7052TIP3    H142647   0.406   0.445  15.543 -0.8429  0.3506  0.4517
 7052TIP3    H242648   0.338   0.338  15.626 -0.4594  0.3882  0.8167
 7053TIP3   OH242649   2.705   3.154  12.234 -0.2402  0.5869 -0.0973
 7053TIP3    H142650   2.778   3.208  12.266  0.3936 -0.4649  0.2584
 7053TIP3    H242651   2.699   3.082  12.297  0.1709 -0.8198 -1.6247
 7054TIP3   OH242652   3.402   5.094   5.942  0.5436  0.3086 -0.6881
 7054TIP3    H142653   3.317   5.058   5.913  0.9017 -1.5385  0.4291
 7054TIP3    H242654   3.380   5.179   5.980 -1.1254 -0.9982  1.4016
 7055TIP3   OH242655   5.887   3.470  15.940 -0.0537  0.4344  0.1394
 7055TIP3    H142656   5.873   3.479  15.846 -0.6956  1.5479  0.3315
 7055TIP3    H242657   5.836   3.393  15.965 -0.4785  0.5755 -0.2950
 7056TIP3   OH242658   3.711   2.428  11.431 -0.4886  0.2733 -0.6013
 7056TIP3    H142659   3.759   2.463  11.356 -0.2135 -0.0626 -0.5829
 7056TIP3    H242660   3.623   2.411  11.397 -0.3677  0.1330 -0.8435
 7057TIP3   OH242661   6.184   1.724  12.603  0.4500 -0.4164  0.1747
 7057TIP3    H142662   6.202   1.740  12.510 -0.7785 -1.3744 -0.2522
 7057TIP3    H242663   6.090   1.710  12.607  0.3554  0.5512  1.7307
 7058TIP3   OH242664   1.857   6.731   2.140 -0.4529  0.5333 -0.0515
 7058TIP3    H142665   1.875   6.821   2.165 -1.7926  0.9634 -0.5844
 7058TIP3    H242666   1.763   6.720   2.153  0.1507 -1.7790  3.0550
 7059TIP3   OH242667   0.293   3.174   0.852  0.0962 -0.1394 -0.1143
 7059TIP3    H142668   0.341   3.231   0.792  1.1704  0.1968  1.0195
 7059TIP3    H242669   0.358   3.150   0.918 -1.1378 -0.2168  1.1008
 7060TIP3   OH242670   6.793   6.511  12.511 -0.0647 -0.1537 -0.3703
 7060TIP3    H142671   6.862   6.461  12.467  1.2544  0.2319  1.2588
 7060TIP3    H242672   6.762   6.572  12.444  1.5899  0.1018 -0.9258
 7061TIP3   OH242673   6.578   0.168  12.556 -0.0456  0.4413 -0.8682
 7061TIP3    H142674   6.545   0.252  12.585 -1.0652 -0.1010 -0.4366
 7061TIP3    H242675   6.672   0.182  12.543  0.4974  0.6786  2.8450
 7062TIP3   OH242676   1.497   5.441   2.416  0.6871  0.5199  0.2486
 7062TIP3    H142677   1.432   5.402   2.358 -0.8754 -0.8599  2.8196
 7062TIP3    H242678   1.456   5.521   2.447  0.1197 -0.3976  1.9443
 7063TIP3   OH242679   2.067   4.745  16.945  0.2659  0.3365  0.4921
 7063TIP3    H142680   1.992   4.687  16.954 -0.6706  1.4204 -0.2105
 7063TIP3    H242681   2.131   4.712  17.008 -0.8117 -0.5696  1.1215
 7064TIP3   OH242682   6.190   4.871   4.111 -0.4960  0.0932  0.3904
 7064TIP3    H142683   6.099   4.900   4.100 -0.3686 -0.1447 -1.3810
 7064TIP3    H242684   6.233   4.945   4.154 -1.7168 -0.1409  2.0742
 7065TIP3   OH242685   4.679   2.994   5.985 -0.2298 -0.0728  0.1259
 7065TIP3    H142686   4.664   2.938   6.061 -1.1248 -1.6324 -1.1718
 7065TIP3    H242687   4.612   3.063   5.993  0.3368  0.3513  1.2814
 7066TIP3   OH242688   6.572   1.114   1.385 -0.1985  0.2941 -0.2270
 7066TIP3    H142689   6.619   1.077   1.311  1.0267  1.3562 -0.0079
 7066TIP3    H242690   6.491   1.064   1.391 -0.2381  0.1229 -2.1869
 7067TIP3   OH242691   0.943   5.580  12.120 -0.0657 -0.1883 -0.1772
 7067TIP3    H142692   0.957   5.606  12.210  2.3908  0.8417 -0.8139
 7067TIP3    H242693   0.858   5.537  12.120 -1.5749  2.6434  2.0136
 7068TIP3   OH242694   0.211   2.867  15.494 -0.0299  0.2046  0.1439
 7068TIP3    H142695   0.193   2.800  15.427 -1.1616 -1.5346  2.1122
 7068TIP3    H242696   0.180   2.949  15.455 -1.5349 -0.9219 -1.1234
 7069TIP3   OH242697   1.074   4.673   6.346 -0.3566  0.0863 -0.0270
 7069TIP3    H142698   1.121   4.752   6.318  0.9883 -0.5204  0.5051
 7069TIP3    H242699   1.138   4.624   6.397 -1.0592 -1.5715 -0.7216
 7070TIP3   OH242700   1.032   1.595  14.958 -0.2010 -0.4521  0.7965
 7070TIP3    H142701   1.012   1.681  14.994  0.0290 -0.4995  1.0437
 7070TIP3    H242702   1.033   1.607  14.863 -2.2659 -0.6411  0.7339
 7071TIP3   OH242703   4.681   3.571   4.281 -0.1029 -0.0612 -0.3085
 7071TIP3    H142704   4.717   3.618   4.356  1.5956 -0.8263 -0.6157
 7071TIP3    H242705   4.605   3.524   4.316 -1.5987  2.5608  0.0830
 7072TIP3   OH242706   1.343   3.674   1.050 -0.0641 -0.0197 -0.0789
 7072TIP3    H142707   1.299   3.711   0.973 -0.1428  0.3537  0.1430
 7072TIP3    H242708   1.413   3.736   1.070 -1.9882  1.5254  2.0258
 7073TIP3   OH242709   4.792   1.819   3.328 -0.6802  0.1601 -0.3983
 7073TIP3    H142710   4.777   1.744   3.270  1.9646 -1.2383  0.6685
 7073TIP3    H242711   4.817   1.780   3.412  2.4685  2.2443 -0.3006
 7074TIP3   OH242712   2.590   2.432  15.629  0.1798 -0.1926  0.2476
 7074TIP3    H142713   2.664   2.387  15.670 -0.1531 -0.1306  0.9200
 7074TIP3    H242714   2.555   2.488  15.698  0.5712  1.0760 -0.5665
 7075TIP3   OH242715   6.165   5.741   5.127 -0.2675  0.1380  0.3949
 7075TIP3    H142716   6.086   5.774   5.084 -0.1515  0.8033  0.6865
 7075TIP3    H242717   6.168   5.648   5.104  0.2003  0.6359 -1.6531
 7076TIP3   OH242718   3.005   3.956  14.377  0.0071 -0.1354 -0.3004
 7076TIP3    H142719   2.996   4.006  14.295 -0.5218  1.0457  0.4723
 7076TIP3    H242720   2.931   3.896  14.377  0.5379 -0.8037 -1.1429
 7077TIP3   OH242721   4.157   0.309  17.043 -0.1732 -0.3651 -0.2933
 7077TIP3    H142722   4.242   0.315  16.999 -0.4005  1.5315 -0.5057
 7077TIP3    H242723   4.122   0.397  17.039 -2.2271 -1.1610 -0.3085
 7078TIP3   OH242724   3.547   1.808   4.335 -0.0472 -0.1872  0.6923
 7078TIP3    H142725   3.574   1.899   4.323  0.4923 -0.5678 -1.1789
 7078TIP3    H242726   3.614   1.769   4.391  0.8792  0.0222 -0.2653
 7079TIP3   OH242727   0.280   4.044   3.373 -0.0815  0.6253 -0.2605
 7079TIP3    H142728   0.228   4.009   3.445  1.3816  0.2767  0.6488
 7079TIP3    H242729   0.337   3.971   3.348  2.2934  2.0086  0.9722
 7080TIP3   OH242730   4.913   4.006  13.423 -0.4786 -0.5137 -0.0789
 7080TIP3    H142731   4.898   4.097  13.448 -1.4438 -1.0555  1.3917
 7080TIP3    H242732   4.841   3.986  13.363  0.1628 -0.1035 -1.0101
 7081TIP3   OH242733   2.019   5.727  12.218  0.0748 -0.2034 -0.3014
 7081TIP3    H142734   2.084   5.747  12.286 -1.0410  0.8981  0.4559
 7081TIP3    H242735   2.071   5.713  12.139  1.1763  1.9934 -0.0028
 7082TIP3   OH242736   2.073   2.145   3.969  0.5777 -0.2419 -0.2330
 7082TIP3    H142737   2.045   2.172   3.881  3.6892  0.6054 -1.0241
 7082TIP3    H242738   2.135   2.074   3.954 -1.8705 -2.8630  1.5225
 7083TIP3   OH242739   6.540   4.830   4.843  0.2037  0.2569 -0.0144
 7083TIP3    H142740   6.554   4.737   4.861 -1.2500 -0.2489 -1.3593
 7083TIP3    H242741   6.601   4.851   4.773  0.4636  0.3046  0.2235
 7084TIP3   OH242742   0.929   2.110   1.975  0.0352  0.4278  0.0795
 7084TIP3    H142743   0.916   2.055   2.052  0.7815 -1.7599 -1.3275
 7084TIP3    H242744   0.861   2.083   1.914  1.4679 -0.1743 -1.2845
 7085TIP3   OH242745   4.655   0.302  15.184  0.7409  0.6005 -0.3328
 7085TIP3    H142746   4.709   0.284  15.261 -1.5178  2.4063  1.7515
 7085TIP3    H242747   4.640   0.216  15.144  0.7711 -0.5459  2.0524
 7086TIP3   OH242748   1.998   1.074  14.575  0.5913 -0.1631  0.2941
 7086TIP3    H142749   1.991   1.131  14.652 -3.1680 -1.6978  1.2066
 7086TIP3    H242750   1.941   1.115  14.510  2.8112  0.4682 -1.2915
 7087TIP3   OH242751   5.878   4.798   2.490 -0.1480 -0.0556  0.1957
 7087TIP3    H142752   5.932   4.842   2.556 -0.3594  1.8970 -0.8839
 7087TIP3    H242753   5.792   4.841   2.497 -0.5398 -0.7141 -0.4895
 7088TIP3   OH242754   1.203   5.327   2.596 -0.5110  0.4069  0.1509
 7088TIP3    H142755   1.188   5.299   2.506 -1.2109  0.7770  0.1450
 7088TIP3    H242756   1.139   5.397   2.610 -1.9179 -1.1236  1.6548
 7089TIP3   OH242757   6.096   0.608  13.081 -0.0089  0.3606 -0.1244
 7089TIP3    H142758   6.122   0.616  13.173  0.8766  0.9764 -0.4237
 7089TIP3    H242759   6.149   0.673  13.035 -1.2629  0.8426 -0.9107
 7090TIP3   OH242760   6.343   2.150   5.722  0.7178 -0.0112 -0.1336
 7090TIP3    H142761   6.301   2.165   5.638 -0.0378  0.5520  0.3453
 7090TIP3    H242762   6.354   2.055   5.727 -0.8669 -0.1945 -0.0820
 7091TIP3   OH242763   0.431   2.073   2.331  0.1240 -0.5092 -0.2557
 7091TIP3    H142764   0.458   1.984   2.309 -0.0883 -0.8328  0.7339
 7091TIP3    H242765   0.349   2.086   2.284 -0.0848 -1.0068 -0.0322
 7092TIP3   OH242766   1.711   6.202  13.831  0.7269 -0.4978  0.1264
 7092TIP3    H142767   1.779   6.135  13.834  1.6010  0.3482 -0.1891
 7092TIP3    H242768   1.629   6.154  13.836  1.3177 -1.6249 -0.7053
 7093TIP3   OH242769   3.599   1.288  12.205 -0.1165 -0.9543 -0.0462
 7093TIP3    H142770   3.524   1.228  12.207 -0.5966 -0.3402  0.6547
 7093TIP3    H242771   3.667   1.239  12.158 -0.3888 -2.1701  0.8058
 7094TIP3   OH242772   2.852   0.867  16.967  0.1676  0.0590 -0.6148
 7094TIP3    H142773   2.818   0.900  16.883  0.2760  0.3092 -0.5635
 7094TIP3    H242774   2.834   0.773  16.965 -0.8831  0.2500 -0.4244
 7095TIP3   OH242775   0.502   3.136  16.516 -0.5120 -0.2630  0.3344
 7095TIP3    H142776   0.424   3.187  16.495 -1.0369 -1.2808 -0.2257
 7095TIP3    H242777   0.469   3.064  16.571 -0.0129 -0.8474 -0.1274
 7096TIP3   OH242778   1.239   3.216  11.962 -0.2556  0.7769 -0.1579
 7096TIP3    H142779   1.273   3.184  11.879  1.1313 -0.8167  0.9927
 7096TIP3    H242780   1.222   3.137  12.013 -1.3620  1.7248  0.9663
 7097TIP3   OH242781   3.433   2.581   2.269  0.3220 -0.2420  0.0193
 7097TIP3    H142782   3.488   2.533   2.330  1.9778 -0.1989 -1.3991
 7097TIP3    H242783   3.494   2.639   2.223 -0.9414 -0.0467 -1.4333
 7098TIP3   OH242784   6.761   1.836  11.373  0.0449  0.3742  0.2417
 7098TIP3    H142785   6.703   1.762  11.390  0.6190 -0.3679 -0.9267
 7098TIP3    H242786   6.703   1.907  11.348 -0.2859 -0.9094 -2.8187
 7099TIP3   OH242787   2.828   0.624  10.462 -0.1795 -0.0447 -0.2292
 7099TIP3    H142788   2.739   0.591  10.472  0.0150  0.3250  3.6831
 7099TIP3    H242789   2.880   0.547  10.442 -0.8453 -0.9463  1.3532
 7100TIP3   OH242790   0.274   1.405  16.358  0.2715  0.3668  0.1365
 7100TIP3    H142791   0.292   1.418  16.452 -2.3373  1.4286  0.5602
 7100TIP3    H242792   0.299   1.488  16.318  1.3224 -0.0634 -0.1090
 7101TIP3   OH242793   3.354   1.482   2.522 -0.1445  0.1368  0.4197
 7101TIP3    H142794   3.432   1.533   2.542 -0.0942 -0.7036  2.5948
 7101TIP3    H242795   3.383   1.391   2.528 -1.4601 -0.2026  2.1738
 7102TIP3   OH242796   1.754   3.244   0.950  0.3790 -0.2793 -0.3856
 7102TIP3    H142797   1.839   3.279   0.978  1.7791 -3.2396 -0.7623
 7102TIP3    H242798   1.749   3.266   0.857  2.2924 -2.9792 -1.1718
 7103TIP3   OH242799   1.765   2.773  11.681  0.0816 -0.3788  0.0626
 7103TIP3    H142800   1.811   2.717  11.618 -0.5444 -0.2939 -0.4784
 7103TIP3    H242801   1.761   2.858  11.637  2.8045  0.6614  1.7028
 7104TIP3   OH242802   5.916   6.696   0.091 -0.1954 -0.0415  0.0697
 7104TIP3    H142803   5.888   6.616   0.046  1.1311 -0.5042  0.0673
 7104TIP3    H242804   5.843   6.756   0.078 -1.6056 -1.5331  0.8275
 7105TIP3   OH242805   1.505   3.802  15.747 -0.0599  0.2876 -0.0833
 7105TIP3    H142806   1.564   3.861  15.700  0.4696 -0.8448 -0.8695
 7105TIP3    H242807   1.433   3.787  15.686  0.2269 -0.5530 -0.2095
 7106TIP3   OH242808   1.444   4.443   3.817  0.3041  0.1408  0.0436
 7106TIP3    H142809   1.514   4.502   3.789  0.3826 -0.1377 -0.3431
 7106TIP3    H242810   1.487   4.358   3.830  0.3223  0.3200  1.2543
 7107TIP3   OH242811   1.360   0.199   4.626 -0.4263 -0.3536 -0.0901
 7107TIP3    H142812   1.371   0.106   4.609  0.6217 -0.1245 -0.7507
 7107TIP3    H242813   1.388   0.211   4.717  0.1992 -0.5668 -0.2510
 7108TIP3   OH242814   0.428   2.704   0.282 -0.3709 -0.5829 -0.0141
 7108TIP3    H142815   0.429   2.798   0.264  0.6755 -0.3693  1.1430
 7108TIP3    H242816   0.498   2.669   0.228 -1.1792 -0.8072 -0.9409
 7109TIP3   OH242817   5.946   3.609  13.073 -0.4316 -0.7863 -0.9364
 7109TIP3    H142818   6.041   3.604  13.088 -0.8446 -1.5997  1.4619
 7109TIP3    H242819   5.923   3.699  13.098 -0.3322 -0.6300 -1.3943
 7110TIP3   OH242820   2.370   0.461  14.410 -0.5263 -0.4464 -0.4910
 7110TIP3    H142821   2.326   0.376  14.398 -1.2052 -0.0862 -0.5940
 7110TIP3    H242822   2.457   0.439  14.441 -1.1570 -1.1444  0.8398
 7111TIP3   OH242823   4.336   6.145  16.077 -0.1450  0.5128  0.2772
 7111TIP3    H142824   4.254   6.139  16.029  0.6923 -1.0165 -0.9953
 7111TIP3    H242825   4.378   6.060  16.066  1.5654  1.2181  0.9949
 7112TIP3   OH242826   0.976   2.043   5.163  0.0998  0.2331 -0.1294
 7112TIP3    H142827   0.921   1.964   5.171 -0.5737  0.6295 -0.7437
 7112TIP3    H242828   0.944   2.101   5.232 -0.3877  0.5408 -0.6120
 7113TIP3   OH242829   4.053   3.944  13.931 -0.5036  0.0118  0.4005
 7113TIP3    H142830   3.992   3.872  13.947 -1.8273  1.0327  0.1081
 7113TIP3    H242831   4.132   3.903  13.897 -1.3796 -1.2564 -0.1219
 7114TIP3   OH242832   1.599   1.679   6.577  0.2932  0.6289 -0.3252
 7114TIP3    H142833   1.547   1.649   6.652  0.5447  0.9882 -0.0116
 7114TIP3    H242834   1.612   1.772   6.592  1.4899  0.4300 -0.1417
 7115TIP3   OH242835   1.405   2.451   5.222  0.3615 -0.1301  0.6131
 7115TIP3    H142836   1.435   2.539   5.245  0.3059 -0.1722  0.8478
 7115TIP3    H242837   1.399   2.405   5.306 -0.5561 -0.0582  0.5899
 7116TIP3   OH242838   6.221   0.053  12.723 -0.0310  0.6505  0.3371
 7116TIP3    H142839   6.198   0.106  12.647  0.4978  0.8404  0.3001
 7116TIP3    H242840   6.138   0.034  12.766 -0.5556 -1.2537 -1.4424
 7117TIP3   OH242841   5.068   5.855  15.841 -0.3165 -0.1790 -0.7516
 7117TIP3    H142842   5.007   5.782  15.857  2.0020 -1.9956  0.0830
 7117TIP3    H242843   5.148   5.830  15.888  1.0167  2.2422 -1.6693
 7118TIP3   OH242844   2.048   0.317  12.024 -0.3630  0.2951  0.1970
 7118TIP3    H142845   2.080   0.242  11.974  2.5684 -0.5685  3.1662
 7118TIP3    H242846   2.017   0.379  11.957  0.6526 -2.0000 -2.5052
 7119TIP3   OH242847   4.540   6.340   3.047  0.3610 -0.6083  0.1764
 7119TIP3    H142848   4.462   6.348   3.103  0.2787 -2.3838  0.3628
 7119TIP3    H242849   4.539   6.418   2.993 -0.5508  0.2792  1.4430
 7120TIP3   OH242850   1.568   6.089   0.754  0.8465  0.0646 -0.6131
 7120TIP3    H142851   1.559   6.155   0.823  2.1813 -0.7177  0.3162
 7120TIP3    H242852   1.511   6.017   0.782 -1.5424  1.2331 -2.2057
 7121TIP3   OH242853   6.290   4.863   2.258  0.4091  0.2029  0.0044
 7121TIP3    H142854   6.316   4.894   2.344 -0.9278  0.9282  0.1563
 7121TIP3    H242855   6.197   4.886   2.251  0.3983 -0.2362 -1.4515
 7122TIP3   OH242856   2.185   2.977   3.759  0.2870 -0.6134  0.5659
 7122TIP3    H142857   2.161   3.012   3.673  0.4871  1.3008  1.2620
 7122TIP3    H242858   2.107   2.930   3.789  0.0045 -0.7660 -0.3933
 7123TIP3   OH242859   5.660   3.987   1.035 -0.2576 -0.0290  0.4777
 7123TIP3    H142860   5.742   3.956   1.075 -0.2460 -0.3237  0.2318
 7123TIP3    H242861   5.651   3.934   0.956 -0.6373  0.0693  0.4543
 7124TIP3   OH242862   2.063   3.612  15.214  0.5938  0.1074  0.2786
 7124TIP3    H142863   2.041   3.655  15.131  1.5421 -1.4551 -0.8190
 7124TIP3    H242864   2.065   3.519  15.192  0.7641 -0.3306  2.1019
 7125TIP3   OH242865   0.403   6.322  14.836 -0.1415 -0.0296 -0.1967
 7125TIP3    H142866   0.360   6.254  14.785 -0.6986  0.2740 -0.1389
 7125TIP3    H242867   0.477   6.350  14.781  1.1912 -1.9514  0.5809
 7126TIP3   OH242868   5.978   6.081   6.130 -0.3417  0.1502  0.2422
 7126TIP3    H142869   6.057   6.029   6.113 -0.6317  0.4209 -2.1137
 7126TIP3    H242870   6.006   6.149   6.191  0.9553 -0.5095  0.3895
 7127TIP3   OH242871   5.589   0.215  13.599  0.1996  0.0553  0.5830
 7127TIP3    H142872   5.682   0.192  13.600  0.3408  0.5145 -1.0273
 7127TIP3    H242873   5.548   0.144  13.550 -0.4039 -0.4817  1.8430
 7128TIP3   OH242874   5.167   2.558  16.356  0.0754 -0.0776 -0.3040
 7128TIP3    H142875   5.222   2.501  16.410  0.3927 -0.3107 -0.8707
 7128TIP3    H242876   5.202   2.646  16.370 -0.2495 -0.0523  0.3691
 7129TIP3   OH242877   4.628   1.408  17.284 -0.0176 -0.3916  0.1451
 7129TIP3    H142878   4.602   1.325  17.324 -0.0695 -1.4782 -2.0953
 7129TIP3    H242879   4.562   1.424  17.217 -0.0485  1.5113  0.6069
 7130TIP3   OH242880   5.498   2.005  13.821  0.3350  0.0881  0.0873
 7130TIP3    H142881   5.481   1.912  13.837  1.5396 -0.3791 -1.2169
 7130TIP3    H242882   5.568   2.028  13.882  2.2788 -0.7145 -1.7734
 7131TIP3   OH242883   4.111   5.160  11.781 -0.0632  0.1229  0.0228
 7131TIP3    H142884   4.155   5.228  11.730  2.9656 -0.3621  1.8518
 7131TIP3    H242885   4.144   5.078  11.746 -0.5272 -0.3078  0.5807
 7132TIP3   OH242886   1.426   6.484   4.231  0.0411  0.5019  0.1733
 7132TIP3    H142887   1.458   6.549   4.168 -1.4724 -1.1408 -2.4016
 7132TIP3    H242888   1.504   6.437   4.259  0.6241  0.4332 -1.4994
 7133TIP3   OH242889   0.766   3.163  14.516  0.3947 -0.2303  0.6253
 7133TIP3    H142890   0.843   3.141  14.464 -0.5175  1.2608 -1.3917
 7133TIP3    H242891   0.718   3.227  14.464 -2.5064 -1.5242  1.5990
 7134TIP3   OH242892   3.285   2.522  15.488  0.3444 -0.1247 -0.3639
 7134TIP3    H142893   3.306   2.432  15.511 -0.2563 -1.1326 -3.4330
 7134TIP3    H242894   3.198   2.517  15.448 -0.0432  1.9439  0.1510
 7135TIP3   OH242895   1.069   0.786  17.206  0.3288  0.3686  0.0451
 7135TIP3    H142896   1.122   0.760  17.281  0.0700  2.3509  0.9536
 7135TIP3    H242897   1.004   0.717  17.198  1.1669 -0.5339  0.8272
 7136TIP3   OH242898   6.743   3.812   2.413  0.3573  0.7080  0.3705
 7136TIP3    H142899   6.706   3.727   2.391  2.9170 -0.5426  0.7634
 7136TIP3    H242900   6.727   3.822   2.506 -1.9450  1.7014 -0.1010
 7137TIP3   OH242901   4.886   1.318   3.664 -0.3991 -0.6108  0.7574
 7137TIP3    H142902   4.898   1.383   3.734  1.5510  0.8529 -0.8682
 7137TIP3    H242903   4.957   1.256   3.677 -1.0433 -1.2883  1.0688
 7138TIP3   OH242904   0.919   6.168   1.471  0.0188  0.2084  0.6684
 7138TIP3    H142905   0.834   6.180   1.514  0.1915  0.5653  0.9120
 7138TIP3    H242906   0.953   6.257   1.461 -1.2501  0.4225 -2.7011
 7139TIP3   OH242907   4.647   2.014   0.591 -0.0988 -0.4880  0.0976
 7139TIP3    H142908   4.663   1.955   0.517 -0.1681 -0.6825  0.2383
 7139TIP3    H242909   4.571   2.065   0.564 -0.4727 -0.9530  0.2736
 7140TIP3   OH242910   3.782   0.144  16.676  0.7056  0.4574  0.3145
 7140TIP3    H142911   3.729   0.212  16.635  0.9553  0.2171 -0.4248
 7140TIP3    H242912   3.836   0.190  16.740  1.5549  1.1050 -0.8418
 7141TIP3   OH242913   2.415   6.636   1.472 -0.3165 -0.0780 -0.1734
 7141TIP3    H142914   2.480   6.672   1.412  0.2094  0.5759  0.7806
 7141TIP3    H242915   2.430   6.541   1.470  0.3247  0.0291 -0.3391
 7142TIP3   OH242916   5.102   1.839  15.489  0.1866 -1.1333  0.2559
 7142TIP3    H142917   5.101   1.908  15.556 -1.9828 -2.4198  1.6153
 7142TIP3    H242918   5.192   1.805  15.491  0.5276 -0.1889  1.5366
 7143TIP3   OH242919   3.242   2.058   2.724  0.1747 -0.4493  0.0992
 7143TIP3    H142920   3.251   2.095   2.636  0.2848  0.1483  0.3618
 7143TIP3    H242921   3.328   2.071   2.764 -0.2615  0.4848  0.7585
 7144TIP3   OH242922   4.443   1.193   3.444  0.0090  0.0439  0.6191
 7144TIP3    H142923   4.463   1.283   3.417  1.4967 -0.5215 -0.2565
 7144TIP3    H242924   4.511   1.172   3.508  1.0639 -1.2363 -0.8930
 7145TIP3   OH242925   0.966   0.468   5.837 -0.2525  0.1327 -0.0372
 7145TIP3    H142926   1.033   0.500   5.897 -0.1821 -0.1005  0.0081
 7145TIP3    H242927   0.898   0.536   5.839 -0.5258 -0.1650  0.7763
 7146TIP3   OH242928   6.481   1.433  13.227  0.2559  0.5951 -0.1176
 7146TIP3    H142929   6.463   1.492  13.300 -0.6127  1.7090 -1.2194
 7146TIP3    H242930   6.395   1.407  13.195  0.6200 -1.4201  0.4505
 7147TIP3   OH242931   4.315   3.609   4.253  0.4290  0.5421 -0.3080
 7147TIP3    H142932   4.364   3.616   4.172  1.9919 -1.8781  0.3820
 7147TIP3    H242933   4.374   3.563   4.313 -0.8494  1.9071  2.0717
 7148TIP3   OH242934   2.312   0.613   1.840  0.6830 -0.4305  0.0931
 7148TIP3    H142935   2.391   0.663   1.820  0.3839 -0.0279 -0.1089
 7148TIP3    H242936   2.343   0.533   1.881  1.2740 -0.9413 -1.3150
 7149TIP3   OH242937   1.071   3.059   4.217 -0.4402  0.2101 -0.3367
 7149TIP3    H142938   1.036   3.124   4.158  3.2797  2.5635 -0.1233
 7149TIP3    H242939   1.079   2.980   4.164 -0.0969  1.4012 -2.0825
 7150TIP3   OH242940   4.553   6.539   6.020 -0.2075 -0.3819  0.7376
 7150TIP3    H142941   4.528   6.537   6.112  1.1782 -0.6353  1.1089
 7150TIP3    H242942   4.648   6.550   6.020 -0.0579 -1.4502 -0.6508
 7151TIP3   OH242943   4.879   5.766   5.515  0.8130 -0.5149  0.6556
 7151TIP3    H142944   4.803   5.709   5.523 -0.6243  0.9332 -2.1095
 7151TIP3    H242945   4.864   5.835   5.580  0.1727 -0.6923  0.7005
 7152TIP3   OH242946   3.165   5.444   0.584 -0.0639 -0.4426  0.4936
 7152TIP3    H142947   3.225   5.388   0.633 -1.3562 -2.6620 -0.4035
 7152TIP3    H242948   3.082   5.439   0.632  0.1881  1.9830  1.2835
 7153TIP3   OH242949   4.680   5.098   4.453 -0.3105 -0.2676 -0.6546
 7153TIP3    H142950   4.750   5.123   4.513 -0.7188  0.1264 -0.3353
 7153TIP3    H242951   4.725   5.056   4.379  0.3039  0.4407 -0.6911
 7154TIP3   OH242952   2.769   3.728   2.673 -0.1899 -0.0205 -0.4935
 7154TIP3    H142953   2.681   3.713   2.708  0.9091 -1.7574  1.6243
 7154TIP3    H242954   2.755   3.784   2.596 -2.9246  1.4751  1.0256
 7155TIP3   OH242955   1.332   1.337   0.304  0.4032 -0.2073 -0.0103
 7155TIP3    H142956   1.417   1.292   0.305  0.9663  0.8389 -0.4601
 7155TIP3    H242957   1.277   1.283   0.248  1.0806 -0.3346 -0.5553
 7156TIP3   OH242958   0.937   0.445  15.319 -0.1214  0.0443  0.3008
 7156TIP3    H142959   0.866   0.381  15.324 -1.2071  1.0225 -1.9404
 7156TIP3    H242960   0.919   0.495  15.239  1.4048  2.3080  1.3227
 7157TIP3   OH242961   6.746   6.062  13.896  0.0141 -0.2550  0.0463
 7157TIP3    H142962   6.687   6.112  13.840 -0.6177  0.0106  0.9239
 7157TIP3    H242963   6.799   6.010  13.836  1.1923  1.9887 -0.9413
 7158TIP3   OH242964   3.760   0.629  13.559  0.1434 -0.2423 -0.8921
 7158TIP3    H142965   3.813   0.564  13.514  0.2291 -1.1171  0.4542
 7158TIP3    H242966   3.670   0.609  13.534  0.3078  0.1518 -1.7893
 7159TIP3   OH242967   2.491   1.544   3.068  0.8313  0.4845 -0.2405
 7159TIP3    H142968   2.520   1.482   3.136 -0.2079  0.3638  0.0922
 7159TIP3    H242969   2.543   1.520   2.991  0.4364 -0.8131 -0.1156
 7160TIP3   OH242970   4.301   5.223   0.398 -0.3201  0.0892 -0.1812
 7160TIP3    H142971   4.315   5.292   0.334  0.8367 -0.9223 -1.0568
 7160TIP3    H242972   4.324   5.262   0.482 -1.3927  1.2792 -0.4309
 7161TIP3   OH242973   1.217   1.078   3.056 -0.0127  0.1799  0.0006
 7161TIP3    H142974   1.205   1.120   3.141  0.2740 -1.1052  0.6696
 7161TIP3    H242975   1.269   1.141   3.006  1.6154  0.0308  1.4670
 7162TIP3   OH242976   1.359   5.261   1.613  0.2110 -0.3882 -0.6621
 7162TIP3    H142977   1.322   5.307   1.537  0.3913 -2.9502 -2.3838
 7162TIP3    H242978   1.453   5.276   1.606  0.0025  1.6281  0.6267
 7163TIP3   OH242979   0.115   2.775   3.521  0.1022 -0.0520 -0.4865
 7163TIP3    H142980   0.148   2.837   3.456  1.0998  0.3010  0.3283
 7163TIP3    H242981   0.045   2.728   3.477 -0.8045  1.7878 -1.0870
 7164TIP3   OH242982   4.853   3.483   4.631  0.0730 -0.0695 -0.0385
 7164TIP3    H142983   4.839   3.473   4.537  0.2503  0.2902 -0.1006
 7164TIP3    H242984   4.785   3.545   4.659  1.1784  1.2530 -0.2454
 7165TIP3   OH242985   6.237   1.770  13.498 -0.3384  0.2963 -0.6172
 7165TIP3    H142986   6.201   1.727  13.575 -2.4852  0.9361 -1.2152
 7165TIP3    H242987   6.283   1.847  13.532  3.2949 -2.2339  0.4303
 7166TIP3   OH242988   5.709   3.612   2.127  0.3000  0.1706  0.4298
 7166TIP3    H142989   5.721   3.558   2.205 -0.4211  0.1277  0.5180
 7166TIP3    H242990   5.650   3.561   2.071 -1.9279  1.6747  1.3360
 7167TIP3   OH242991   2.372   5.354  16.254  0.3552 -0.2176 -0.1613
 7167TIP3    H142992   2.282   5.360  16.223  0.5281  1.4582 -0.3473
 7167TIP3    H242993   2.414   5.294  16.192 -0.9656 -2.1347  0.7527
 7168TIP3   OH242994   0.138   5.192   5.743 -0.2786 -0.1751 -0.0729
 7168TIP3    H142995   0.063   5.230   5.697 -1.6117 -1.1049  1.2746
 7168TIP3    H242996   0.196   5.161   5.673 -1.2716  0.3092 -1.1338
 7169TIP3   OH242997   1.158   1.220   5.612 -0.1336  0.6897 -0.3309
 7169TIP3    H142998   1.063   1.223   5.607 -0.1582 -0.4614 -0.7050
 7169TIP3    H242999   1.176   1.198   5.704 -0.2198  1.0436 -0.2278
 7170TIP3   OH243000   3.843   2.247  11.629  0.8777  0.0090  0.3237
 7170TIP3    H143001   3.788   2.321  11.601  0.9078  0.2113  0.7866
 7170TIP3    H243002   3.864   2.201  11.549 -0.1898 -0.2233  0.1651
 7171TIP3   OH243003   4.672   3.967   2.720 -0.6073  0.5723  0.2033
 7171TIP3    H143004   4.610   3.895   2.709  0.4425 -0.5555  1.5547
 7171TIP3    H243005   4.682   3.977   2.814  0.4814  1.4339  0.0144
 7172TIP3   OH243006   3.156   3.079   5.309 -0.0396  0.7411  0.2103
 7172TIP3    H143007   3.154   3.014   5.238  0.2035  1.7293 -0.7161
 7172TIP3    H243008   3.147   3.027   5.389 -1.2747 -0.3146 -0.5871
 7173TIP3   OH243009   3.140   4.533   2.402  0.2920 -0.0347 -0.7812
 7173TIP3    H143010   3.127   4.628   2.405 -1.8924 -0.3786  2.1256
 7173TIP3    H243011   3.080   4.503   2.334  0.5346  0.5646 -1.2685
 7174TIP3   OH243012   5.842   2.530   5.784  0.3136 -0.1056 -0.1035
 7174TIP3    H143013   5.912   2.466   5.797  0.4042  0.2253  1.1745
 7174TIP3    H243014   5.882   2.599   5.732  0.8326 -0.1120  0.2731
 7175TIP3   OH243015   5.116   1.154  16.379  0.4004 -0.4168 -0.0829
 7175TIP3    H143016   5.116   1.232  16.324  0.9144 -0.5543 -0.2812
 7175TIP3    H243017   5.161   1.088  16.327 -0.0455 -0.8515  0.0773
 7176TIP3   OH243018   6.795   5.985   2.375  0.1298 -0.2222  0.1903
 7176TIP3    H143019   6.766   6.041   2.302 -0.6020 -0.9667 -0.1061
 7176TIP3    H243020   6.888   5.970   2.359  0.0330 -0.1582 -0.4529
 7177TIP3   OH243021   3.115   1.429   2.649  0.0149  1.0113  0.0659
 7177TIP3    H143022   3.085   1.339   2.654  0.4253  0.8561 -0.1922
 7177TIP3    H243023   3.172   1.431   2.572  0.9179  1.2105  0.7184
 7178TIP3   OH243024   3.870   6.649   3.320 -0.1055  0.3412  0.6103
 7178TIP3    H143025   3.864   6.636   3.225 -0.1220 -1.5600  0.8595
 7178TIP3    H243026   3.783   6.677   3.346  0.5279  3.3176 -0.2710
 7179TIP3   OH243027   1.872   4.001   6.088 -0.0332 -0.4255 -0.2440
 7179TIP3    H143028   1.855   3.984   6.181  0.9082 -0.2942 -0.0374
 7179TIP3    H243029   1.948   4.058   6.088 -0.3881  0.0582 -1.0865
 7180TIP3   OH243030   4.356   6.623   4.749  0.3583 -0.1036  0.1443
 7180TIP3    H143031   4.304   6.576   4.814  2.2402 -3.5061 -0.6915
 7180TIP3    H243032   4.304   6.616   4.668  1.3914 -2.2684 -0.3630
 7181TIP3   OH243033   3.608   0.885  12.491 -0.2575  1.0116  0.7318
 7181TIP3    H143034   3.522   0.925  12.479  0.0821  1.3332 -0.8083
 7181TIP3    H243035   3.670   0.957  12.477  0.2680  0.8260  2.0279
 7182TIP3   OH243036   5.509   2.453   4.788 -0.1426 -0.0054  0.2793
 7182TIP3    H143037   5.580   2.517   4.782 -0.4334  0.2097 -0.9843
 7182TIP3    H243038   5.441   2.499   4.839 -0.2301  0.6001 -0.3647
 7183TIP3   OH243039   3.763   2.317   0.773 -0.3149  0.1868 -0.3988
 7183TIP3    H143040   3.729   2.263   0.844  2.1414 -1.5327 -0.4751
 7183TIP3    H243041   3.690   2.325   0.712 -1.0772 -2.1407  0.1551
 7184TIP3   OH243042   1.556   4.617   5.240 -0.0261 -0.0541 -0.3670
 7184TIP3    H143043   1.607   4.553   5.289 -1.8622 -1.9321 -0.8188
 7184TIP3    H243044   1.474   4.626   5.290 -1.0828 -0.4805 -1.9898
 7185TIP3   OH243045   4.004   6.123   0.152  0.1341  0.0875 -0.5638
 7185TIP3    H143046   3.992   6.059   0.222 -0.4074 -0.8860 -1.5274
 7185TIP3    H243047   3.916   6.141   0.119  0.1312  2.4139  0.6130
 7186TIP3   OH243048   2.715   2.895   1.468 -0.3689 -0.1365 -0.0281
 7186TIP3    H143049   2.731   2.922   1.378 -0.5588 -0.0006 -0.0218
 7186TIP3    H243050   2.634   2.940   1.493 -0.1718  0.0397  0.2991
 7187TIP3   OH243051   5.406   5.024  11.009 -0.2863  0.5606  0.0409
 7187TIP3    H143052   5.439   5.112  10.997  0.9938  0.3330  1.7505
 7187TIP3    H243053   5.476   4.967  10.978  0.0245  0.1099  1.5364
 7188TIP3   OH243054   6.279   3.143  14.855 -0.1283 -0.2175 -0.1885
 7188TIP3    H143055   6.298   3.088  14.779 -1.5498  1.4665 -1.8330
 7188TIP3    H243056   6.191   3.118  14.882 -0.6994  1.0372 -0.8140
 7189TIP3   OH243057   4.125   5.132   5.550 -0.2572 -0.0516  0.5254
 7189TIP3    H143058   4.201   5.082   5.579  0.0192  1.3328  2.2352
 7189TIP3    H243059   4.077   5.153   5.630 -1.5114  0.5742 -0.3702
 7190TIP3   OH243060   1.436   3.635  13.837 -0.0409 -0.0106  0.3867
 7190TIP3    H143061   1.345   3.641  13.808 -0.8476  0.3085  2.9410
 7190TIP3    H243062   1.483   3.601  13.760 -1.9039  1.9434 -1.6865
 7191TIP3   OH243063   6.566   4.581   4.234  0.4353 -0.1990  0.2299
 7191TIP3    H143064   6.498   4.517   4.253 -0.7637  0.9173 -0.1959
 7191TIP3    H243065   6.548   4.610   4.145 -0.3806  2.2523  1.1202
 7192TIP3   OH243066   3.627   5.056  13.606 -0.5104  0.5166 -0.4194
 7192TIP3    H143067   3.720   5.033  13.613 -0.6947 -0.0057  0.3331
 7192TIP3    H243068   3.608   5.102  13.688 -0.7612  1.1989 -0.8530
 7193TIP3   OH243069   4.191   1.799   5.144 -0.2204  0.3657 -0.2569
 7193TIP3    H143070   4.114   1.821   5.092 -0.4490 -0.3697 -0.2325
 7193TIP3    H243071   4.177   1.708   5.170  1.2924 -0.1969 -1.3648
 7194TIP3   OH243072   5.547   6.332   5.368  0.4799 -0.3862 -0.2889
 7194TIP3    H143073   5.537   6.243   5.336  1.0804 -0.3098 -0.7034
 7194TIP3    H243074   5.622   6.328   5.427 -0.0380 -0.3316  0.3819
 7195TIP3   OH243075   5.304   4.406  16.447  0.0827 -0.9344  0.2464
 7195TIP3    H143076   5.355   4.446  16.518  0.3493 -0.1051 -0.4079
 7195TIP3    H243077   5.369   4.387  16.379 -0.4316 -0.0729 -0.5043
 7196TIP3   OH243078   3.059   1.135  16.723  0.0412  0.7083 -0.5641
 7196TIP3    H143079   3.050   1.041  16.735 -1.5486  0.9543  0.2847
 7196TIP3    H243080   3.153   1.151  16.725  0.2612 -0.6693  0.7824
 7197TIP3   OH243081   6.704   5.399   3.448 -0.1225 -0.3590  0.0717
 7197TIP3    H143082   6.684   5.438   3.534 -0.1929  1.4499 -0.7445
 7197TIP3    H243083   6.790   5.359   3.460  0.1440  0.4022  0.8339
 7198TIP3   OH243084   6.441   4.975  10.660 -0.0610 -0.1767 -0.7681
 7198TIP3    H143085   6.453   5.036  10.587 -1.0918  0.3177 -0.5265
 7198TIP3    H243086   6.369   5.012  10.711  3.2511  1.6022  2.7572
 7199TIP3   OH243087   0.143   4.260   3.817 -0.3265  0.5042  0.1541
 7199TIP3    H143088   0.121   4.349   3.845  1.1217  0.4159  1.6119
 7199TIP3    H243089   0.159   4.268   3.723 -0.8578  1.6476  0.1473
 7200TIP3   OH243090   2.913   0.191   4.467 -0.3314  0.2861 -0.6333
 7200TIP3    H143091   2.881   0.260   4.409 -3.5894  1.1156  1.9238
 7200TIP3    H243092   2.866   0.113   4.440  0.4005 -0.0156 -1.0292
 7201TIP3   OH243093   0.881   4.798   2.954  0.2693 -0.6049  0.0825
 7201TIP3    H143094   0.888   4.801   3.050 -2.9165  2.0806  0.3179
 7201TIP3    H243095   0.859   4.706   2.935  0.1632 -1.0115  2.0114
 7202TIP3   OH243096   5.915   5.101  13.178  0.5142  0.1130  0.3607
 7202TIP3    H143097   5.908   5.013  13.142 -1.1569  0.1122  0.6285
 7202TIP3    H243098   5.930   5.157  13.102  1.9228 -0.4317  0.2254
 7203TIP3   OH243099   1.986   6.464   4.706 -0.4035 -0.3949  0.4095
 7203TIP3    H143100   1.956   6.455   4.615  0.7276 -0.3315  0.0181
 7203TIP3    H243101   2.081   6.461   4.700 -0.2451  1.8473  1.3612
 7204TIP3   OH243102   4.414   4.643  13.200 -0.2080  0.4083  0.1633
 7204TIP3    H143103   4.347   4.692  13.153 -0.5012  0.5124  0.6783
 7204TIP3    H243104   4.463   4.710  13.248 -0.4979  0.2214  0.7298
 7205TIP3   OH243105   1.947   1.222  12.735  0.2584 -0.6169  0.5579
 7205TIP3    H143106   1.962   1.316  12.727 -1.9208 -0.3397 -0.5363
 7205TIP3    H243107   1.959   1.204  12.828  4.0897  0.0905  0.2874
 7206TIP3   OH243108   0.709   0.139  13.991  0.6340  0.0428  0.6859
 7206TIP3    H143109   0.767   0.070  13.957  1.4425  0.1979  1.7055
 7206TIP3    H243110   0.660   0.096  14.061 -1.6116 -0.4968 -1.1430
 7207TIP3   OH243111   4.023   2.192   3.296 -0.6928  0.7213  0.2131
 7207TIP3    H143112   3.991   2.113   3.340 -0.0965 -0.2746 -1.1111
 7207TIP3    H243113   3.951   2.254   3.302 -1.8706 -0.5700 -0.3638
 7208TIP3   OH243114   3.748   1.361   5.824 -0.4994  0.1578 -0.4029
 7208TIP3    H143115   3.675   1.369   5.764  0.3545  0.9950 -1.3490
 7208TIP3    H243116   3.725   1.287   5.880 -1.3344 -0.5963 -1.7126
 7209TIP3   OH243117   1.668   4.853   4.228  0.4660 -0.0837 -0.3589
 7209TIP3    H143118   1.757   4.841   4.262 -1.4430 -3.2391  3.9855
 7209TIP3    H243119   1.657   4.782   4.164  0.2554 -1.3791  1.0729
 7210TIP3   OH243120   2.951   1.855  15.149 -0.9656 -0.1480 -0.1373
 7210TIP3    H143121   3.001   1.913  15.207 -0.7910 -0.7990  0.3702
 7210TIP3    H243122   2.925   1.782  15.204  0.1303 -1.3166 -1.1250
 7211TIP3   OH243123   0.178   3.337  12.612 -0.5189  0.6014 -0.1951
 7211TIP3    H143124   0.248   3.382  12.659 -0.8276  3.8351 -2.6305
 7211TIP3    H243125   0.223   3.288  12.543 -0.5244  1.5762 -0.9041
 7212TIP3   OH243126   0.162   1.870  15.692  1.0945  0.6000  0.4495
 7212TIP3    H143127   0.164   1.779  15.663  1.5215  0.0791  2.0572
 7212TIP3    H243128   0.254   1.898  15.688  0.9750  0.9382  0.0340
 7213TIP3   OH243129   5.771   0.183   5.030 -0.0297 -0.0382  0.2018
 7213TIP3    H143130   5.737   0.106   4.985 -0.2394  0.1993 -0.0462
 7213TIP3    H243131   5.839   0.217   4.972 -3.1841  2.7782 -2.0765
 7214TIP3   OH243132   1.165   3.180   1.015 -0.2119 -0.1568 -0.1269
 7214TIP3    H143133   1.216   3.156   0.938  0.9412  0.5509  0.4038
 7214TIP3    H243134   1.230   3.205   1.080 -1.0657 -2.9345  1.8609
 7215TIP3   OH243135   2.058   2.431   2.997  0.4286 -0.3219 -0.3481
 7215TIP3    H143136   2.048   2.495   2.927 -0.8397 -0.4524 -0.2850
 7215TIP3    H243137   1.975   2.385   3.000  0.5880 -0.5408  1.0286
 7216TIP3   OH243138   0.843   3.113   5.677  0.1070  0.0900 -0.6123
 7216TIP3    H143139   0.846   3.073   5.590 -0.8739 -0.8588 -0.2174
 7216TIP3    H243140   0.901   3.060   5.731 -0.2896 -0.0962 -0.3700
 7217TIP3   OH243141   3.203   2.237   2.964  0.4249 -0.1026  0.2167
 7217TIP3    H143142   3.208   2.145   2.941  2.8716 -0.0721  0.4338
 7217TIP3    H243143   3.209   2.283   2.881 -0.9970 -0.1240  0.0907
 7218TIP3   OH243144   3.378   4.211  16.095  0.1190 -0.7155  0.3700
 7218TIP3    H143145   3.336   4.254  16.169  1.9090  0.0815  0.9692
 7218TIP3    H243146   3.407   4.283  16.039 -0.3930 -1.2863 -0.6356
 7219TIP3   OH243147   3.653   0.946  16.066 -0.0711 -0.4155  0.1067
 7219TIP3    H143148   3.669   0.852  16.067  0.2686 -0.3609 -0.4001
 7219TIP3    H243149   3.722   0.982  16.010 -0.8130  0.0259 -0.5237
 7220TIP3   OH243150   2.489   1.087  12.566  0.5638 -0.5424  0.4838
 7220TIP3    H143151   2.560   1.102  12.504  0.1922 -1.4961 -0.1704
 7220TIP3    H243152   2.466   0.995  12.555 -1.1123 -0.1205  0.3376
 7221TIP3   OH243153   1.984   3.449  13.469  0.9120 -0.0985 -0.0102
 7221TIP3    H143154   1.991   3.354  13.481  0.3337  0.0031  1.1597
 7221TIP3    H243155   2.062   3.484  13.511  0.8962 -0.0267 -0.0415
 7222TIP3   OH243156   1.433   4.734   4.430 -0.0915 -0.1203 -0.2055
 7222TIP3    H143157   1.514   4.781   4.452 -0.8007  1.5648 -1.0273
 7222TIP3    H243158   1.386   4.726   4.513  1.2630 -1.8008  0.4057
 7223TIP3   OH243159   4.809   3.463   5.445 -0.3467 -0.2832 -0.1096
 7223TIP3    H143160   4.771   3.516   5.376 -1.2903 -1.4240 -0.4798
 7223TIP3    H243161   4.792   3.511   5.525  0.7429  1.0415 -0.6577
 7224TIP3   OH243162   6.664   1.540   4.880 -0.2332 -0.3364  0.2486
 7224TIP3    H143163   6.599   1.595   4.923 -0.6364 -0.2650 -0.4416
 7224TIP3    H243164   6.651   1.453   4.918 -0.4007 -0.2112  0.4755
 7225TIP3   OH243165   0.644   4.045  12.600  0.3008  0.3941  0.4036
 7225TIP3    H143166   0.665   3.998  12.520 -1.4091  0.1157  0.0952
 7225TIP3    H243167   0.714   4.109  12.610  1.3131 -0.5641 -0.5070
 7226TIP3   OH243168   2.618   5.421  15.857  0.0831  0.1650 -0.0848
 7226TIP3    H143169   2.530   5.450  15.833 -0.4546 -0.9842  0.4715
 7226TIP3    H243170   2.668   5.426  15.776 -0.7314 -0.0501 -0.6090
 7227TIP3   OH243171   3.992   3.882   0.210 -0.4571 -0.5412  0.5967
 7227TIP3    H143172   3.904   3.867   0.244 -0.4715  0.4636  1.0187
 7227TIP3    H243173   4.051   3.844   0.275 -0.6006 -2.1978 -0.2172
 7228TIP3   OH243174   2.740   2.842   2.759 -0.0999 -0.4642  0.2563
 7228TIP3    H143175   2.815   2.838   2.818  1.5069  1.1420 -1.6089
 7228TIP3    H243176   2.749   2.765   2.702  0.9603  0.5166 -0.9138
 7229TIP3   OH243177   6.230   6.071   3.987 -0.2587 -0.0680  0.1776
 7229TIP3    H143178   6.260   6.150   4.032  0.5492 -0.9043  1.1292
 7229TIP3    H243179   6.181   6.104   3.912  2.5986  1.3876 -1.1584
 7230TIP3   OH243180   1.665   0.125   0.959 -0.4387  0.4906  0.3032
 7230TIP3    H143181   1.606   0.200   0.951 -1.2158 -0.0717  0.7176
 7230TIP3    H243182   1.713   0.141   1.040 -0.4871  0.6267  0.3051
 7231TIP3   OH243183   2.315   0.185   5.843  0.3790  0.1066  0.4037
 7231TIP3    H143184   2.396   0.135   5.857  1.7508  1.8182 -1.1441
 7231TIP3    H243185   2.309   0.244   5.918 -0.3106 -1.1325  1.3395
 7232TIP3   OH243186   2.491   0.561  13.320  0.2724 -0.2632 -0.0979
 7232TIP3    H143187   2.479   0.539  13.412  2.5169 -0.9992  0.0612
 7232TIP3    H243188   2.531   0.482  13.282  0.2950  0.3955 -1.4754
 7233TIP3   OH243189   4.453   4.419  12.663 -0.3094 -0.4084  0.3245
 7233TIP3    H143190   4.529   4.428  12.605 -1.9518  1.9150 -1.6059
 7233TIP3    H243191   4.445   4.505  12.704 -0.4798 -1.3848  2.3636
 7234TIP3   OH243192   0.877   2.883   0.099  0.0016  0.3172 -0.0155
 7234TIP3    H143193   0.874   2.931   0.016  0.3589 -0.2012 -0.3307
 7234TIP3    H243194   0.787   2.885   0.131 -0.9655 -2.6601 -2.2574
 7235TIP3   OH243195   1.272   5.097  11.365 -0.0833  0.1365  0.2230
 7235TIP3    H143196   1.318   5.125  11.285  2.2307 -3.2797  0.2329
 7235TIP3    H243197   1.289   5.167  11.428 -1.5554  2.6611 -2.0779
 7236TIP3   OH243198   6.109   1.201  13.763 -0.1008 -0.2228  0.5862
 7236TIP3    H143199   6.117   1.243  13.848 -2.4322 -1.0129  1.2278
 7236TIP3    H243200   6.017   1.214  13.738  1.2860  3.1549 -3.4928
 7237TIP3   OH243201   1.047   6.388   4.469 -0.0056 -0.4581 -0.6126
 7237TIP3    H143202   1.087   6.315   4.516 -0.0063 -0.1043 -0.0593
 7237TIP3    H243203   1.120   6.448   4.451 -0.3993  0.5322  1.0384
 7238TIP3   OH243204   2.657   2.129   3.546  0.5276 -0.6840 -0.1417
 7238TIP3    H143205   2.722   2.101   3.610  1.9206  0.8298 -0.8568
 7238TIP3    H243206   2.612   2.048   3.520 -0.6117 -1.2375  3.2548
 7239TIP3   OH243207   4.283   0.097   0.800  0.5674  0.4259 -0.4094
 7239TIP3    H143208   4.275   0.136   0.713  1.1190  1.1447 -0.1434
 7239TIP3    H243209   4.194   0.069   0.822  0.4871 -0.0609 -1.3422
 7240TIP3   OH243210   5.068   5.038  11.401 -0.4282 -0.3152 -1.0544
 7240TIP3    H143211   5.161   5.061  11.393 -0.6183  0.8200 -0.1469
 7240TIP3    H243212   5.035   5.038  11.311  0.0446  1.0841 -1.2465
 7241TIP3   OH243213   1.411   5.782   3.730  0.6157 -0.3292 -0.5857
 7241TIP3    H143214   1.340   5.782   3.794  1.4372  2.4541  0.3997
 7241TIP3    H243215   1.489   5.758   3.780  0.4027 -3.6007 -1.7108
 7242TIP3   OH243216   5.698   2.715  16.901 -0.1975 -0.4968 -0.1323
 7242TIP3    H143217   5.726   2.679  16.985  1.0752  2.5251  0.8208
 7242TIP3    H243218   5.638   2.786  16.924 -1.8268 -1.2313 -1.9081
 7243TIP3   OH243219   1.982   0.313  14.852 -0.7327  0.3456  0.0798
 7243TIP3    H143220   1.935   0.231  14.838 -0.7838  0.6681 -1.7500
 7243TIP3    H243221   2.015   0.337  14.765  1.7714  0.7612  1.1158
 7244TIP3   OH243222   3.498   3.234   1.940  0.5233 -0.6827  0.1849
 7244TIP3    H143223   3.454   3.319   1.931  0.8029 -0.6572 -0.9538
 7244TIP3    H243224   3.501   3.198   1.852  1.4925 -1.3508  0.4760
 7245TIP3   OH243225   5.149   6.558  15.848  0.1302 -0.1438 -0.7376
 7245TIP3    H143226   5.127   6.487  15.908 -1.1701  1.7018  1.0557
 7245TIP3    H243227   5.227   6.598  15.885  0.2123  0.0515 -1.1137
 7246TIP3   OH243228   6.170   1.450  15.853 -0.0371  0.6033  0.1029
 7246TIP3    H143229   6.251   1.417  15.893 -0.7149 -2.3646 -0.8217
 7246TIP3    H243230   6.200   1.497  15.774  0.7762 -1.2252 -0.7173
 7247TIP3   OH243231   2.858   0.943  14.405 -0.0186  0.0939 -0.2941
 7247TIP3    H143232   2.873   0.931  14.312 -0.4200 -0.3800 -0.2971
 7247TIP3    H243233   2.763   0.938  14.416  0.1952 -2.9165  0.5496
 7248TIP3   OH243234   2.215   1.864  12.781  0.1766 -0.3456 -0.3744
 7248TIP3    H143235   2.287   1.877  12.719  0.4163 -1.1692 -0.2611
 7248TIP3    H243236   2.186   1.774  12.766 -0.1364 -0.3612  0.3181
 7249TIP3   OH243237   2.140   4.061  13.960  0.2727 -0.1605 -0.0161
 7249TIP3    H143238   2.170   3.971  13.960  1.2017  0.1272 -2.0385
 7249TIP3    H243239   2.185   4.101  14.034  0.1129 -1.2583  0.6867
 7250TIP3   OH243240   5.598   4.582   1.310  0.3297  0.3811 -0.4736
 7250TIP3    H143241   5.542   4.659   1.304  1.0452  0.9863  0.4525
 7250TIP3    H243242   5.547   4.512   1.271 -1.2075  0.8348  0.6930
 7251TIP3   OH243243   0.271   2.248  16.753 -0.1257  0.4651  0.5308
 7251TIP3    H143244   0.179   2.221  16.745 -0.2422  1.3566 -1.4940
 7251TIP3    H243245   0.268   2.343  16.744  1.0099  0.4842  0.3261
 7252TIP3   OH243246   3.099   3.581  14.732  0.0431 -0.3002 -0.3805
 7252TIP3    H143247   3.186   3.614  14.757  0.2645 -1.3328  0.2603
 7252TIP3    H243248   3.064   3.647  14.672  0.8819  0.5973  0.1018
 7253TIP3   OH243249   2.598   1.978   6.392 -0.3887  0.9672  0.3447
 7253TIP3    H143250   2.532   1.960   6.459 -1.0179 -1.4802 -0.8681
 7253TIP3    H243251   2.670   1.919   6.413 -1.1792 -0.8829 -1.9110
 7254TIP3   OH243252   5.921   5.908   2.800  0.0746 -0.0444  0.6392
 7254TIP3    H143253   5.900   5.821   2.767  1.1663 -0.3954  0.8601
 7254TIP3    H243254   5.946   5.894   2.891 -0.3325  0.5775  0.8489
 7255TIP3   OH243255   2.302   1.891   4.648 -0.4421 -0.0827  0.0276
 7255TIP3    H143256   2.395   1.914   4.651 -0.6621  0.6662  1.2889
 7255TIP3    H243257   2.291   1.852   4.562  1.1477 -0.6182  0.0336
 7256TIP3   OH243258   5.639   4.761  14.342  0.4528  0.1490  0.1156
 7256TIP3    H143259   5.712   4.797  14.393 -0.2427 -0.1750  1.3501
 7256TIP3    H243260   5.680   4.725  14.264  1.4202  1.6265 -0.0886
 7257TIP3   OH243261   0.052   6.252  11.935  0.8546 -0.3517  0.6003
 7257TIP3    H143262   0.123   6.243  11.999  0.1590 -0.1829  1.4043
 7257TIP3    H243263  -0.025   6.271  11.988  0.3732  0.3119 -0.3379
 7258TIP3   OH243264   2.924   6.287  16.533 -0.2316  0.1850 -0.2542
 7258TIP3    H143265   3.006   6.284  16.483 -0.0755  1.5042 -0.1013
 7258TIP3    H243266   2.915   6.379  16.557 -1.1189 -0.1757  0.7986
 7259TIP3   OH243267   6.581   6.602  15.452  0.1647  0.0522  0.1042
 7259TIP3    H143268   6.655   6.563  15.406  0.6226 -0.7026  1.4532
 7259TIP3    H243269   6.608   6.605  15.544 -2.6707 -3.1800  1.1461
 7260TIP3   OH243270   5.551   2.786   3.119  0.3118 -0.1334  0.4595
 7260TIP3    H143271   5.551   2.819   3.209  0.1593 -1.2859  0.8961
 7260TIP3    H243272   5.499   2.706   3.123 -1.1395  0.7055 -0.9964
 7261TIP3   OH243273   2.596   2.565   3.512  0.0276 -0.0250  0.0229
 7261TIP3    H143274   2.543   2.566   3.592  0.4695 -1.8471  0.3575
 7261TIP3    H243275   2.561   2.491   3.461  2.5028 -1.5353  0.4510
 7262TIP3   OH243276   0.872   4.904   6.254 -0.3536  0.1698  0.1528
 7262TIP3    H143277   0.955   4.951   6.243 -1.3099  1.9055  0.1416
 7262TIP3    H243278   0.847   4.880   6.164 -0.2760  0.3807  0.0738
 7263TIP3   OH243279   3.242   1.758   5.144  0.2774 -0.3220 -0.6480
 7263TIP3    H143280   3.201   1.821   5.085 -1.5768  0.9393  1.8915
 7263TIP3    H243281   3.190   1.678   5.135 -1.9428  0.8366  1.5163
 7264TIP3   OH243282   5.080   1.946   0.399 -0.2250 -0.2756 -0.0214
 7264TIP3    H143283   5.151   1.938   0.462 -0.5400  0.0185  0.3793
 7264TIP3    H243284   5.041   1.859   0.395 -1.2775  0.0979  1.4844
 7265TIP3   OH243285   5.349   2.875   3.768  0.2275  0.4516  0.0763
 7265TIP3    H143286   5.263   2.912   3.750 -0.1413 -0.4121  0.0527
 7265TIP3    H243287   5.411   2.938   3.731 -0.3939  1.0042 -0.0227
 7266TIP3   OH243288   3.405   4.728  14.398 -0.0342  0.1292 -0.0320
 7266TIP3    H143289   3.471   4.666  14.370  1.5823  1.3177  1.0308
 7266TIP3    H243290   3.454   4.807  14.423 -1.7183  0.6282  1.9461
 7267TIP3   OH243291   0.679   6.212  14.293  0.8434 -0.1570  0.4867
 7267TIP3    H143292   0.613   6.275  14.264  0.5633  0.3792  2.2603
 7267TIP3    H243293   0.761   6.243  14.255  0.1484 -0.7026 -1.5502
 7268TIP3   OH243294   6.498   6.682  13.365  0.4735 -0.3073 -0.0122
 7268TIP3    H143295   6.517   6.592  13.338 -0.9051 -0.0418 -1.9580
 7268TIP3    H243296   6.515   6.735  13.287 -2.2378  0.6643  0.0056
 7269TIP3   OH243297   2.809   6.388  16.237 -0.1183  0.1131  0.2233
 7269TIP3    H143298   2.801   6.386  16.142  0.1797 -1.5320  0.2163
 7269TIP3    H243299   2.737   6.332  16.268 -0.0545  0.4259  0.9539
 7270TIP3   OH243300   0.174   3.911  16.380  0.6873  0.2755 -0.1671
 7270TIP3    H143301   0.083   3.906  16.350  1.4820  0.0329 -2.6129
 7270TIP3    H243302   0.189   4.004  16.395  0.1753  0.3656 -0.1879
 7271TIP3   OH243303   5.435   5.574  11.457 -0.1721  0.1685 -0.3321
 7271TIP3    H143304   5.504   5.596  11.520 -1.3929  1.8189  0.4333
 7271TIP3    H243305   5.477   5.583  11.371  1.2181 -1.1357  0.1844
 7272TIP3   OH243306   2.519   3.467  15.917  0.4646 -0.5221  0.2154
 7272TIP3    H143307   2.587   3.519  15.959  1.4770  0.0853 -2.1255
 7272TIP3    H243308   2.442   3.524  15.917  1.4571  0.8664 -1.9703
 7273TIP3   OH243309   3.331   2.781   4.845  0.4856  0.5114 -0.0568
 7273TIP3    H143310   3.338   2.873   4.818  1.5760  0.3565 -0.3572
 7273TIP3    H243311   3.259   2.746   4.793  0.9824  0.8500 -0.9936
 7274TIP3   OH243312   4.635   0.014   6.357 -0.1915 -0.4078 -0.3486
 7274TIP3    H143313   4.573   0.043   6.424  0.4086 -1.4250  0.6599
 7274TIP3    H243314   4.621  -0.080   6.350  2.9720 -1.0901  1.7422
 7275TIP3   OH243315   5.408   3.597   2.970  0.2185  0.1135 -0.4484
 7275TIP3    H143316   5.499   3.599   3.002 -0.1264  0.0150  0.5511
 7275TIP3    H243317   5.417   3.588   2.875  1.2652  0.8926 -0.4392
 7276TIP3   OH243318   2.239   1.293  13.620  0.0305  0.1139  0.0579
 7276TIP3    H143319   2.235   1.300  13.525  0.5823 -1.1359 -0.0663
 7276TIP3    H243320   2.215   1.380  13.652 -2.5256 -0.0930 -1.1734
 7277TIP3   OH243321   5.233   0.942  11.739 -0.2228 -0.4185 -0.4434
 7277TIP3    H143322   5.187   0.910  11.662 -0.3623 -0.7080 -0.2425
 7277TIP3    H243323   5.203   0.885  11.810 -0.7472  0.3829 -0.0124
 7278TIP3   OH243324   1.691   5.459  12.772  0.4752 -0.2652 -0.0431
 7278TIP3    H143325   1.722   5.433  12.686 -0.0153 -1.9156  0.2469
 7278TIP3    H243326   1.770   5.473  12.824  0.7736 -1.0375 -0.2749
 7279TIP3   OH243327   2.007   4.842  15.229  0.0317 -0.0536  0.3448
 7279TIP3    H143328   1.998   4.921  15.283 -1.2147 -0.5624  0.9076
 7279TIP3    H243329   2.095   4.810  15.248 -0.0571  0.2844  1.3834
 7280TIP3   OH243330   4.952   1.572   1.754 -0.1280  0.2931 -0.9884
 7280TIP3    H143331   4.910   1.622   1.824  0.5893  0.9354 -1.0001
 7280TIP3    H243332   4.880   1.545   1.697 -0.8152 -1.0411  0.4925
 7281TIP3   OH243333   4.001   2.574   2.158  0.3101  0.4173  0.0050
 7281TIP3    H143334   4.077   2.516   2.147 -0.5113 -0.8270  0.7735
 7281TIP3    H243335   3.994   2.586   2.253 -0.3811  0.6308 -0.0751
 7282TIP3   OH243336   2.883   6.602   0.048  0.4710 -0.2437 -0.0891
 7282TIP3    H143337   2.943   6.628   0.119 -1.6843  4.2986  0.2372
 7282TIP3    H243338   2.931   6.623  -0.032  1.2694 -1.4495  0.0592
 7283TIP3   OH243339   1.751   4.769   2.502  0.1675  0.0375 -0.0242
 7283TIP3    H143340   1.754   4.865   2.494 -1.2416 -0.0693 -2.1244
 7283TIP3    H243341   1.840   4.741   2.483  0.0288  0.7831 -1.8493
 7284TIP3   OH243342   2.484   2.606   4.127 -0.1027  0.1943  0.0501
 7284TIP3    H143343   2.392   2.620   4.152 -0.0424 -0.0905  0.4352
 7284TIP3    H243344   2.479   2.569   4.038 -0.3961 -0.5226  0.3548
 7285TIP3   OH243345   2.302   6.054  15.032 -0.4178  0.1848 -0.2214
 7285TIP3    H143346   2.365   6.061  14.961  0.6725  0.0280  0.7178
 7285TIP3    H243347   2.225   6.013  14.992 -0.4767  1.7093 -1.7068
 7286TIP3   OH243348   5.000   0.599  10.873  0.0857 -0.0014  0.0441
 7286TIP3    H143349   4.922   0.551  10.844 -0.2392  0.0409  0.8414
 7286TIP3    H243350   5.069   0.570  10.813  0.2475 -2.6248  1.4137
 7287TIP3   OH243351   1.374   3.007   4.014  0.4844 -0.2146  0.2871
 7287TIP3    H143352   1.415   3.047   4.091  1.5008 -0.9823  0.1540
 7287TIP3    H243353   1.374   2.913   4.033 -0.3742 -0.3095 -0.1304
 7288TIP3   OH243354   5.800   2.024  12.404  0.1790 -0.7700 -0.1967
 7288TIP3    H143355   5.728   2.086  12.415 -1.0296 -2.3568  1.1601
 7288TIP3    H243356   5.781   1.978  12.323 -0.1017 -0.8837 -0.0668
 7289TIP3   OH243357   4.331   1.269   2.499 -0.4976  0.2031  0.0612
 7289TIP3    H143358   4.388   1.285   2.424  2.6544 -1.1168  2.0793
 7289TIP3    H243359   4.298   1.180   2.486 -2.9591  1.2792 -1.5631
 7290TIP3   OH243360   1.415   5.753  12.775  0.1802 -0.4440 -0.9808
 7290TIP3    H143361   1.501   5.781  12.742 -0.4031  0.2572 -1.9133
 7290TIP3    H243362   1.436   5.703  12.854  1.3453  1.5406  0.0319
 7291TIP3   OH243363   1.472   2.851  13.539  0.3452  0.2056 -0.2895
 7291TIP3    H143364   1.425   2.930  13.563 -1.9671 -0.8397 -1.2219
 7291TIP3    H243365   1.515   2.822  13.620 -1.0336  0.9071  0.7053
 7292TIP3   OH243366   5.714   3.758   0.865 -0.0157  0.5597 -0.0149
 7292TIP3    H143367   5.684   3.698   0.797 -0.1314  0.9816 -0.3404
 7292TIP3    H243368   5.657   3.740   0.940 -1.6301  1.8939 -0.8782
 7293TIP3   OH243369   1.057   1.237   3.951 -0.2939 -0.0652  0.0735
 7293TIP3    H143370   1.008   1.310   3.913 -0.3458 -0.1351  0.0073
 7293TIP3    H243371   0.990   1.178   3.984 -0.2443  0.3407  0.9218
 7294TIP3   OH243372   0.490   6.134   1.775 -0.6941 -0.2445 -0.2514
 7294TIP3    H143373   0.458   6.223   1.787  1.9229  0.5872  1.2027
 7294TIP3    H243374   0.431   6.080   1.827  0.1114  1.2151  2.3104
 7295TIP3   OH243375   3.726   0.503   4.997  0.0154  0.3165 -0.0439
 7295TIP3    H143376   3.639   0.529   5.026 -0.8661 -3.3260  0.8513
 7295TIP3    H243377   3.716   0.484   4.904 -0.0873  0.2020 -0.0103
 7296TIP3   OH243378   3.671   6.289   0.234  0.5354 -0.7075 -0.0456
 7296TIP3    H143379   3.723   6.243   0.169  0.6905 -0.6113  0.0107
 7296TIP3    H243380   3.618   6.351   0.184 -0.7115 -1.9217 -0.2650
 7297TIP3   OH243381   2.135   3.203  11.753  0.3325 -0.2020 -0.0934
 7297TIP3    H143382   2.108   3.177  11.841 -0.5678  1.0740  0.0245
 7297TIP3    H243383   2.063   3.258  11.721  1.3457  0.5964 -1.0269
 7298TIP3   OH243384   2.719   0.646  16.909 -0.3113 -0.3210 -0.1433
 7298TIP3    H143385   2.698   0.581  16.843 -1.5757  0.6328 -0.6962
 7298TIP3    H243386   2.635   0.668  16.949  0.1470  0.7060  0.2797
 7299TIP3   OH243387   6.581   4.258  15.734 -0.2749  0.4485  0.0706
 7299TIP3    H143388   6.514   4.204  15.776  1.0034 -2.0472 -1.0428
 7299TIP3    H243389   6.534   4.305  15.665 -1.0080 -0.7634 -0.2589
 7300TIP3   OH243390   4.290   3.631   2.960 -0.1082  0.3314 -0.5884
 7300TIP3    H143391   4.195   3.623   2.948 -0.3097 -0.1410  1.2763
 7300TIP3    H243392   4.321   3.541   2.964  0.2238  0.4907  0.3565
 7301TIP3   OH243393   1.237   4.000  14.978  0.3685  0.8908  0.5152
 7301TIP3    H143394   1.235   3.908  15.006  1.1144  0.6123 -0.3370
 7301TIP3    H243395   1.300   4.042  15.037 -1.6391  1.3833  2.4150
 7302TIP3   OH243396   6.734   2.977   3.220 -0.1053  0.0230 -0.3566
 7302TIP3    H143397   6.742   2.996   3.314  1.6855 -1.7436 -0.1385
 7302TIP3    H243398   6.739   3.063   3.178 -0.0672  0.7470  1.0989
 7303TIP3   OH243399   3.021   5.902  14.751 -0.7962  0.0826 -0.0089
 7303TIP3    H143400   2.947   5.919  14.809 -0.1014 -0.6945  1.1075
 7303TIP3    H243401   2.998   5.819  14.708 -2.0601  1.4476 -2.0808
 7304TIP3   OH243402   1.739   2.900  15.585 -0.0653 -0.6214  0.4327
 7304TIP3    H143403   1.730   2.809  15.560 -0.5488 -0.7789  1.1628
 7304TIP3    H243404   1.779   2.942  15.509 -1.0658 -1.1740 -0.4051
 7305TIP3   OH243405   1.435   5.208   1.033 -0.4278 -0.3704  0.5324
 7305TIP3    H143406   1.391   5.151   1.096 -0.2876 -1.1402 -0.0506
 7305TIP3    H243407   1.520   5.165   1.018 -0.5946 -0.3746 -0.4241
 7306TIP3   OH243408   0.010   4.719   2.612 -0.0441  0.1269 -0.0304
 7306TIP3    H143409   0.037   4.745   2.700 -1.0970 -0.6191  0.5195
 7306TIP3    H243410  -0.078   4.757   2.602 -0.5386 -1.0465 -0.1829
 7307TIP3   OH243411   5.918   5.398  16.536 -0.1910  0.3607 -0.0587
 7307TIP3    H143412   5.870   5.316  16.546 -1.3383  1.1967  1.5980
 7307TIP3    H243413   5.982   5.397  16.607 -1.1451  1.5167  0.8278
 7308TIP3   OH243414   3.634   5.403   6.611 -0.5743  0.1404  0.5740
 7308TIP3    H143415   3.709   5.420   6.553 -0.1263  0.4130  1.2328
 7308TIP3    H243416   3.642   5.311   6.635 -0.5781  0.1111  0.4635
 7309TIP3   OH243417   3.970   5.680   2.676  0.4052  0.0273  0.0893
 7309TIP3    H143418   3.946   5.616   2.609  0.2612 -0.3449  0.4989
 7309TIP3    H243419   3.889   5.728   2.693  0.2226 -0.4752  0.6471
 7310TIP3   OH243420   5.570   3.683   6.346  0.3659  0.0021 -0.5392
 7310TIP3    H143421   5.485   3.727   6.345  1.8831  3.0979  0.9291
 7310TIP3    H243422   5.550   3.593   6.371 -2.5345  0.5253 -0.8064
 7311TIP3   OH243423   6.497   0.428   4.130  0.2050 -0.5089  1.3330
 7311TIP3    H143424   6.591   0.414   4.146  0.4545 -0.4543 -0.0364
 7311TIP3    H243425   6.495   0.485   4.053 -0.9876 -2.1585  0.1302
 7312TIP3   OH243426   0.828   3.939  13.219  0.6045  0.5899 -0.4105
 7312TIP3    H143427   0.761   3.953  13.287 -1.0898  0.9737 -2.1137
 7312TIP3    H243428   0.826   4.019  13.167  1.9922  0.3566 -0.8393
 7313TIP3   OH243429   5.994   3.580  17.229 -0.3301 -0.0195 -0.2750
 7313TIP3    H143430   5.952   3.572  17.314 -2.0914  2.0994 -0.9031
 7313TIP3    H243431   6.086   3.593  17.249 -0.6655  0.0364  1.2917
 7314TIP3   OH243432   1.311   0.739   4.743 -0.1676 -0.4022 -0.5937
 7314TIP3    H143433   1.398   0.754   4.781 -1.4211  0.6858  1.9788
 7314TIP3    H243434   1.266   0.823   4.755 -1.7388 -1.1171 -1.4597
 7315TIP3   OH243435   5.795   3.235  16.160 -0.5032 -0.1764  1.1546
 7315TIP3    H143436   5.707   3.238  16.197 -1.4188  0.5709 -0.9707
 7315TIP3    H243437   5.782   3.252  16.066  1.5746 -3.1952  0.2435
 7316TIP3   OH243438   6.628   5.988   3.605 -0.7253  0.1040 -0.3598
 7316TIP3    H143439   6.635   6.051   3.533  0.2147  0.8565  0.3828
 7316TIP3    H243440   6.536   5.989   3.630 -0.3749  2.6476  0.9492
 7317TIP3   OH243441   0.952   0.317  12.467 -0.6070 -1.0919 -0.5865
 7317TIP3    H143442   0.941   0.233  12.422 -0.1135 -2.5629  1.9260
 7317TIP3    H243443   1.031   0.305  12.520 -1.3166  0.4908  0.8720
 7318TIP3   OH243444   1.773   4.069  14.673 -0.1071 -0.2323  0.1923
 7318TIP3    H143445   1.866   4.087  14.686 -0.0775 -0.4594  0.3021
 7318TIP3    H243446   1.747   4.128  14.602 -0.1428  0.6153  0.9074
 7319TIP3   OH243447   3.765   2.106   3.599 -0.2803 -0.5867  0.1935
 7319TIP3    H143448   3.704   2.061   3.657 -0.1498 -1.8550 -0.6369
 7319TIP3    H243449   3.811   2.036   3.554 -1.6260  0.3899 -2.7735
 7320TIP3   OH243450   3.122   4.218  14.412  0.0037  0.5189  0.1847
 7320TIP3    H143451   3.076   4.135  14.423 -0.2038  0.6311  0.1776
 7320TIP3    H243452   3.095   4.271  14.487  1.3930  0.0147  1.0517
 7321TIP3   OH243453   1.073   6.617  13.683 -0.2676  0.3704 -0.0217
 7321TIP3    H143454   1.069   6.594  13.590 -0.9501  0.3043  0.0203
 7321TIP3    H243455   1.112   6.704  13.684 -0.7385  0.5937 -0.4117
 7322TIP3   OH243456   0.538   5.847  11.413  0.0725  0.2277  0.0758
 7322TIP3    H143457   0.611   5.791  11.437 -0.8118 -2.1245 -2.4977
 7322TIP3    H243458   0.463   5.788  11.405 -1.6955  2.2940  0.6706
 7323TIP3   OH243459   3.503   1.587  14.327 -0.2120  0.0251  0.3324
 7323TIP3    H143460   3.496   1.664  14.383 -1.5288  1.3116 -1.5526
 7323TIP3    H243461   3.415   1.548  14.330 -0.2552  0.0237 -0.6959
 7324TIP3   OH243462   5.895   5.475  15.836 -0.1891  0.3318  0.1490
 7324TIP3    H143463   5.910   5.400  15.779  0.7768 -0.3949  1.3280
 7324TIP3    H243464   5.800   5.477  15.848 -0.1365 -1.3579  0.9657
 7325TIP3   OH243465   2.650   4.583   3.533 -0.3387  0.5715 -0.1686
 7325TIP3    H143466   2.612   4.661   3.494  1.8269  2.0374  0.5368
 7325TIP3    H243467   2.589   4.556   3.601 -0.7741  2.0482  0.0246
 7326TIP3   OH243468   3.538   0.035  11.684  0.1750  0.2381  0.0257
 7326TIP3    H143469   3.526  -0.020  11.762  1.2325 -3.4300 -2.2569
 7326TIP3    H243470   3.461   0.091  11.682 -1.6080 -2.0624  1.7942
 7327TIP3   OH243471   4.661   0.044  15.098  0.0807 -0.0347 -0.0961
 7327TIP3    H143472   4.600   0.004  15.161  1.4478  1.2228  2.0830
 7327TIP3    H243473   4.745   0.002  15.117  0.0420 -1.4897 -2.8420
 7328TIP3   OH243474   6.128   5.281   1.584  0.9036  0.3311 -0.6059
 7328TIP3    H143475   6.095   5.369   1.599  2.1525  0.6807  0.1226
 7328TIP3    H243476   6.204   5.273   1.641  0.6454 -1.3193 -0.4511
 7329TIP3   OH243477   5.291   3.845   6.274 -0.5308 -0.3414 -0.0838
 7329TIP3    H143478   5.227   3.866   6.206 -1.3641 -0.2971  0.7050
 7329TIP3    H243479   5.240   3.805   6.344  0.1619  0.5934  0.9753
 7330TIP3   OH243480   1.252   3.359  13.765 -0.4828 -0.3031  0.7338
 7330TIP3    H143481   1.212   3.446  13.771 -0.1118 -0.1118  0.5119
 7330TIP3    H243482   1.346   3.377  13.762 -0.4670 -0.5688 -1.6964
 7331TIP3   OH243483   4.725   1.237   4.556 -0.3044  0.0674  0.0490
 7331TIP3    H143484   4.811   1.260   4.522  0.5082 -1.1440  1.1963
 7331TIP3    H243485   4.742   1.166   4.618 -2.0940  0.0282  0.5419
 7332TIP3   OH243486   3.746   6.422   4.470 -0.2859 -0.4009  0.3216
 7332TIP3    H143487   3.812   6.364   4.432  1.0499  0.2544  1.6334
 7332TIP3    H243488   3.739   6.395   4.562 -0.8644  0.4325  0.5319
 7333TIP3   OH243489   0.663   3.029   4.608  0.1080  0.5654  0.7815
 7333TIP3    H143490   0.618   3.113   4.599  0.5659  0.8919  1.5230
 7333TIP3    H243491   0.618   2.971   4.547 -0.4038  1.2704  0.4849
 7334TIP3   OH243492   0.819   3.691  16.220  0.2150  0.2095 -0.4109
 7334TIP3    H143493   0.888   3.627  16.203 -0.7696 -0.5835 -1.5244
 7334TIP3    H243494   0.855   3.774  16.188  0.2199 -0.4126 -2.1197
 7335TIP3   OH243495   4.195   5.862   5.866 -0.3796 -0.9923 -0.0929
 7335TIP3    H143496   4.134   5.862   5.793  1.1718 -2.9776 -1.4350
 7335TIP3    H243497   4.278   5.894   5.829 -0.2271  0.3561  1.3723
 7336TIP3   OH243498   6.445   1.110  14.736  0.0637 -0.5064 -0.5821
 7336TIP3    H143499   6.467   1.032  14.686 -0.4119 -1.1332  0.1792
 7336TIP3    H243500   6.353   1.127  14.715 -0.5115 -1.5069  1.0301
 7337TIP3   OH243501   4.049   0.759  15.118 -0.4245  0.0032 -0.2698
 7337TIP3    H143502   3.965   0.737  15.157 -0.6497 -1.8968 -1.7665
 7337TIP3    H243503   4.113   0.707  15.168 -0.5025 -0.9584 -1.1548
 7338TIP3   OH243504   0.437   0.362   3.983  0.0347  0.0721  0.0831
 7338TIP3    H143505   0.378   0.399   4.049 -0.7873 -0.1059 -0.5289
 7338TIP3    H243506   0.468   0.281   4.021 -0.7049 -0.2002  0.1234
 7339TIP3   OH243507   0.979   4.179   3.240 -0.0865  0.5166 -0.0988
 7339TIP3    H143508   1.070   4.203   3.226 -0.0203  1.2995  1.5858
 7339TIP3    H243509   0.980   4.120   3.315 -0.8170 -0.6403 -0.9801
 7340TIP3   OH243510   0.436   2.107   5.470  0.3285 -0.0561  0.1437
 7340TIP3    H143511   0.513   2.136   5.420  1.1566  0.7763  1.8555
 7340TIP3    H243512   0.452   2.139   5.559 -1.0526 -1.6249  0.9812
 7341TIP3   OH243513   2.231   1.590  16.978 -0.6892  0.2848 -0.2772
 7341TIP3    H143514   2.287   1.595  16.900 -1.7873  1.7825 -0.9857
 7341TIP3    H243515   2.236   1.678  17.016 -0.4197 -0.3489  1.1834
 7342TIP3   OH243516   0.260   4.743   1.271 -0.3486  0.1542  0.0745
 7342TIP3    H143517   0.311   4.813   1.231  3.3823 -2.2265  0.3645
 7342TIP3    H243518   0.263   4.761   1.365  2.4548 -1.3905  0.3610
 7343TIP3   OH243519   1.747   2.677   5.661 -0.1098  0.4664 -0.7103
 7343TIP3    H143520   1.708   2.621   5.594  1.1079  1.1038 -1.9607
 7343TIP3    H243521   1.708   2.763   5.646  0.5949  0.7418 -0.9683
 7344TIP3   OH243522   4.941   1.354   5.851 -0.1623  0.0647 -0.3568
 7344TIP3    H143523   4.916   1.441   5.821  0.1943  1.1927  2.4601
 7344TIP3    H243524   4.860   1.315   5.883 -0.6428 -1.3380 -3.0837
 7345TIP3   OH243525   5.731   3.954  13.399  0.4125  0.4989 -0.0050
 7345TIP3    H143526   5.769   3.918  13.318  0.2455  2.3820 -0.9575
 7345TIP3    H243527   5.760   3.895  13.468  0.3005 -1.3191 -1.4932
 7346TIP3   OH243528   0.917   5.336  12.664  0.3798  0.0064 -0.6993
 7346TIP3    H143529   0.880   5.391  12.595  0.2396  2.1669  1.0406
 7346TIP3    H243530   0.971   5.396  12.716 -1.0199 -1.1507  2.1689
 7347TIP3   OH243531   0.587   2.644  14.736 -0.6156 -0.4532 -0.6282
 7347TIP3    H143532   0.596   2.619  14.644 -3.5044 -0.8143 -0.8523
 7347TIP3    H243533   0.548   2.731  14.734  0.6317  0.1475  0.2727
 7348TIP3   OH243534   6.385   5.623  16.413 -0.2966 -0.3376 -0.3329
 7348TIP3    H143535   6.354   5.594  16.499  2.8667  0.1209  1.0422
 7348TIP3    H243536   6.377   5.546  16.357 -1.7807 -0.8238  0.5185
 7349TIP3   OH243537   1.181   2.671  14.883 -0.5809  0.7165  0.0089
 7349TIP3    H143538   1.272   2.692  14.903 -1.1203  2.1167  1.1020
 7349TIP3    H243539   1.186   2.591  14.831  1.2983  1.0459 -0.3763
 7350TIP3   OH243540   0.941   2.250  16.506  0.0990  0.2909  0.3132
 7350TIP3    H143541   0.881   2.325  16.502 -0.4113 -0.1128  0.4515
 7350TIP3    H243542   1.009   2.271  16.441  0.0156  0.9226  0.4247
 7351TIP3   OH243543   3.481   2.570  16.869  0.2461  0.5770 -0.2073
 7351TIP3    H143544   3.408   2.622  16.902  0.1936  0.6943 -0.5117
 7351TIP3    H243545   3.472   2.485  16.914 -2.3522 -0.8026 -3.1671
 7352TIP3   OH243546   0.936   3.266   4.109 -0.1844  0.3254 -0.1790
 7352TIP3    H143547   0.950   3.348   4.157  0.4613  0.2063 -0.1662
 7352TIP3    H243548   0.846   3.241   4.132  0.2229  0.0938  1.2416
 7353TIP3   OH243549   5.137   3.553   6.211 -0.4004  0.3023  0.3659
 7353TIP3    H143550   5.046   3.576   6.232 -0.1494  1.1728  0.5460
 7353TIP3    H243551   5.189   3.592   6.281  0.2464  1.1996 -0.5882
 7354TIP3   OH243552   3.099   1.141   1.473  0.2434  0.4070  0.0744
 7354TIP3    H143553   3.098   1.073   1.406 -1.1739 -0.3248  0.8256
 7354TIP3    H243554   3.046   1.106   1.544 -0.3794  2.2211  0.5378
 7355TIP3   OH243555   0.181   3.136   2.206 -0.2725 -0.2753  0.1996
 7355TIP3    H143556   0.266   3.176   2.190 -0.9001  0.2300 -2.0615
 7355TIP3    H243557   0.132   3.203   2.255  0.8143 -0.8297  2.0932
 7356TIP3   OH243558   5.733   5.586   5.380 -0.6627 -0.2865 -0.0280
 7356TIP3    H143559   5.693   5.659   5.426 -0.8573 -1.2560  1.4036
 7356TIP3    H243560   5.824   5.612   5.367 -0.9554  0.5750 -0.3271
 7357TIP3   OH243561   6.564   4.185   4.128  0.8287 -0.7189  0.2814
 7357TIP3    H143562   6.657   4.160   4.129  1.4699  1.2073 -2.5686
 7357TIP3    H243563   6.552   4.236   4.207  2.2808 -0.8061  0.5798
 7358TIP3   OH243564   6.387   4.061   4.349  1.0556 -0.5196 -0.0386
 7358TIP3    H143565   6.309   4.111   4.374  1.7388  0.3676  0.3156
 7358TIP3    H243566   6.460   4.111   4.384  1.7798 -1.4687 -0.1801
 7359TIP3   OH243567   0.668   4.658   6.231  0.1632 -0.0734 -0.2564
 7359TIP3    H143568   0.622   4.576   6.249  2.1128 -0.8577  1.4292
 7359TIP3    H243569   0.634   4.687   6.146 -2.1142 -1.4913  0.1353
 7360TIP3   OH243570   0.995   5.864   0.868 -0.4410 -0.0603  0.6912
 7360TIP3    H143571   0.967   5.868   0.777  2.4396 -1.3832 -0.3169
 7360TIP3    H243572   1.061   5.933   0.876 -0.4558 -0.1550  1.7001
 7361TIP3   OH243573   5.134   0.765  15.210  0.1553  0.2012  0.0297
 7361TIP3    H143574   5.120   0.671  15.217  1.2209  0.1719  2.4888
 7361TIP3    H243575   5.091   0.801  15.288 -2.0195  2.0003 -1.9328
 7362TIP3   OH243576   6.143   4.054  13.886  0.3976  0.3352 -0.1987
 7362TIP3    H143577   6.201   4.025  13.815  1.0270  0.3295  0.3094
 7362TIP3    H243578   6.139   3.978  13.945 -1.8867 -0.4537 -1.3220
 7363TIP3   OH243579   6.537   6.294   0.695 -0.2631 -0.3374 -0.3141
 7363TIP3    H143580   6.508   6.370   0.746  2.1345  0.8591 -0.6667
 7363TIP3    H243581   6.540   6.326   0.605 -0.2970 -1.1917 -0.6171
 7364TIP3   OH243582   3.534   1.727  12.015 -0.1262  0.2424  0.1727
 7364TIP3    H143583   3.550   1.745  12.107  1.7750  0.3541 -0.1734
 7364TIP3    H243584   3.604   1.668  11.988  1.0799  2.5362 -1.9278
 7365TIP3   OH243585   0.871   0.629  13.271  0.1242  0.0330 -0.4091
 7365TIP3    H143586   0.884   0.576  13.350 -2.4031  1.9662  1.3521
 7365TIP3    H243587   0.795   0.590  13.228  0.3079  0.1921 -0.8860
 7366TIP3   OH243588   2.098   4.218  15.021  0.2037  0.1654 -0.9803
 7366TIP3    H143589   2.016   4.221  15.070  0.5702 -0.5062 -0.3127
 7366TIP3    H243590   2.166   4.226  15.087  0.7173 -1.3714 -1.2867
 7367TIP3   OH243591   0.245   2.994  16.237 -0.0437 -0.2296  0.2100
 7367TIP3    H143592   0.320   2.964  16.288  0.2791  2.2464  1.2837
 7367TIP3    H243593   0.276   3.076  16.196 -1.4963 -0.2497 -0.9846
 7368TIP3   OH243594   5.476   0.975   1.052  0.4712  0.1423  1.2283
 7368TIP3    H143595   5.536   0.905   1.077  0.0645  0.3958  2.9634
 7368TIP3    H243596   5.453   1.018   1.134 -0.6482  1.2169  0.3795
 7369TIP3   OH243597   0.543   1.611  11.899  0.3905 -0.7647  0.5519
 7369TIP3    H143598   0.588   1.653  11.826 -0.8496 -1.8224 -0.8599
 7369TIP3    H243599   0.605   1.546  11.932  1.2563  0.2644  0.9438
 7370TIP3   OH243600   1.494   3.655  14.822 -0.5038  0.5022  0.5949
 7370TIP3    H143601   1.544   3.661  14.903 -1.2118  0.0971  1.0703
 7370TIP3    H243602   1.494   3.744  14.787  0.2292  0.5753  0.7833
 7371TIP3   OH243603   5.200   1.491   0.425 -0.2381  0.2291  0.0889
 7371TIP3    H143604   5.210   1.472   0.518  0.5776 -1.2104 -0.2706
 7371TIP3    H243605   5.287   1.475   0.387 -0.9458 -0.7731 -1.1658
 7372TIP3   OH243606   3.799   2.519  11.150 -0.4900 -0.1124 -0.6301
 7372TIP3    H143607   3.811   2.462  11.074  0.8036 -0.1039 -0.4555
 7372TIP3    H243608   3.801   2.608  11.113 -1.7351 -0.1485 -0.8072
 7373TIP3   OH243609   6.726   6.577   3.348 -0.7625  0.0128 -0.2934
 7373TIP3    H143610   6.760   6.553   3.434  2.1873  0.7132 -1.2265
 7373TIP3    H243611   6.703   6.669   3.356  2.6081  0.9979 -1.1150
 7374TIP3   OH243612   2.840   5.031   1.795  0.2819  0.4891  0.1101
 7374TIP3    H143613   2.764   5.087   1.810  0.4434  0.1711  2.3309
 7374TIP3    H243614   2.891   5.076   1.728 -0.9805  1.5922 -0.1245
 7375TIP3   OH243615   6.235   4.058   5.709  0.1478 -0.4233 -0.1425
 7375TIP3    H143616   6.239   3.999   5.634 -1.2724  0.8822 -1.2581
 7375TIP3    H243617   6.186   4.008   5.775 -0.9903 -0.5471 -1.0586
 7376TIP3   OH243618   4.952   4.524  14.008  0.4310 -0.6171  0.2294
 7376TIP3    H143619   5.023   4.582  13.981  0.0170 -0.9026 -1.4961
 7376TIP3    H243620   4.908   4.571  14.079  0.9559  0.5498 -0.2191
 7377TIP3   OH243621   6.443   4.622  14.967  0.9125 -0.1808 -0.2965
 7377TIP3    H143622   6.516   4.680  14.941  0.8322  0.2050  0.3186
 7377TIP3    H243623   6.485   4.556  15.022  0.8541 -0.1700 -0.2401
 7378TIP3   OH243624   5.840   3.828  15.465 -0.1996  0.3478 -0.2913
 7378TIP3    H143625   5.902   3.792  15.402  1.4875 -0.5615  1.8289
 7378TIP3    H243626   5.866   3.920  15.475 -1.2242  0.8200 -1.7736
 7379TIP3   OH243627   2.011   0.241  11.554  0.3255 -0.0487 -0.6116
 7379TIP3    H143628   2.039   0.323  11.595  0.7701 -1.5360  2.1902
 7379TIP3    H243629   1.923   0.227  11.587  0.4050 -0.8985 -0.7510
 7380TIP3   OH243630   2.228   5.411   2.669 -0.4478 -0.5252 -0.4587
 7380TIP3    H143631   2.296   5.344   2.677 -0.7226 -0.7879 -0.3177
 7380TIP3    H243632   2.276   5.491   2.646  0.1008 -0.3066  1.3915
 7381TIP3   OH243633   2.756   0.660   0.078 -0.0837 -0.1125 -0.3358
 7381TIP3    H143634   2.683   0.604   0.052  0.4870 -0.8374 -0.3871
 7381TIP3    H243635   2.781   0.629   0.165  0.9781 -0.7079 -0.8417
 7382TIP3   OH243636   6.175   0.514   5.458  0.8815 -0.2186 -0.0954
 7382TIP3    H143637   6.140   0.475   5.378  2.9897 -1.6407 -0.3806
 7382TIP3    H243638   6.214   0.596   5.430 -0.3310  0.3382 -0.1446
 7383TIP3   OH243639   3.023   3.096  12.987 -0.1423 -0.7577  0.5443
 7383TIP3    H143640   2.954   3.050  13.035 -0.0875 -0.3061  1.0685
 7383TIP3    H243641   3.081   3.130  13.056 -0.2647  0.2104  0.1803
 7384TIP3   OH243642   1.332   4.214   1.601 -0.2961  0.6865  0.6430
 7384TIP3    H143643   1.420   4.176   1.596 -1.0207 -1.2049  1.7709
 7384TIP3    H243644   1.347   4.308   1.606  1.6763  0.3842  0.8238
 7385TIP3   OH243645   0.972   3.793   4.371 -0.6300  0.9848  0.0164
 7385TIP3    H143646   0.935   3.758   4.452 -1.1480 -1.8783 -1.4143
 7385TIP3    H243647   0.946   3.730   4.303  0.1071  3.1318 -2.3235
 7386TIP3   OH243648   2.826   4.337   5.174  0.1057  0.3343  0.6780
 7386TIP3    H143649   2.868   4.332   5.260 -0.2655 -2.0090  0.7604
 7386TIP3    H243650   2.895   4.311   5.112 -0.0425  0.6042  0.3965
 7387TIP3   OH243651   3.933   4.974  14.163 -0.1638 -0.1399 -0.0291
 7387TIP3    H143652   3.852   4.960  14.213  0.6060  0.8679  1.5548
 7387TIP3    H243653   4.002   4.948  14.223  0.8130  1.4809 -0.4282
 7388TIP3   OH243654   5.881   1.126   0.520 -0.1899 -0.7357 -0.0804
 7388TIP3    H143655   5.941   1.193   0.488  0.7015 -0.5357  1.9395
 7388TIP3    H243656   5.810   1.174   0.563 -1.3690 -0.9988 -1.6828
 7389TIP3   OH243657   6.359   1.853   5.664  0.1503  0.2635 -0.1748
 7389TIP3    H143658   6.437   1.799   5.656 -1.4542 -1.9591 -1.2389
 7389TIP3    H243659   6.328   1.864   5.575 -0.5878  1.4187  0.2090
 7390TIP3   OH243660   4.460   5.746   6.348 -0.2943 -0.4432  0.2990
 7390TIP3    H143661   4.431   5.656   6.358 -2.1503 -0.0345 -1.2168
 7390TIP3    H243662   4.556   5.741   6.349 -0.3276 -2.0105  3.5162
 7391TIP3   OH243663   3.089   3.322   4.144  0.4007 -0.6777  0.3224
 7391TIP3    H143664   3.122   3.257   4.082  0.1632 -0.5103  0.0189
 7391TIP3    H243665   3.060   3.271   4.219  0.3979 -0.9062  0.1656
 7392TIP3   OH243666   0.347   1.643   0.829 -0.1523 -0.5723  0.3863
 7392TIP3    H143667   0.392   1.696   0.894  0.4850  0.4183 -0.8366
 7392TIP3    H243668   0.370   1.683   0.745 -3.4443  0.0848 -0.2800
 7393TIP3   OH243669   4.288   5.040  13.675  0.0932 -0.2582 -0.2399
 7393TIP3    H143670   4.230   5.099  13.627 -0.0132 -0.0012  0.2042
 7393TIP3    H243671   4.353   5.098  13.715  0.2573 -0.4841 -0.1800
 7394TIP3   OH243672   1.586   0.620  17.166  0.6122 -0.4028 -0.2992
 7394TIP3    H143673   1.540   0.691  17.123 -0.1671 -1.5429 -1.3718
 7394TIP3    H243674   1.547   0.615  17.253 -0.1522 -0.2956 -0.6373
 7395TIP3   OH243675   3.828   0.589  15.667 -0.2341  0.4811  0.9400
 7395TIP3    H143676   3.842   0.499  15.697  2.0703  0.5985  0.2682
 7395TIP3    H243677   3.901   0.607  15.608 -1.5431  2.2582 -0.1918
 7396TIP3   OH243678   0.665   6.411   1.896  0.1834  0.1140  0.2867
 7396TIP3    H143679   0.692   6.499   1.868  0.2537  0.1608  0.4942
 7396TIP3    H243680   0.682   6.410   1.991  0.9081 -0.3851  0.1531
 7397TIP3   OH243681   6.269   2.934   2.502 -0.0244  0.0944  0.2067
 7397TIP3    H143682   6.178   2.903   2.500 -0.0971  0.3062  0.1719
 7397TIP3    H243683   6.285   2.956   2.593 -0.3500  1.0520  0.0421
 7398TIP3   OH243684   5.548   2.393  12.083 -0.3343  0.6075  0.5761
 7398TIP3    H143685   5.595   2.458  12.135 -1.5372  1.5747  0.4665
 7398TIP3    H243686   5.455   2.413  12.098 -0.7009 -0.3038 -0.4360
 7399TIP3   OH243687   5.247   0.339  12.432 -0.2857 -0.3883 -0.4279
 7399TIP3    H143688   5.172   0.334  12.491 -2.6387 -0.6269 -3.2818
 7399TIP3    H243689   5.232   0.419  12.381  1.9318  0.0784 -0.3878
 7400TIP3   OH243690   1.445   2.123  12.107  0.0272 -0.0975  0.3997
 7400TIP3    H143691   1.479   2.163  12.027  1.3726 -0.7064  0.6674
 7400TIP3    H243692   1.479   2.177  12.178 -0.3436 -0.1534  0.6246
 7401TIP3   OH243693   1.488   0.823  15.193  0.6169  0.5816  0.0451
 7401TIP3    H143694   1.476   0.753  15.258  0.4251  0.8787  0.3329
 7401TIP3    H243695   1.565   0.872  15.224  1.1169  0.1358 -0.4853
 7402TIP3   OH243696   6.627   1.473   0.744  0.5317 -0.0309 -0.6796
 7402TIP3    H143697   6.578   1.434   0.672  1.1237  0.4049 -1.3186
 7402TIP3    H243698   6.641   1.564   0.718 -0.9455  0.6802  0.8539
 7403TIP3   OH243699   0.824   3.502   2.454  0.0109 -0.1613 -0.2827
 7403TIP3    H143700   0.737   3.541   2.463  0.7852  2.0939 -2.0274
 7403TIP3    H243701   0.826   3.432   2.518 -3.0399 -0.1390 -0.1009
 7404TIP3   OH243702   3.856   6.542  16.708 -0.3309  0.2002  0.4018
 7404TIP3    H143703   3.776   6.517  16.663 -0.3982 -0.7387  1.0308
 7404TIP3    H243704   3.826   6.587  16.787 -0.2259  0.4952  0.2756
 7405TIP3   OH243705   2.177   5.612  13.735  0.1593  0.4684  0.1077
 7405TIP3    H143706   2.092   5.643  13.703  0.6361  1.7794  0.0680
 7405TIP3    H243707   2.241   5.653  13.676  0.7547 -1.6472 -0.7503
 7406TIP3   OH243708   4.678   6.303  14.131 -0.2086  0.2978 -0.4301
 7406TIP3    H143709   4.606   6.269  14.077 -2.2568  1.8321  1.2184
 7406TIP3    H243710   4.705   6.384  14.086 -0.9836  0.8464  0.0695
 7407TIP3   OH243711   4.510   1.401   3.998  0.1079  0.3022 -0.1023
 7407TIP3    H143712   4.497   1.307   3.996 -0.2157  0.3392  0.2776
 7407TIP3    H243713   4.511   1.427   3.905  2.5993 -0.3971 -0.3240
 7408TIP3   OH243714   5.449   4.749  15.675  0.7479 -0.3078 -0.0074
 7408TIP3    H143715   5.505   4.821  15.702 -0.3269 -0.1495  1.8973
 7408TIP3    H243716   5.377   4.791  15.626  0.7459 -0.2141  0.0765
 7409TIP3   OH243717   5.440   6.158   4.124 -0.5323  0.5142 -0.3390
 7409TIP3    H143718   5.351   6.168   4.157 -0.3120  1.0208  0.1009
 7409TIP3    H243719   5.496   6.164   4.202 -0.1878 -1.0733 -0.4432
 7410TIP3   OH243720   4.501   0.038   3.862  0.2254 -0.2064  0.2869
 7410TIP3    H143721   4.515   0.115   3.916  1.5422  0.3607 -0.8451
 7410TIP3    H243722   4.500   0.071   3.772  1.0845 -1.5358 -0.2295
 7411TIP3   OH243723   4.594   5.676  13.653  0.0039  0.5251 -0.2200
 7411TIP3    H143724   4.515   5.729  13.664  0.5509  0.7297  3.3134
 7411TIP3    H243725   4.666   5.739  13.661  0.5691 -0.1369 -0.0138
 7412TIP3   OH243726   6.745   0.264  12.847  0.5495  0.0129 -0.4039
 7412TIP3    H143727   6.767   0.172  12.862 -1.3467 -0.4096 -0.0562
 7412TIP3    H243728   6.662   0.262  12.799  1.0404  1.5383 -1.3661
 7413TIP3   OH243729   4.536   6.088   1.681 -0.1339  0.6068  0.1290
 7413TIP3    H143730   4.526   6.171   1.634  1.8334  0.8763  0.1360
 7413TIP3    H243731   4.588   6.111   1.758  0.3501 -0.6382  0.1770
 7414TIP3   OH243732   0.191   1.422  15.786 -0.5924  0.3457 -0.0070
 7414TIP3    H143733   0.249   1.420  15.862 -1.4130  0.2422  0.6281
 7414TIP3    H243734   0.104   1.435  15.824 -1.1611 -0.9828 -0.8443
 7415TIP3   OH243735   4.128   4.529   4.247 -0.7983  0.4574  0.0682
 7415TIP3    H143736   4.046   4.480   4.245 -0.1856 -0.5697 -0.6480
 7415TIP3    H243737   4.167   4.508   4.332 -0.6275 -0.1445 -0.1599
 7416TIP3   OH243738   5.927   1.699  11.343  0.3892  0.5280 -0.1474
 7416TIP3    H143739   5.977   1.704  11.262 -1.4827 -2.4153 -1.5606
 7416TIP3    H243740   5.907   1.606  11.353 -2.1077  1.2477  2.0236
 7417TIP3   OH243741   0.826   0.213   3.491 -0.3738  0.4731  0.1254
 7417TIP3    H143742   0.865   0.284   3.440  1.8961 -1.6979 -1.2752
 7417TIP3    H243743   0.812   0.250   3.578  0.3909  2.7373 -0.6842
 7418TIP3   OH243744   0.112   1.139  11.367  0.0913 -0.3481  0.0195
 7418TIP3    H143745   0.205   1.118  11.377 -0.6300 -3.2059  1.2723
 7418TIP3    H243746   0.095   1.128  11.273  0.9446 -0.0912 -0.1675
 7419TIP3   OH243747   4.403   0.018   0.198 -0.1187 -0.2620  0.2063
 7419TIP3    H143748   4.392   0.029   0.103 -2.6264 -0.1091  0.4856
 7419TIP3    H243749   4.325  -0.030   0.226  1.2660 -1.5418  2.0073
 7420TIP3   OH243750   0.918   3.221   2.964 -0.3258 -0.5310  0.0595
 7420TIP3    H143751   0.979   3.269   2.908 -0.1607 -1.5636 -0.6730
 7420TIP3    H243752   0.901   3.140   2.915 -1.2558 -0.8238  0.8737
 7421TIP3   OH243753   4.759   1.266   4.966  0.0247 -0.2485 -0.0769
 7421TIP3    H143754   4.736   1.346   5.013 -1.4716 -1.2079  0.8590
 7421TIP3    H243755   4.680   1.242   4.918  0.5479 -1.0125 -0.5763
 7422TIP3   OH243756   6.226   4.031  16.902 -0.2608  0.3726  0.2195
 7422TIP3    H143757   6.314   4.059  16.928 -0.3427 -1.9455  3.3950
 7422TIP3    H243758   6.170   4.055  16.976 -1.9587  0.2321 -0.9951
 7423TIP3   OH243759   0.252   3.381  14.182  0.0684  0.2039  0.1154
 7423TIP3    H143760   0.314   3.435  14.232  0.6552  1.1682 -1.5852
 7423TIP3    H243761   0.170   3.388  14.230  1.0433 -0.3317  1.8961
 7424TIP3   OH243762   0.757   4.989  16.379  0.9565 -0.5156 -0.3827
 7424TIP3    H143763   0.688   5.051  16.356  1.2393 -0.0759 -0.0447
 7424TIP3    H243764   0.724   4.943  16.456  0.6015 -1.0223 -0.8376
 7425TIP3   OH243765   6.432   4.501   3.804 -0.4334 -0.1039  0.0679
 7425TIP3    H143766   6.430   4.570   3.871  0.5970  2.1022 -2.1014
 7425TIP3    H243767   6.345   4.502   3.766 -0.0902  0.8152 -0.7236
 7426TIP3   OH243768   5.869   1.065  11.363 -0.6314 -0.1466 -0.5932
 7426TIP3    H143769   5.850   1.121  11.287  1.3891  0.7642 -0.4482
 7426TIP3    H243770   5.794   1.079  11.421 -1.0130  1.0548 -1.3410
 7427TIP3   OH243771   1.243   4.704  10.686 -0.0436  0.2533  0.3786
 7427TIP3    H143772   1.326   4.702  10.638  0.9051  1.9174  1.8666
 7427TIP3    H243773   1.225   4.612  10.706  1.5196 -0.1144  0.1503
 7428TIP3   OH243774   5.341   1.681   5.321 -0.2334 -0.0582 -0.7671
 7428TIP3    H143775   5.328   1.627   5.243 -1.4697  1.8058 -1.8821
 7428TIP3    H243776   5.266   1.741   5.321  0.4141  0.7785  1.1738
 7429TIP3   OH243777   3.104   5.138   4.958 -0.1573 -0.4223  0.2947
 7429TIP3    H143778   3.068   5.098   5.037  0.3638  1.5855  1.5886
 7429TIP3    H243779   3.039   5.119   4.891 -0.7617 -1.8905  1.2571
 7430TIP3   OH243780   2.109   6.000   0.498 -0.1935  0.1065  0.2108
 7430TIP3    H143781   2.072   6.089   0.501  2.0237  1.0622 -0.1786
 7430TIP3    H243782   2.123   5.984   0.404  0.4736 -0.2241  0.3709
 7431TIP3   OH243783   5.683   0.170  13.857 -0.1654  0.1937 -0.0513
 7431TIP3    H143784   5.772   0.140  13.877  0.0346  0.7177 -0.1382
 7431TIP3    H243785   5.656   0.117  13.783  0.2340  0.3139 -0.2846
 7432TIP3   OH243786   5.528   6.745   3.900 -0.1728  0.3566 -0.4910
 7432TIP3    H143787   5.555   6.727   3.990 -2.7569  1.7154  0.6150
 7432TIP3    H243788   5.558   6.670   3.850 -0.1303 -1.1919  1.7908
 7433TIP3   OH243789   5.293   6.245   2.414  0.0372 -0.3925  0.0908
 7433TIP3    H143790   5.222   6.295   2.375 -1.1393 -1.6702  0.5698
 7433TIP3    H243791   5.251   6.169   2.454  1.6116 -0.9332  0.7851
 7434TIP3   OH243792   0.214   2.482   5.362 -0.0112  0.4989 -0.3676
 7434TIP3    H143793   0.128   2.510   5.332 -1.2427 -0.9328  1.6619
 7434TIP3    H243794   0.224   2.393   5.328  0.2581  0.3139  0.1855
 7435TIP3   OH243795   2.900   6.178  13.988  0.3295 -0.2498  0.6297
 7435TIP3    H143796   2.924   6.113  13.921  0.2078 -0.5268  0.8527
 7435TIP3    H243797   2.820   6.143  14.027 -0.6354  0.8413 -0.3510
 7436TIP3   OH243798   3.386   4.607   5.367  0.7965 -0.0786  0.2842
 7436TIP3    H143799   3.347   4.532   5.323  1.7102 -0.3808 -0.0363
 7436TIP3    H243800   3.467   4.623   5.319  1.0266  0.5841  0.8771
 7437TIP3   OH243801   6.178   3.996   5.407 -0.0340  0.4947  0.0833
 7437TIP3    H143802   6.100   3.948   5.378  1.2231 -1.1391 -0.6460
 7437TIP3    H243803   6.250   3.935   5.392  1.6507  2.7556 -1.1719
 7438TIP3   OH243804   1.999   0.160   5.215 -0.1742  0.3629 -0.0881
 7438TIP3    H143805   2.003   0.110   5.297 -0.5652 -0.6465 -0.6666
 7438TIP3    H243806   1.912   0.200   5.216 -0.7008 -0.7324 -0.6104
 7439TIP3   OH243807   1.861   6.317   4.218  0.5534  0.0963  0.2783
 7439TIP3    H143808   1.813   6.369   4.153 -2.1067 -1.0324  1.2637
 7439TIP3    H243809   1.901   6.247   4.168  0.7052  0.7315 -0.4995
 7440TIP3   OH243810   3.239   1.045   5.743 -0.3147 -0.2233 -0.0273
 7440TIP3    H143811   3.216   1.016   5.832  0.5449 -0.2937  0.1730
 7440TIP3    H243812   3.335   1.044   5.741 -0.3227  0.3027 -0.7876
 7441TIP3   OH243813   5.644   2.457   2.936  0.0445 -0.1218 -0.4704
 7441TIP3    H143814   5.584   2.406   2.882 -0.8608 -1.1895  1.4819
 7441TIP3    H243815   5.639   2.416   3.023  1.6850  1.3525  0.3568
 7442TIP3   OH243816   1.204   4.584   3.106 -0.0412 -0.5610  0.2067
 7442TIP3    H143817   1.208   4.524   3.032  0.0203 -0.8423  0.4365
 7442TIP3    H243818   1.294   4.617   3.115 -0.2553  0.2242 -0.4568
 7443TIP3   OH243819   5.182   1.444   6.092  0.3512 -0.0469  0.3030
 7443TIP3    H143820   5.126   1.367   6.086  0.1628  0.0617  0.6479
 7443TIP3    H243821   5.267   1.415   6.060  0.1769 -0.2931  0.0659
 7444TIP3   OH243822   0.937   4.676  11.937  0.0332  0.4755  0.4971
 7444TIP3    H143823   0.946   4.612  12.007 -0.4276  0.6269  0.6940
 7444TIP3    H243824   1.003   4.742  11.957 -0.0602  0.4905  0.7607
 7445TIP3   OH243825   2.328   1.820  17.112 -0.3818  0.2820  1.0637
 7445TIP3    H143826   2.394   1.765  17.154 -0.1966  0.5195  1.0834
 7445TIP3    H243827   2.378   1.892  17.073 -0.4554 -0.4094 -0.3386
 7446TIP3   OH243828   2.412   5.415   2.981  0.4567 -0.2992  0.5422
 7446TIP3    H143829   2.375   5.490   2.934 -1.2606 -1.1237  0.5487
 7446TIP3    H243830   2.480   5.453   3.036  0.3260  1.1112 -0.2356
 7447TIP3   OH243831   6.679   0.956  16.903 -0.1919  0.2416  0.1078
 7447TIP3    H143832   6.754   0.903  16.877  1.3403  2.0092  0.7890
 7447TIP3    H243833   6.716   1.043  16.920 -2.1228  0.7227  2.0809
 7448TIP3   OH243834   0.725   0.503  16.485  0.1043  0.4250  0.2033
 7448TIP3    H143835   0.719   0.497  16.581  0.6617 -0.9533  0.1607
 7448TIP3    H243836   0.786   0.434  16.461  1.3035  1.8571 -1.0084
 7449TIP3   OH243837   1.268   5.467  12.754 -0.1808  0.6042  0.2736
 7449TIP3    H143838   1.228   5.550  12.780  1.1545  1.3466  0.0104
 7449TIP3    H243839   1.340   5.455  12.816 -1.0201 -0.8933  0.9681
 7450TIP3   OH243840   6.134   0.116  13.550 -0.7014 -0.6539  0.1434
 7450TIP3    H143841   6.153   0.148  13.462 -0.4947  0.2861  0.5254
 7450TIP3    H243842   6.069   0.178  13.584 -1.8925 -1.8615  0.1102
 7451TIP3   OH243843   1.291   2.443   2.336  0.0899  0.4524 -0.9372
 7451TIP3    H143844   1.238   2.490   2.271 -0.8563 -0.3978 -0.8005
 7451TIP3    H243845   1.257   2.473   2.420  1.0384  1.2412 -0.8254
 7452TIP3   OH243846   5.489   6.129  13.624  0.0842 -0.1982 -0.0541
 7452TIP3    H143847   5.530   6.056  13.672  0.0570 -0.8919 -1.0615
 7452TIP3    H243848   5.518   6.117  13.533 -0.3376  0.7570 -0.3206
 7453TIP3   OH243849   5.110   2.291  15.536  0.3278  0.2151 -0.7627
 7453TIP3    H143850   5.014   2.296  15.528  0.2662 -0.3792 -0.3798
 7453TIP3    H243851   5.142   2.342  15.462 -0.2796 -0.3889 -1.4476
 7454TIP3   OH243852   1.301   0.852  11.140 -0.2684 -0.4871  0.0896
 7454TIP3    H143853   1.343   0.911  11.078 -0.8385 -0.6764 -0.4913
 7454TIP3    H243854   1.292   0.904  11.220  1.6512 -0.6614  0.4463
 7455TIP3   OH243855   2.314   1.767   2.135 -0.7174 -0.1896  0.4785
 7455TIP3    H143856   2.258   1.695   2.165 -2.1439  1.2225  1.2615
 7455TIP3    H243857   2.253   1.832   2.099  0.7183 -0.4390 -2.5932
 7456TIP3   OH243858   5.255   5.437   1.584  0.4037 -0.2200 -0.0647
 7456TIP3    H143859   5.320   5.413   1.518  1.6248  0.5345  0.8496
 7456TIP3    H243860   5.175   5.394   1.555  0.9176  0.1138 -2.0579
 7457TIP3   OH243861   2.665   0.264   1.135  0.4058 -0.8122 -0.3697
 7457TIP3    H143862   2.674   0.351   1.097  0.0563 -0.5786  0.0704
 7457TIP3    H243863   2.608   0.277   1.211  1.3980 -1.2026  0.4488
 7458TIP3   OH243864   4.738   1.502  13.576 -0.2032  0.2937 -0.4590
 7458TIP3    H143865   4.670   1.459  13.628 -0.2485  1.0817  0.1536
 7458TIP3    H243866   4.697   1.580  13.541  0.1254  0.2961 -0.8496
 7459TIP3   OH243867   2.230   3.999   2.418 -0.0858 -0.0459 -0.3095
 7459TIP3    H143868   2.245   4.013   2.325  0.6826 -2.0541 -0.4965
 7459TIP3    H243869   2.283   3.923   2.441 -1.0034 -0.1706  1.5600
 7460TIP3   OH243870   4.103   3.491   4.105  0.2265 -0.0995 -0.5267
 7460TIP3    H143871   4.179   3.531   4.148  0.2763 -0.3560 -0.3698
 7460TIP3    H243872   4.052   3.455   4.178 -0.7774  1.3169 -0.5185
 7461TIP3   OH243873   1.559   0.330  15.939  0.4157 -0.5176  0.2482
 7461TIP3    H143874   1.629   0.299  15.882  2.4471 -0.4893  2.6207
 7461TIP3    H243875   1.554   0.264  16.008 -1.3270 -0.0884  0.5441
 7462TIP3   OH243876   4.131   2.641  14.314 -0.1383  0.1070 -0.0546
 7462TIP3    H143877   4.124   2.729  14.278  1.9071  0.0671 -0.6423
 7462TIP3    H243878   4.161   2.654  14.404  0.5973  0.0065 -0.2819
 7463TIP3   OH243879   3.194   0.287  15.665 -0.8216 -0.0810 -0.3232
 7463TIP3    H143880   3.146   0.230  15.605 -1.0086 -1.7757  1.4101
 7463TIP3    H243881   3.133   0.358  15.685 -1.1034 -0.0277 -1.3699
 7464TIP3   OH243882   1.115   4.250   0.220 -0.1554 -0.2542 -0.4193
 7464TIP3    H143883   1.118   4.280   0.130  2.3024  0.9195  0.0242
 7464TIP3    H243884   1.191   4.194   0.230 -1.3119 -1.7053  0.4875
 7465TIP3   OH243885   4.493   5.186   0.056 -0.5124 -0.1734  0.0002
 7465TIP3    H143886   4.478   5.266   0.108 -0.0146  0.3824 -0.7067
 7465TIP3    H243887   4.405   5.156   0.033 -0.6781  1.1214 -1.1480
 7466TIP3   OH243888   5.455   0.686  16.785 -0.2327 -0.0273  0.0387
 7466TIP3    H143889   5.454   0.755  16.719  1.4264  0.5826  0.6159
 7466TIP3    H243890   5.455   0.605  16.735 -0.2874  0.4074 -0.6756
 7467TIP3   OH243891   4.950   4.141   3.359  0.0903 -0.2048 -0.2286
 7467TIP3    H143892   4.953   4.219   3.304  0.2745 -0.2192 -0.2379
 7467TIP3    H243893   4.857   4.119   3.364  0.0741 -0.2114 -0.5444
 7468TIP3   OH243894   1.908   3.168  16.939  0.0004 -0.2800 -0.2446
 7468TIP3    H143895   1.820   3.204  16.944  0.3317  1.1621 -3.7600
 7468TIP3    H243896   1.950   3.196  17.021 -2.5529 -0.3821  1.1217
 7469TIP3   OH243897   2.606   1.537   1.687 -0.3983  0.1302 -0.4614
 7469TIP3    H143898   2.624   1.444   1.676 -2.0095 -0.1639 -0.6910
 7469TIP3    H243899   2.651   1.561   1.768  1.0665 -0.5475 -1.0674
 7470TIP3   OH243900   1.425   5.261  14.522 -0.4652  0.5547 -0.4428
 7470TIP3    H143901   1.349   5.241  14.467  0.7968  1.2083 -2.4507
 7470TIP3    H243902   1.470   5.177  14.533 -0.0858  0.6328 -1.3841
 7471TIP3   OH243903   3.930   1.829  10.949  0.1541  0.2387  0.3327
 7471TIP3    H143904   3.848   1.877  10.953  0.1417  0.3287 -0.9004
 7471TIP3    H243905   3.997   1.896  10.938  0.0727 -0.0547 -2.0947
 7472TIP3   OH243906   2.938   6.037  13.179 -0.4175 -0.1020 -0.0474
 7472TIP3    H143907   2.976   6.064  13.095 -1.7520 -0.9764 -0.9411
 7472TIP3    H243908   2.956   5.944  13.184  1.4087  0.3037  1.5843
 7473TIP3   OH243909   1.409   6.731   4.902 -0.1803 -0.0874  0.4401
 7473TIP3    H143910   1.456   6.704   4.981  1.0479 -3.0446 -1.2033
 7473TIP3    H243911   1.407   6.652   4.847  0.4933  2.2905 -3.2060
 7474TIP3   OH243912   1.574   0.216  14.809 -0.0125 -0.0470  0.0301
 7474TIP3    H143913   1.638   0.236  14.741 -0.8317  0.3606 -0.6261
 7474TIP3    H243914   1.626   0.212  14.890  0.4104  3.5101  0.0053
 7475TIP3   OH243915   2.286   4.946  15.055 -0.4936  0.3276 -0.4025
 7475TIP3    H143916   2.328   4.974  15.136 -2.4359 -2.0920  1.4924
 7475TIP3    H243917   2.302   4.852  15.050 -0.6820  0.3768 -2.6761
 7476TIP3   OH243918   6.157   2.105   2.685 -0.1054 -0.2094  0.2581
 7476TIP3    H143919   6.063   2.122   2.690  0.2353  1.1233  3.3806
 7476TIP3    H243920   6.197   2.191   2.682  1.0242 -0.7739 -0.9289
 7477TIP3   OH243921   0.714   4.156  11.447 -0.4334  0.2669  0.3643
 7477TIP3    H143922   0.628   4.192  11.467 -1.1140 -1.0388 -0.1163
 7477TIP3    H243923   0.734   4.189  11.359 -1.1140 -0.6070 -0.1308
 7478TIP3   OH243924   2.301   4.198  12.366  0.2114  0.0663 -0.1409
 7478TIP3    H143925   2.249   4.262  12.414 -0.9130 -0.4534 -0.6568
 7478TIP3    H243926   2.389   4.237  12.362  0.3538  0.0819  2.3854
 7479TIP3   OH243927   3.604   1.922   3.776  0.2590 -0.0275 -0.0490
 7479TIP3    H143928   3.529   1.867   3.755  0.3333 -0.3025  0.4062
 7479TIP3    H243929   3.610   1.919   3.872 -0.3737  1.6011  0.0676
 7480TIP3   OH243930   0.226   1.398  12.428  0.1395 -0.0621  0.1465
 7480TIP3    H143931   0.207   1.345  12.506  1.1819 -0.8987 -0.1502
 7480TIP3    H243932   0.171   1.476  12.437 -0.6520 -0.7212  1.1111
 7481TIP3   OH243933   2.568   6.440   2.668  0.0387  0.6369 -0.4618
 7481TIP3    H143934   2.488   6.401   2.703 -0.3403  1.2401 -0.6403
 7481TIP3    H243935   2.539   6.492   2.593  0.6893  0.3354 -0.9270
 7482TIP3   OH243936   4.941   6.376  15.689 -0.0031  0.0971  0.1682
 7482TIP3    H143937   4.961   6.306  15.752  0.4900  0.6218  0.6068
 7482TIP3    H243938   4.990   6.451  15.722 -1.8808  1.1372  0.6775
 7483TIP3   OH243939   1.977   6.126  15.060  0.0027 -0.2936 -0.0184
 7483TIP3    H143940   2.007   6.138  15.150 -0.7504 -1.2981  0.3688
 7483TIP3    H243941   1.982   6.032  15.045  1.0300 -0.0269 -1.3501
 7484TIP3   OH243942   2.187   0.658   2.650  0.2706  0.4901  0.0192
 7484TIP3    H143943   2.208   0.572   2.613  0.4151 -0.4872  2.2711
 7484TIP3    H243944   2.142   0.637   2.733  1.9943  2.5719  1.5179
 7485TIP3   OH243945   2.809   0.344   6.175  0.6147  0.3606  0.6809
 7485TIP3    H143946   2.819   0.436   6.200 -0.8127  0.1512  2.0719
 7485TIP3    H243947   2.875   0.298   6.227 -0.8336  0.2100  2.4108
 7486TIP3   OH243948   2.981   2.576   5.467  0.1015 -0.0712  0.1583
 7486TIP3    H143949   2.964   2.669   5.480 -0.3904 -0.2331  0.6990
 7486TIP3    H243950   2.967   2.537   5.554  1.2978 -0.4943  0.1803
 7487TIP3   OH243951   1.127   0.951  13.077  0.7846 -0.0981  0.7172
 7487TIP3    H143952   1.076   1.017  13.124 -1.2450 -0.3871 -1.0226
 7487TIP3    H243953   1.084   0.868  13.097 -1.2337 -0.0526 -2.9658
 7488TIP3   OH243954   5.996   5.260  12.993  0.1388  0.0578  0.1421
 7488TIP3    H143955   6.091   5.255  12.982  0.2460 -0.5974  1.2956
 7488TIP3    H243956   5.961   5.250  12.904  1.1195 -0.4541 -0.1925
 7489TIP3   OH243957   5.333   5.621   0.248  0.0864 -0.6012 -0.3579
 7489TIP3    H143958   5.355   5.708   0.214  0.1662 -0.4869 -0.0239
 7489TIP3    H243959   5.333   5.564   0.172 -0.9097 -0.1250 -0.7160
 7490TIP3   OH243960   0.188   0.660   5.970 -0.0283 -0.2108  0.0769
 7490TIP3    H143961   0.115   0.714   5.939 -1.1796 -1.1113  1.1676
 7490TIP3    H243962   0.203   0.690   6.060  1.7087  0.7384 -0.5014
 7491TIP3   OH243963   2.088   6.586  14.038 -0.3164 -0.3911  0.7474
 7491TIP3    H143964   1.997   6.610  14.054  0.1582  0.7463  1.7864
 7491TIP3    H243965   2.138   6.666  14.054  1.0310 -1.4197  1.8806
 7492TIP3   OH243966   6.458   6.319   2.658 -0.2217 -0.3750 -0.4417
 7492TIP3    H143967   6.515   6.249   2.624 -0.1236  0.0118 -1.0884
 7492TIP3    H243968   6.519   6.381   2.699 -0.1526  0.1454 -1.3219
 7493TIP3   OH243969   0.408   2.117   0.811  0.2083  0.4169 -0.4125
 7493TIP3    H143970   0.358   2.144   0.888  0.7946  0.2950  0.0199
 7493TIP3    H243971   0.457   2.195   0.785 -1.1339  0.8841 -1.5804
 7494TIP3   OH243972   5.425   4.868   2.445 -0.1777 -0.1032  0.0298
 7494TIP3    H143973   5.347   4.858   2.390 -0.0156 -1.8255  0.0629
 7494TIP3    H243974   5.404   4.818   2.524  1.0793 -0.8823 -0.1089
 7495TIP3   OH243975   0.408   3.609  16.483 -0.3148 -0.4903  0.3021
 7495TIP3    H143976   0.410   3.616  16.578 -1.8249  3.0375  0.1577
 7495TIP3    H243977   0.320   3.575  16.463 -0.0234 -1.1667  0.1592
 7496TIP3   OH243978   6.610   0.031  13.748  0.3070 -0.1121  0.2504
 7496TIP3    H143979   6.545   0.013  13.680  0.5562  1.2275 -0.3634
 7496TIP3    H243980   6.572  -0.004  13.828 -1.6171  1.5077  0.0845
 7497TIP3   OH243981   6.629   1.750   1.801  0.8302 -1.0487  0.2371
 7497TIP3    H143982   6.567   1.823   1.811  3.0289  0.7279  1.3900
 7497TIP3    H243983   6.603   1.687   1.868 -1.0215 -1.3027 -0.6913
 7498TIP3   OH243984   5.326   0.325   2.778  0.3759  0.1129 -0.6975
 7498TIP3    H143985   5.404   0.269   2.784  0.4558  0.3928  1.3602
 7498TIP3    H243986   5.271   0.296   2.851 -0.1580  1.8705 -0.3932
 7499TIP3   OH243987   0.428   4.289   4.239  0.9421 -0.1381  0.2311
 7499TIP3    H143988   0.476   4.206   4.236  1.3671  0.1330 -0.8684
 7499TIP3    H243989   0.378   4.285   4.320  0.0624 -1.9777 -0.3756
 7500TIP3   OH243990   4.273   1.992  13.049 -0.4567 -0.0808  0.0149
 7500TIP3    H143991   4.259   2.079  13.088 -0.9725  0.6397 -1.7276
 7500TIP3    H243992   4.365   1.973  13.064  0.1831  1.7400 -1.4799
 7501TIP3   OH243993   1.588   3.374   2.227 -0.2561 -0.1474  0.2824
 7501TIP3    H143994   1.656   3.381   2.160  1.3227  1.3905  2.0177
 7501TIP3    H243995   1.565   3.281   2.228  1.4910 -0.6115 -0.6355
 7502TIP3   OH243996   3.699   5.083   1.162 -0.2676  0.1767  0.1107
 7502TIP3    H143997   3.673   5.175   1.155 -4.0622 -0.8109  0.0998
 7502TIP3    H243998   3.653   5.039   1.091  0.6923 -1.8989  0.7178
 7503TIP3   OH243999   4.647   0.680   1.748 -0.3574  0.1140 -0.0874
 7503TIP3    H144000   4.720   0.636   1.705 -0.7000 -0.2178 -0.3404
 7503TIP3    H244001   4.617   0.617   1.814  0.1973  0.6426  0.6697
 7504TIP3   OH244002   0.727   3.358  12.691 -0.3761 -0.0649  0.3612
 7504TIP3    H144003   0.698   3.445  12.663  0.6993  0.3262  0.4678
 7504TIP3    H244004   0.741   3.367  12.786 -0.9510 -0.5524  0.5024
 7505TIP3   OH244005   4.996   6.492   0.012  0.3532 -0.7687 -0.0464
 7505TIP3    H144006   4.972   6.548   0.086 -1.8387 -1.2400 -0.3507
 7505TIP3    H244007   5.037   6.415   0.053 -1.3668 -1.2953  0.7778
 7506TIP3   OH244008   4.051   6.268   2.097 -0.1125 -0.0653 -0.2942
 7506TIP3    H144009   4.016   6.350   2.133 -1.8982 -1.7633  1.9251
 7506TIP3    H244010   4.124   6.246   2.156 -1.2373 -1.3695  0.6243
 7507TIP3   OH244011   1.174   2.509  13.008  0.6116 -0.7682  0.7367
 7507TIP3    H144012   1.217   2.581  13.055  0.1467 -0.9871  1.5076
 7507TIP3    H244013   1.089   2.545  12.983  1.5482 -0.0347 -1.5698
 7508TIP3   OH244014   1.864   5.510  16.083 -0.5258 -0.5319  0.0696
 7508TIP3    H144015   1.895   5.600  16.094  1.8567 -1.3759  0.5857
 7508TIP3    H244016   1.905   5.462  16.155 -2.1070 -1.9565  0.0401
 7509TIP3   OH244017   2.658   6.048  13.603  1.3121  0.0944 -0.3062
 7509TIP3    H144018   2.579   6.062  13.552  0.9217  0.1802  0.3228
 7509TIP3    H244019   2.678   5.955  13.591  0.1553 -0.3252  0.9037
 7510TIP3   OH244020   4.280   2.539  16.741  0.5433  0.2873  0.5080
 7510TIP3    H144021   4.334   2.496  16.675 -1.9743  0.9210 -2.0876
 7510TIP3    H244022   4.219   2.470  16.770 -1.7191  1.2694 -1.6830
 7511TIP3   OH244023   4.491   1.014   2.183  0.2867 -0.1700 -0.6861
 7511TIP3    H144024   4.518   0.926   2.155  1.1551  0.3596 -1.5648
 7511TIP3    H244025   4.400   1.022   2.152 -0.2153 -1.1987  0.4757
 7512TIP3   OH244026   5.473   3.826   2.632 -0.9243 -0.3474 -0.3765
 7512TIP3    H144027   5.490   3.886   2.559 -1.7789 -1.5285 -1.5740
 7512TIP3    H244028   5.401   3.867   2.680  0.3394  0.9615  0.4211
 7513TIP3   OH244029   0.465   3.349   1.672  0.0012  0.3969 -0.1583
 7513TIP3    H144030   0.524   3.349   1.747  2.2372 -0.1632 -1.8537
 7513TIP3    H244031   0.421   3.264   1.676  1.4855 -0.4055 -0.4907
 7514TIP3   OH244032   1.065   3.963   0.082 -0.2286 -0.2120  0.0469
 7514TIP3    H144033   1.141   3.969   0.140 -0.1382  0.6985 -0.1661
 7514TIP3    H244034   1.100   3.933  -0.001 -0.2859 -1.0166  0.3058
 7515TIP3   OH244035   2.956   4.052   2.862 -0.5839  0.1131 -0.2391
 7515TIP3    H144036   2.989   4.035   2.774 -3.1625  0.2134 -1.2941
 7515TIP3    H244037   2.918   4.139   2.857 -3.3253 -0.9860  0.1028
 7516TIP3   OH244038   6.487   1.675  14.332 -0.4299  0.0533 -0.0745
 7516TIP3    H144039   6.418   1.708  14.390 -0.0876  0.3636  0.1630
 7516TIP3    H244040   6.568   1.687  14.383  0.1453  2.4230 -1.4720
 7517TIP3   OH244041   6.400   1.003  15.685 -0.2716 -0.2726 -0.4910
 7517TIP3    H144042   6.341   0.931  15.663  0.7914 -1.6461  1.1034
 7517TIP3    H244043   6.488   0.964  15.684  0.4621  1.3282 -0.9910
 7518TIP3   OH244044   6.398   2.624  14.974 -0.0670 -0.0738  0.3000
 7518TIP3    H144045   6.314   2.638  14.930 -0.0203  1.7647  0.7686
 7518TIP3    H244046   6.408   2.700  15.031  2.6207  0.4959 -0.8864
 7519TIP3   OH244047   1.503   3.358  11.048  0.1933  0.2440  0.0106
 7519TIP3    H144048   1.420   3.401  11.025 -0.1517 -1.5199 -2.1559
 7519TIP3    H244049   1.477   3.276  11.089  0.8930  0.5932  1.1960
 7520TIP3   OH244050   1.042   5.140  11.685  0.0803 -0.5506  0.7320
 7520TIP3    H144051   1.058   5.224  11.642 -1.5330 -0.0891  0.9941
 7520TIP3    H244052   1.130   5.106  11.704  0.7770  0.3996 -0.6565
 7521TIP3   OH244053   2.287   5.764  17.224 -0.9082 -0.4871  0.0156
 7521TIP3    H144054   2.209   5.772  17.278 -0.8577 -1.2722  0.2096
 7521TIP3    H244055   2.280   5.677  17.184  0.1231 -0.7754  0.4414
 7522TIP3   OH244056   1.698   4.473   0.664 -0.3190 -0.0628 -0.0932
 7522TIP3    H144057   1.697   4.410   0.736 -0.5728  0.2242  0.1543
 7522TIP3    H244058   1.607   4.476   0.634 -0.6131  1.3497  0.9049
 7523TIP3   OH244059   4.615   4.394  14.213 -0.6510  0.8375 -0.1991
 7523TIP3    H144060   4.536   4.342  14.204  0.1313 -0.2237 -1.0401
 7523TIP3    H244061   4.634   4.393  14.307  0.3340 -1.9161 -0.3945
 7524TIP3   OH244062   1.883   1.852   0.776  0.7893 -0.5923 -0.1777
 7524TIP3    H144063   1.907   1.936   0.737  3.9005 -1.4222 -0.2077
 7524TIP3    H244064   1.805   1.825   0.728 -0.6167  2.5261  0.2376
 7525TIP3   OH244065   5.611   6.049  13.378 -0.3598  0.7968 -0.0195
 7525TIP3    H144066   5.701   6.066  13.351 -0.4201 -0.0189 -0.7342
 7525TIP3    H244067   5.609   5.956  13.402 -1.0715  0.7471 -0.2486
 7526TIP3   OH244068   5.749   1.614   4.216 -0.9124 -0.3244 -0.5622
 7526TIP3    H144069   5.654   1.624   4.203 -0.5849  0.8923 -2.2555
 7526TIP3    H244070   5.765   1.520   4.209 -2.1572 -0.6598  0.9557
 7527TIP3   OH244071   4.963   2.247  14.061  0.7672 -0.0919 -0.1601
 7527TIP3    H144072   4.969   2.152  14.055  0.8615 -0.0707 -0.4396
 7527TIP3    H244073   5.013   2.278  13.985  1.0645  0.1873  0.1527
 7528TIP3   OH244074   1.885   4.314   2.567  0.0393  0.2236  0.0310
 7528TIP3    H144075   1.968   4.298   2.521  0.1730 -0.6164  0.5461
 7528TIP3    H244076   1.903   4.388   2.625 -0.4257  1.9644 -1.9966
 7529TIP3   OH244077   2.217   0.459  17.046 -0.4193  0.2370 -0.1645
 7529TIP3    H144078   2.312   0.448  17.040 -0.3439 -0.5711  1.7808
 7529TIP3    H244079   2.182   0.373  17.024 -0.7669  0.8130 -1.9059
 7530TIP3   OH244080   5.205   3.150   0.146 -0.1833  0.1334 -0.4267
 7530TIP3    H144081   5.247   3.236   0.142 -0.0539  0.1266  0.8104
 7530TIP3    H244082   5.144   3.150   0.072  1.1453  0.5836 -1.5525
 7531TIP3   OH244083   5.693   1.182   5.677 -0.7568  0.0831 -0.3185
 7531TIP3    H144084   5.668   1.118   5.744 -0.7820  2.1598  1.7061
 7531TIP3    H244085   5.617   1.190   5.620 -2.4032  1.6079  2.0443
 7532TIP3   OH244086   6.115   4.125   1.196  0.0090 -0.0198  0.5156
 7532TIP3    H144087   6.099   4.218   1.179 -0.1196 -0.2912 -0.9061
 7532TIP3    H244088   6.198   4.107   1.150  0.7182 -0.3051  1.8820
 7533TIP3   OH244089   6.773   1.937  11.618 -0.1947 -0.1318  0.8570
 7533TIP3    H144090   6.799   1.872  11.684  0.6472 -1.2074 -0.5073
 7533TIP3    H244091   6.790   1.894  11.534  1.0334  2.1114 -0.0918
 7534TIP3   OH244092   3.584   1.690   2.417  0.0633 -0.1130  0.3719
 7534TIP3    H144093   3.642   1.718   2.346  0.9817 -3.1046 -0.1367
 7534TIP3    H244094   3.621   1.730   2.496  1.2096  0.2524 -0.3456
 7535TIP3   OH244095   1.964   5.384   1.496 -0.3564 -0.1269  0.1169
 7535TIP3    H144096   2.024   5.407   1.425  0.2278 -0.5717  0.4724
 7535TIP3    H244097   1.917   5.307   1.463 -0.0697 -0.3464  0.2231
 7536TIP3   OH244098   5.427   4.088   5.998 -0.1453  0.0939 -0.0871
 7536TIP3    H144099   5.465   4.000   5.992 -0.2756  0.0533 -0.3340
 7536TIP3    H244100   5.332   4.073   5.999 -0.1503  0.1586  1.2120
 7537TIP3   OH244101   5.884   4.609   2.192  0.0450 -0.2502  0.1600
 7537TIP3    H144102   5.811   4.604   2.255  1.5560 -1.5141  1.8924
 7537TIP3    H244103   5.861   4.546   2.124 -0.7536 -0.2430  0.4172
 7538TIP3   OH244104   4.455   0.886   3.894  0.4630  0.2638 -0.2614
 7538TIP3    H144105   4.374   0.836   3.897  0.5798 -0.0390 -1.7288
 7538TIP3    H244106   4.442   0.957   3.958  0.5543 -1.9666  2.3236
 7539TIP3   OH244107   2.081   1.203   5.346 -0.6987 -0.0826 -0.0024
 7539TIP3    H144108   2.116   1.272   5.290 -2.0664 -0.1553 -0.9552
 7539TIP3    H244109   2.041   1.249   5.420 -1.0267  0.1132 -0.3023
 7540TIP3   OH244110   4.852   1.021   0.613  0.2543  0.9497  0.2259
 7540TIP3    H144111   4.799   0.971   0.676  0.8351 -1.1940 -0.9484
 7540TIP3    H244112   4.942   1.006   0.640  0.7327 -2.8855 -3.0995
 7541TIP3   OH244113   3.034   4.780   2.378  0.2080 -0.1900  0.3760
 7541TIP3    H144114   3.006   4.871   2.386 -1.3142 -0.3154 -2.7991
 7541TIP3    H244115   2.958   4.729   2.405  1.0301 -0.5467  2.0694
 7542TIP3   OH244116   3.009   2.174   4.062 -0.1453  0.6608  0.0330
 7542TIP3    H144117   2.994   2.214   3.976  1.4797  0.4055 -0.3796
 7542TIP3    H244118   3.104   2.164   4.068 -0.3007 -0.0580  1.5373
 7543TIP3   OH244119   3.389   2.597   1.364  0.2535  0.6069 -0.4405
 7543TIP3    H144120   3.453   2.567   1.299  0.5262 -0.1180  0.1518
 7543TIP3    H244121   3.426   2.568   1.448 -1.3749 -0.7938 -0.1825
 7544TIP3   OH244122   1.131   1.679  12.543  0.2022  0.4582 -0.2610
 7544TIP3    H144123   1.091   1.608  12.492 -0.4304 -0.4617  1.4602
 7544TIP3    H244124   1.072   1.691  12.618  0.8808  2.0665  0.0392
 7545TIP3   OH244125   3.017   5.998  13.440 -0.9027  0.1489  0.2085
 7545TIP3    H144126   3.030   6.041  13.356 -0.1640 -2.2053 -0.9143
 7545TIP3    H244127   3.086   6.035  13.496 -0.7069  0.9282 -0.5324
 7546TIP3   OH244128   2.340   2.183  11.026 -0.2433 -0.4666 -0.2841
 7546TIP3    H144129   2.260   2.154  10.983 -0.9668 -0.8319  1.2573
 7546TIP3    H244130   2.406   2.184  10.957 -1.2836 -1.3535 -1.3108
 7547TIP3   OH244131   2.726   3.645  16.397  0.0015 -0.3524 -0.2156
 7547TIP3    H144132   2.723   3.550  16.389 -1.3750 -0.4068  0.7861
 7547TIP3    H244133   2.713   3.661  16.490  2.9405  0.7331  0.0758
 7548TIP3   OH244134   4.724   5.301   4.253 -0.1809  0.3222 -0.4344
 7548TIP3    H144135   4.709   5.230   4.315 -0.3603 -0.6287 -1.5300
 7548TIP3    H244136   4.813   5.287   4.222 -0.8644 -0.6206 -2.0924
 7549TIP3   OH244137   0.934   1.122  11.916  0.4800 -0.6307  0.0698
 7549TIP3    H144138   0.949   1.191  11.980 -0.3559  0.0576 -0.4619
 7549TIP3    H244139   1.020   1.084  11.902  0.6631 -0.8359  1.6409
 7550TIP3   OH244140   4.481   1.824   4.401 -0.1539  0.2164  0.4837
 7550TIP3    H144141   4.440   1.737   4.397 -1.3107  0.8136 -1.2504
 7550TIP3    H244142   4.533   1.830   4.321  2.7051 -0.1633  2.2098
 7551TIP3   OH244143   2.558   4.261  12.398  0.6012 -0.0734 -0.1867
 7551TIP3    H144144   2.614   4.287  12.325  1.4087 -0.8365  0.1485
 7551TIP3    H244145   2.619   4.238  12.468 -0.1755  1.3665  0.9895
 7552TIP3   OH244146   4.780   2.177  13.701 -0.6581  0.0319  0.2014
 7552TIP3    H144147   4.706   2.126  13.732 -0.2435 -0.3183  0.6274
 7552TIP3    H244148   4.821   2.122  13.634 -2.0763  1.1646 -1.6392
 7553TIP3   OH244149   3.770   0.253   0.528 -0.0316  0.7207 -0.0779
 7553TIP3    H144150   3.730   0.170   0.552 -2.5139  1.5239 -1.2573
 7553TIP3    H244151   3.704   0.319   0.550  0.6083  2.0763 -2.0603
 7554TIP3   OH244152   0.324   0.185   6.046  0.1361  0.6561  0.7938
 7554TIP3    H144153   0.299   0.126   6.118 -0.1581  0.3329  0.4280
 7554TIP3    H244154   0.384   0.134   5.993 -0.6980  0.4140  0.0577
 7555TIP3   OH244155   4.892   6.670  11.654  0.2895 -0.0550 -0.3527
 7555TIP3    H144156   4.866   6.692  11.565  1.0970 -0.2264 -0.6370
 7555TIP3    H244157   4.921   6.754  11.692 -0.8076  0.1703  0.0237
 7556TIP3   OH244158   3.372   4.875  15.762  0.3933  0.4877 -0.4064
 7556TIP3    H144159   3.333   4.953  15.800  1.4283  1.0022 -0.3945
 7556TIP3    H244160   3.309   4.847  15.695 -1.2180 -0.1578  1.3108
 7557TIP3   OH244161   1.849   3.723   4.677  0.0940  0.2621 -0.6015
 7557TIP3    H144162   1.771   3.751   4.724  0.2637 -0.9671  0.4367
 7557TIP3    H244163   1.855   3.629   4.694  1.7342  0.3207 -0.7695
 7558TIP3   OH244164   2.273   6.464  15.304  0.4450 -0.6426 -0.3678
 7558TIP3    H144165   2.266   6.549  15.260  0.3910 -0.5530 -0.1858
 7558TIP3    H244166   2.291   6.402  15.233 -0.1381 -0.5708 -0.5800
 7559TIP3   OH244167   2.095   0.201   1.948 -0.8856 -0.1749 -0.5793
 7559TIP3    H144168   2.090   0.261   2.022  0.7497 -0.0888 -0.5131
 7559TIP3    H244169   2.089   0.113   1.987 -1.2979 -0.1074 -0.4842
 7560TIP3   OH244170   5.755   5.184  16.830 -0.4156  0.1994 -0.8329
 7560TIP3    H144171   5.803   5.249  16.882  1.2649  1.0014 -3.3158
 7560TIP3    H244172   5.794   5.100  16.854  0.3249  0.5611 -0.7635
 7561TIP3   OH244173   4.794   2.663   2.526  0.4521  0.1334  0.2959
 7561TIP3    H144174   4.875   2.691   2.568  0.6559  0.4227 -0.2934
 7561TIP3    H244175   4.822   2.611   2.451  0.0780 -1.9084  1.5386
 7562TIP3   OH244176   0.800   6.487  15.167  0.0126 -0.3720  0.3186
 7562TIP3    H144177   0.749   6.517  15.092  0.4631  2.6699  1.1710
 7562TIP3    H244178   0.755   6.407  15.196 -1.3969 -0.4079 -1.8467
 7563TIP3   OH244179   5.502   2.612   1.318 -0.1042 -0.1843 -0.0434
 7563TIP3    H144180   5.441   2.647   1.382 -1.2210  0.8827 -1.6392
 7563TIP3    H244181   5.493   2.517   1.326 -0.8870 -0.0471  0.7713
 7564TIP3   OH244182   0.327   6.361  12.987 -0.1973  0.2365  0.5543
 7564TIP3    H144183   0.412   6.398  12.965  0.6272 -1.8906  0.1158
 7564TIP3    H244184   0.275   6.369  12.907 -0.3400  1.3015  0.7479
 7565TIP3   OH244185   2.465   3.326   4.867 -0.5996 -0.5101 -0.1211
 7565TIP3    H144186   2.379   3.328   4.909 -1.0546  1.2985 -1.0650
 7565TIP3    H244187   2.527   3.339   4.938 -1.2540  0.6689  0.2517
 7566TIP3   OH244188   5.649   3.015   4.124  0.2077 -0.2593  0.2076
 7566TIP3    H144189   5.736   2.994   4.157  0.3413  0.0279  0.0370
 7566TIP3    H244190   5.662   3.092   4.068  0.1815 -1.4321 -1.4711
 7567TIP3   OH244191   3.368   3.372  15.748  0.2905  1.0744 -0.3757
 7567TIP3    H144192   3.463   3.384  15.739  0.3326 -0.0573 -1.5537
 7567TIP3    H244193   3.332   3.460  15.745  1.2000  1.4282 -1.2752
 7568TIP3   OH244194   4.369   3.604   3.989 -0.6931  0.1838 -0.2097
 7568TIP3    H144195   4.351   3.537   3.923 -0.7814 -0.8464  0.8602
 7568TIP3    H244196   4.356   3.687   3.942 -3.5311 -0.5196 -0.7405
 7569TIP3   OH244197   0.077   0.950   1.514 -0.3435  0.1184 -0.2626
 7569TIP3    H144198   0.121   0.925   1.596  0.9988 -0.7292 -1.2262
 7569TIP3    H244199  -0.016   0.941   1.534 -0.0434  0.0532  1.2161
 7570TIP3   OH244200   5.813   5.021   6.559  0.0179 -0.1891  0.0595
 7570TIP3    H144201   5.761   5.007   6.480 -0.5732 -0.1496  0.4423
 7570TIP3    H244202   5.805   4.939   6.608 -1.3753  0.5517  1.0981
 7571TIP3   OH244203   1.617   4.216  13.562  0.2951 -0.0534 -0.3262
 7571TIP3    H144204   1.671   4.228  13.484  1.3880  1.7038  0.6587
 7571TIP3    H244205   1.662   4.266  13.630  0.1454 -2.7216  1.8243
 7572TIP3   OH244206   6.286   0.917   0.130 -0.2893 -0.0301  0.2066
 7572TIP3    H144207   6.292   0.884   0.219  1.1323 -1.2480 -0.3150
 7572TIP3    H244208   6.277   1.012   0.140 -0.5881 -0.2022  1.6414
 7573TIP3   OH244209   3.513   4.212   0.868  0.1469  0.8943 -0.2774
 7573TIP3    H144210   3.533   4.126   0.831 -0.5730  0.2278  0.8726
 7573TIP3    H244211   3.429   4.236   0.828  2.1659  2.8612 -3.6521
 7574TIP3   OH244212   3.893   3.247  11.910 -0.1066  0.4555 -0.3836
 7574TIP3    H144213   3.927   3.165  11.947  0.1470  0.3480 -0.8550
 7574TIP3    H244214   3.801   3.229  11.893 -0.4292  0.7832  1.0007
 7575TIP3   OH244215   2.128   3.439  12.490  0.4926  0.0925 -0.0672
 7575TIP3    H144216   2.106   3.531  12.506  1.5784  0.0546  1.7606
 7575TIP3    H244217   2.139   3.433  12.395 -3.9110  0.8510 -0.7032
 7576TIP3   OH244218   5.161   3.656  17.070  0.4779  0.4695 -0.2246
 7576TIP3    H144219   5.129   3.693  17.152  0.9268 -0.0580  0.1897
 7576TIP3    H244220   5.116   3.572  17.061  0.7015  0.3581 -0.3293
 7577TIP3   OH244221   6.758   1.974  15.514  0.3997  0.2688 -0.4772
 7577TIP3    H144222   6.809   1.968  15.595  0.1687  0.0108 -0.3485
 7577TIP3    H244223   6.821   2.005  15.449  0.7589 -0.1826 -0.3513
 7578TIP3   OH244224   5.371   2.401   4.090 -0.2161  0.4430 -0.2392
 7578TIP3    H144225   5.444   2.402   4.029  1.1946 -0.6429  1.4062
 7578TIP3    H244226   5.348   2.493   4.100  2.5582  1.0316  1.1296
 7579TIP3   OH244227   6.724   0.664   5.763 -0.2727 -0.5267  0.2859
 7579TIP3    H144228   6.806   0.621   5.740  1.8610  1.8580  3.2502
 7579TIP3    H244229   6.739   0.757   5.746 -1.4858  0.2414  3.1046
 7580TIP3   OH244230   6.095   4.516  11.157 -0.0792 -0.3841  0.1887
 7580TIP3    H144231   6.005   4.484  11.162 -1.2483  2.6997  0.2706
 7580TIP3    H244232   6.111   4.529  11.064 -0.3987  0.7666  0.2796
 7581TIP3   OH244233   4.464   4.136  16.586  0.2379  0.0764 -0.3231
 7581TIP3    H144234   4.537   4.140  16.524  0.6913  1.2683  0.2643
 7581TIP3    H244235   4.500   4.096  16.665 -0.2827 -1.2368 -0.7334
 7582TIP3   OH244236   1.618   4.272   2.529 -0.5843 -0.2143 -0.1804
 7582TIP3    H144237   1.615   4.176   2.532 -1.5945 -0.1986 -0.5722
 7582TIP3    H244238   1.710   4.293   2.547 -0.9652 -1.1395  3.4002
 7583TIP3   OH244239   6.669   0.235   0.057  0.1119  0.4720 -0.8116
 7583TIP3    H144240   6.696   0.283   0.135 -0.0185 -1.0709  0.1995
 7583TIP3    H244241   6.649   0.146   0.088 -1.3500  0.2232 -2.3439
 7584TIP3   OH244242   5.315   6.310  12.787 -0.0872  0.5799  0.5055
 7584TIP3    H144243   5.231   6.294  12.745  0.5567 -1.8339  0.0469
 7584TIP3    H244244   5.326   6.235  12.847  1.8244  0.7492  0.3843
 7585TIP3   OH244245   3.530   3.795   2.354  0.4448 -0.7349 -0.0168
 7585TIP3    H144246   3.484   3.869   2.314  0.9767 -0.0573  0.6040
 7585TIP3    H244247   3.533   3.729   2.285 -0.3894 -0.3307 -0.4521
 7586TIP3   OH244248   5.093   3.340   4.671 -0.3020  0.1127 -0.2749
 7586TIP3    H144249   5.155   3.398   4.715  0.4205 -0.2371 -0.8122
 7586TIP3    H244250   5.007   3.380   4.686  0.2528  1.7123 -1.2645
 7587TIP3   OH244251   1.748   0.019  15.782 -0.1551 -0.0851 -0.1305
 7587TIP3    H144252   1.733   0.040  15.690  1.4996  1.0947 -0.1437
 7587TIP3    H244253   1.821   0.075  15.809  0.5732 -1.6913  1.4127
 7588TIP3   OH244254   5.885   0.245   1.825  0.1934 -0.2091  0.1877
 7588TIP3    H144255   5.887   0.308   1.897  3.0668  0.7590 -0.6500
 7588TIP3    H244256   5.813   0.274   1.769  1.2783  2.2004 -0.0349
 7589TIP3   OH244257   5.209   2.635  16.634  0.4652  0.0477 -0.4082
 7589TIP3    H144258   5.118   2.664  16.629  0.3006 -0.2167  0.8985
 7589TIP3    H244259   5.260   2.716  16.628  0.0886  0.3682  0.6636
 7590TIP3   OH244260   5.972   3.282  16.388  0.1722 -0.5502  0.3558
 7590TIP3    H144261   5.922   3.238  16.320  0.5443 -0.3674 -0.0421
 7590TIP3    H244262   5.996   3.213  16.450 -0.1918 -0.7112  0.3115
 7591TIP3   OH244263   2.498   1.221  12.820  0.1043 -0.1023 -0.3733
 7591TIP3    H144264   2.495   1.143  12.764  2.1273  0.0959 -0.8225
 7591TIP3    H244265   2.567   1.275  12.781 -2.2378  2.6132 -0.9513
 7592TIP3   OH244266   5.391   5.278   5.880  0.3083  0.1062 -0.2975
 7592TIP3    H144267   5.373   5.370   5.899  0.1871 -0.2250  1.3182
 7592TIP3    H244268   5.476   5.262   5.923  0.0181 -0.6899 -0.0186
 7593TIP3   OH244269   5.336   1.603  13.531 -0.0798 -0.0359 -0.2479
 7593TIP3    H144270   5.259   1.595  13.587 -1.2633  1.5255 -1.5898
 7593TIP3    H244271   5.346   1.516  13.492 -0.4369 -0.5846  0.8668
 7594TIP3   OH244272   6.382   2.084   1.562 -0.5051  0.1012  0.5846
 7594TIP3    H144273   6.442   2.158   1.572 -1.1938  0.6991  0.3805
 7594TIP3    H244274   6.424   2.027   1.499  0.8274 -0.5089  1.9748
 7595TIP3   OH244275   6.498   2.334  16.393  0.4917 -0.6407 -0.7137
 7595TIP3    H144276   6.577   2.321  16.446  0.3135 -4.1049 -1.1774
 7595TIP3    H244277   6.517   2.289  16.311 -1.8555 -1.2863 -0.9270
 7596TIP3   OH244278   0.543   5.160  16.364 -0.1358 -0.3941  0.6717
 7596TIP3    H144279   0.522   5.245  16.326 -0.2978 -0.2129  1.1645
 7596TIP3    H244280   0.468   5.138  16.419 -0.3313 -1.1025  0.1305
 7597TIP3   OH244281   1.003   3.790  14.349 -0.0489 -0.0311  0.2060
 7597TIP3    H144282   0.914   3.820  14.368 -0.0088 -1.3244  2.6910
 7597TIP3    H244283   0.993   3.700  14.320  0.4840 -0.2810  0.7902
 7598TIP3   OH244284   1.564   2.396  11.655  0.3339 -0.2047 -0.1452
 7598TIP3    H144285   1.594   2.458  11.721  0.6193  0.4246 -0.8549
 7598TIP3    H244286   1.475   2.424  11.634 -0.2734 -1.2481  0.9739
 7599TIP3   OH244287   2.788   4.682   4.703 -0.0219 -0.0875 -0.4419
 7599TIP3    H144288   2.705   4.682   4.751  0.6737 -3.2699  0.8694
 7599TIP3    H244289   2.851   4.642   4.763  2.1180  0.7724 -2.0393
 7600TIP3   OH244290   4.700   4.741  11.189  0.8424  0.0050 -0.1915
 7600TIP3    H144291   4.669   4.666  11.240  0.0526 -0.7803 -1.7846
 7600TIP3    H244292   4.635   4.810  11.206 -0.9868 -1.1332 -2.2730
 7601TIP3   OH244293   2.802   1.225  14.988 -0.0307  0.1853  0.0946
 7601TIP3    H144294   2.869   1.182  14.935 -0.1201  0.7984 -0.5140
 7601TIP3    H244295   2.852   1.270  15.057  0.1021 -0.3420  0.3494
 7602TIP3   OH244296   2.233   3.459  16.172 -0.4976 -0.3673  0.3897
 7602TIP3    H144297   2.245   3.495  16.084 -2.2739  0.1458  0.3325
 7602TIP3    H244298   2.187   3.376  16.158  0.2398 -0.8441  0.7651
 7603TIP3   OH244299   5.515   0.562   4.273 -0.2126 -0.0277  0.9312
 7603TIP3    H144300   5.510   0.468   4.288 -0.3544 -0.1073  0.4108
 7603TIP3    H244301   5.459   0.577   4.197  0.3094  0.3859  0.6227
 7604TIP3   OH244302   5.426   5.458   0.011 -0.5818  0.1263  0.6525
 7604TIP3    H144303   5.370   5.387   0.043 -1.5149  0.7454  0.4096
 7604TIP3    H244304   5.508   5.415  -0.013 -2.3352 -1.4859 -2.8799
 7605TIP3   OH244305   6.685   2.194  15.794  0.3835  0.3341 -0.2127
 7605TIP3    H144306   6.635   2.135  15.737  1.4405  2.8754 -3.9624
 7605TIP3    H244307   6.620   2.229  15.854 -1.0675 -1.3689 -0.7197
 7606TIP3   OH244308   0.210   4.931   0.039  0.0134  0.9085  0.4801
 7606TIP3    H144309   0.204   4.837   0.053  1.5667  0.7867  0.4159
 7606TIP3    H244310   0.224   4.968   0.126 -0.3535  1.0516  0.4766
 7607TIP3   OH244311   3.876   1.218   0.065  0.3985 -0.8780  0.2204
 7607TIP3    H144312   3.911   1.129   0.071 -0.4752 -1.2763 -0.4288
 7607TIP3    H244313   3.783   1.205   0.044  0.2274  0.1856  0.3138
 7608TIP3   OH244314   0.779   3.984  10.936  0.4147  0.0777 -0.0145
 7608TIP3    H144315   0.692   4.008  10.967  0.6239  0.6980  0.1000
 7608TIP3    H244316   0.782   3.888  10.944 -0.2769  0.0526 -0.0865
 7609TIP3   OH244317   0.528   0.080   5.916  0.0014 -0.0941  0.0000
 7609TIP3    H144318   0.570   0.126   5.844  2.1365 -0.4147  1.0190
 7609TIP3    H244319   0.574  -0.004   5.922  2.1500  1.2343  3.8190
 7610TIP3   OH244320   2.712   1.044  16.026 -0.1550  0.5325  0.5512
 7610TIP3    H144321   2.771   1.017  16.097 -0.7772  0.6792  1.1242
 7610TIP3    H244322   2.671   1.125  16.059  0.7362  1.4863 -0.6231
 7611TIP3   OH244323   6.478   2.958  12.603  0.2478 -0.0610 -0.1974
 7611TIP3    H144324   6.400   3.014  12.599  0.6898  0.5097 -0.9697
 7611TIP3    H244325   6.448   2.879  12.648 -0.5912  0.4608  0.1794
 7612TIP3   OH244326   5.202   4.337   3.305  0.2205  0.4043  0.5085
 7612TIP3    H144327   5.263   4.346   3.379  0.1684  1.4570  0.4281
 7612TIP3    H244328   5.240   4.267   3.251  0.8606  0.4130  0.9425
 7613TIP3   OH244329   1.945   0.136   2.275  0.6971  0.2410  0.5215
 7613TIP3    H144330   1.999   0.214   2.264 -0.0493  0.5748 -0.9091
 7613TIP3    H244331   1.926   0.133   2.369  0.5353  1.9116  0.5603
 7614TIP3   OH244332   1.456   4.305   6.062 -0.4730  0.0939  0.1988
 7614TIP3    H144333   1.543   4.270   6.081 -0.2476 -0.8712 -2.4463
 7614TIP3    H244334   1.421   4.328   6.148  1.2871 -2.0878  1.5709
 7615TIP3   OH244335   4.697   1.092  16.532  0.1187  0.1916 -0.2491
 7615TIP3    H144336   4.665   1.001  16.531  1.9778 -0.5219  1.2088
 7615TIP3    H244337   4.637   1.138  16.591  0.0149 -0.4185  0.1252
 7616TIP3   OH244338   6.652   4.568   4.848  1.0740 -0.2834 -0.3401
 7616TIP3    H144339   6.718   4.625   4.809  2.4446 -0.7332  1.2542
 7616TIP3    H244340   6.618   4.516   4.776  2.8157 -0.3791 -1.0895
 7617TIP3   OH244341   5.992   3.143  11.706 -0.5400  0.2018 -0.6766
 7617TIP3    H144342   5.965   3.202  11.635 -0.4065 -0.7915 -1.5648
 7617TIP3    H244343   5.934   3.068  11.699  0.4290 -0.5644 -0.6641
 7618TIP3   OH244344   5.723   5.458   1.815  0.1454 -0.0583 -0.1485
 7618TIP3    H144345   5.738   5.520   1.744 -2.8245  0.0989 -0.7252
 7618TIP3    H244346   5.711   5.512   1.893  0.3241 -0.0594 -0.1199
 7619TIP3   OH244347   1.139   2.233   5.349 -0.2562 -0.3662  0.2013
 7619TIP3    H144348   1.164   2.272   5.265  0.7165  0.7608  0.9989
 7619TIP3    H244349   1.085   2.300   5.391 -0.0328 -0.5808  0.8325
 7620TIP3   OH244350   5.763   2.358  16.335 -0.1338 -1.1572 -0.0821
 7620TIP3    H144351   5.844   2.341  16.384 -0.4305 -0.0669  0.8056
 7620TIP3    H244352   5.699   2.299  16.374 -0.2134 -0.7307  0.4460
 7621TIP3   OH244353   3.365   5.587   5.817 -0.4652 -0.2835  0.0529
 7621TIP3    H144354   3.424   5.660   5.834  0.2725 -0.8973  0.1760
 7621TIP3    H244355   3.283   5.612   5.857 -0.5017  0.8962 -0.7320
 7622TIP3   OH244356   0.706   6.519  13.450 -0.1258 -0.1774  0.0139
 7622TIP3    H144357   0.619   6.558  13.437 -0.4011 -0.3687  1.2266
 7622TIP3    H244358   0.759   6.591  13.485 -0.3771 -0.6274  1.3336
 7623TIP3   OH244359   2.019   6.815  12.858 -0.3651  0.1419 -0.0392
 7623TIP3    H144360   2.086   6.764  12.811 -0.4942  1.0800 -1.2674
 7623TIP3    H244361   2.034   6.905  12.829 -1.3896  0.5211  0.6137
 7624TIP3   OH244362   4.452   6.753   2.551 -0.3580 -0.0489  0.1790
 7624TIP3    H144363   4.376   6.811   2.558  0.8059  1.6298 -0.7888
 7624TIP3    H244364   4.500   6.767   2.632  0.8251  1.6775 -0.7920
 7625TIP3   OH244365   5.406   0.853  16.564 -0.0653 -0.0971  0.1224
 7625TIP3    H144366   5.324   0.852  16.613 -1.2225  0.2993 -1.7498
 7625TIP3    H244367   5.421   0.946  16.545  0.4507 -0.2351 -0.1477
 7626TIP3   OH244368   0.330   5.712  15.472 -0.5106  0.3340  0.4884
 7626TIP3    H144369   0.406   5.707  15.414 -0.8339 -2.6246  0.2447
 7626TIP3    H244370   0.364   5.689  15.558 -0.6054  1.9012  0.9708
 7627TIP3   OH244371   4.296   5.831  16.526  0.0669  0.0391 -0.4044
 7627TIP3    H144372   4.338   5.906  16.569  1.2151 -0.4106 -0.7303
 7627TIP3    H244373   4.345   5.819  16.445 -1.4665  0.2565 -1.3809
 7628TIP3   OH244374   0.365   1.227   1.313 -0.1558  0.0227  0.0972
 7628TIP3    H144375   0.454   1.218   1.347 -0.1585 -1.1279 -0.1963
 7628TIP3    H244376   0.377   1.259   1.223 -0.0634  0.6480  0.3337
 7629TIP3   OH244377   0.923   0.531  15.634  0.8446 -0.4462 -0.1297
 7629TIP3    H144378   0.957   0.500  15.550  1.4185 -1.3061  0.4182
 7629TIP3    H244379   0.918   0.626  15.623 -0.2139 -0.6397 -1.5479
 7630TIP3   OH244380   2.692   1.175  12.399 -0.0025  0.2507  0.0868
 7630TIP3    H144381   2.657   1.264  12.407  2.3497  1.1180  1.3963
 7630TIP3    H244382   2.742   1.176  12.318  1.1350  0.5263  0.7904
 7631TIP3   OH244383   2.357   5.176  13.271 -0.1371 -0.2266 -0.0006
 7631TIP3    H144384   2.447   5.202  13.291  0.0572 -0.7412 -0.2067
 7631TIP3    H244385   2.365   5.091  13.229 -0.6584  0.1199 -0.8239
 7632TIP3   OH244386   4.103   2.023   4.713 -0.3889 -0.2142  0.0441
 7632TIP3    H144387   4.127   1.984   4.629  0.0408  1.5631 -0.6887
 7632TIP3    H244388   4.042   1.960   4.752  1.3820 -2.2802 -0.4240
 7633TIP3   OH244389   0.701   2.640   4.163 -0.1063  0.4326 -0.4467
 7633TIP3    H144390   0.664   2.605   4.244  1.2544  0.8715  0.3843
 7633TIP3    H244391   0.742   2.723   4.189  0.5305  0.4741 -1.5349
 7634TIP3   OH244392   4.796   3.303  12.722 -0.1652 -0.4236  0.1678
 7634TIP3    H144393   4.884   3.277  12.748 -0.1386 -0.1869  0.3157
 7634TIP3    H244394   4.744   3.297  12.802 -0.1394  0.0604  0.2241
 7635TIP3   OH244395   5.849   3.657   0.616 -0.2862  0.1004  1.0309
 7635TIP3    H144396   5.936   3.628   0.589 -0.8186  0.0811 -0.7462
 7635TIP3    H244397   5.864   3.738   0.664  0.6832  0.3036  0.3869
 7636TIP3   OH244398   3.901   4.336  10.978  0.2201  0.2253  0.0046
 7636TIP3    H144399   3.906   4.428  10.953  0.1034  0.0987 -0.4932
 7636TIP3    H244400   3.876   4.337  11.070 -0.3902  0.6856 -0.1639
 7637TIP3   OH244401   0.398   1.354   0.730 -0.2297 -0.6810  0.1236
 7637TIP3    H144402   0.398   1.442   0.767  0.3973 -0.4613 -0.3968
 7637TIP3    H244403   0.413   1.296   0.805  2.0512 -0.1823  0.0767
 7638TIP3   OH244404   0.655   0.471  13.266 -0.1588  0.6108  0.6387
 7638TIP3    H144405   0.604   0.552  13.261 -0.9590  0.1122  0.4659
 7638TIP3    H244406   0.624   0.429  13.347 -3.0514 -1.6453 -1.5150
 7639TIP3   OH244407   2.009   0.267  14.097 -0.0918  0.1212  0.2212
 7639TIP3    H144408   2.016   0.362  14.092 -0.9361  0.4023  3.3157
 7639TIP3    H244409   1.916   0.250  14.115 -0.0504 -1.3414 -0.7887
 7640TIP3   OH244410   2.286   3.819  12.990  0.0297 -0.4156  0.3272
 7640TIP3    H144411   2.215   3.869  12.950  0.1199 -0.3317  0.2719
 7640TIP3    H244412   2.292   3.852  13.079  1.5394  1.2175 -0.3509
 7641TIP3   OH244413   5.735   5.569  11.498  0.1904 -0.1883 -0.1901
 7641TIP3    H144414   5.748   5.553  11.592  0.1874 -0.5118 -0.2451
 7641TIP3    H244415   5.817   5.609  11.469  0.6857 -1.2569 -0.3139
 7642TIP3   OH244416   2.866   0.949  12.097 -0.5999 -0.6742  0.2891
 7642TIP3    H144417   2.776   0.965  12.126 -1.3687  0.8762 -2.6499
 7642TIP3    H244418   2.857   0.895  12.019  1.0270 -0.6584  0.0627
 7643TIP3   OH244419   1.554   1.495  15.658 -0.3407  0.2375  0.6210
 7643TIP3    H144420   1.476   1.522  15.611  1.2776  0.3447 -2.0885
 7643TIP3    H244421   1.580   1.572  15.709 -0.6582  0.9507 -0.3012
 7644TIP3   OH244422   3.878   5.717  13.476  0.1234 -0.0969 -0.4455
 7644TIP3    H144423   3.788   5.702  13.503  0.4834 -1.4488  0.0666
 7644TIP3    H244424   3.905   5.796  13.524 -0.0343 -1.0718  1.2932
 7645TIP3   OH244425   2.610   6.679  15.553  0.1917  0.6226  0.4044
 7645TIP3    H144426   2.538   6.737  15.528 -0.2680  0.5992  1.6301
 7645TIP3    H244427   2.599   6.601  15.499  0.0369  1.1411 -0.3091
 7646TIP3   OH244428   4.788   5.509  11.864 -0.4466 -0.1509  0.3772
 7646TIP3    H144429   4.830   5.448  11.925  0.7159  1.0580  0.8006
 7646TIP3    H244430   4.702   5.526  11.903  0.9931  2.0542  2.6764
 7647TIP3   OH244431   2.657   3.486  11.541 -0.3430 -0.1344 -0.6877
 7647TIP3    H144432   2.740   3.524  11.515  0.3730 -0.4719  1.0425
 7647TIP3    H244433   2.607   3.560  11.576 -0.4490 -0.0855 -0.9410
 7648TIP3   OH244434   1.608   4.843  11.006  0.4675 -0.2567  0.2984
 7648TIP3    H144435   1.554   4.922  11.012  0.6985 -0.1057  0.3827
 7648TIP3    H244436   1.545   4.771  11.014  0.2600 -0.0824  0.2524
 7649TIP3   OH244437   4.959   2.262   2.722  0.2831  0.1885 -0.1168
 7649TIP3    H144438   5.038   2.276   2.670  0.3191  0.7430  0.0880
 7649TIP3    H244439   4.898   2.221   2.662  0.0238  1.6019 -0.8404
 7650TIP3   OH244440   6.345   4.103  16.218 -0.1012  0.3459 -0.1352
 7650TIP3    H144441   6.270   4.162  16.208 -0.3841  0.3845  1.8608
 7650TIP3    H244442   6.421   4.161  16.222 -0.1370  0.4190 -0.5840
 7651TIP3   OH244443   4.689   0.159  14.695  0.0586 -0.1278  0.7205
 7651TIP3    H144444   4.749   0.139  14.767 -0.8867 -1.4473  1.1541
 7651TIP3    H244445   4.725   0.113  14.620  0.1571 -0.0665  0.7304
 7652TIP3   OH244446   3.768   6.581   1.626  0.0568  0.5820 -0.0598
 7652TIP3    H144447   3.781   6.525   1.550 -0.4221  1.1578 -0.5660
 7652TIP3    H244448   3.674   6.600   1.628  0.5767  3.6455 -1.5320
 7653TIP3   OH244449   5.925   1.404   0.167  0.4505 -0.5740  0.3939
 7653TIP3    H144450   5.860   1.335   0.180 -0.8594  0.2579 -1.5387
 7653TIP3    H244451   5.981   1.371   0.097  0.9117 -0.4332  0.6933
 7654TIP3   OH244452   2.622   5.620   3.939  0.0396 -0.0567  0.7077
 7654TIP3    H144453   2.564   5.545   3.923 -0.2939  0.1901  0.7383
 7654TIP3    H244454   2.610   5.641   4.031  0.0404  0.1071  0.6717
 7655TIP3   OH244455   2.623   2.766  11.894 -0.1226  0.8167  0.4088
 7655TIP3    H144456   2.714   2.736  11.900  0.1636  1.7270  0.7265
 7655TIP3    H244457   2.587   2.750  11.981 -0.5775 -0.5170 -0.0210
 7656TIP3   OH244458   1.195   5.909  11.447 -0.5546 -0.3243 -0.3625
 7656TIP3    H144459   1.113   5.910  11.398  0.1535 -0.4797 -1.5630
 7656TIP3    H244460   1.186   5.836  11.508 -1.6447  0.1813  0.0976
 7657TIP3   OH244461   1.765   5.867  15.089 -0.6509 -0.4165  0.0509
 7657TIP3    H144462   1.722   5.785  15.063 -1.2994 -0.3541  0.9099
 7657TIP3    H244463   1.856   5.855  15.064 -0.8890 -1.1212 -0.4872
 7658TIP3   OH244464   1.126   5.666  12.845 -0.0254 -0.0944 -0.4254
 7658TIP3    H144465   1.047   5.611  12.839 -0.2117  0.2887 -1.5448
 7658TIP3    H244466   1.103   5.746  12.798  0.9551  0.1131 -0.5577
 7659TIP3   OH244467   4.977   1.618  12.601 -0.1424  0.3134  0.1527
 7659TIP3    H144468   4.920   1.633  12.526  1.5163 -1.0900 -1.4324
 7659TIP3    H244469   5.065   1.641  12.570  0.3588  1.1231  2.1147
 7660TIP3   OH244470   2.541   0.607   1.228  0.1760  0.0919  0.2364
 7660TIP3    H144471   2.484   0.632   1.155  0.7982 -0.4878 -0.4541
 7660TIP3    H244472   2.517   0.516   1.246  1.9676 -0.6797 -1.1031
 7661TIP3   OH244473   0.818   4.137   3.848 -0.2429  0.2337  0.1842
 7661TIP3    H144474   0.873   4.195   3.900 -0.3162 -0.9098  1.5526
 7661TIP3    H244475   0.729   4.172   3.859 -0.0783  0.8143 -0.3072
 7662TIP3   OH244476   4.054   1.915   5.443  0.2048 -0.2033 -0.3915
 7662TIP3    H144477   4.139   1.960   5.441  0.6077 -0.5816  3.7752
 7662TIP3    H244478   4.072   1.829   5.404  1.0926  0.6395 -1.9081
 7663TIP3   OH244479   3.412   3.303  15.043 -0.6636 -0.2265  0.8354
 7663TIP3    H144480   3.437   3.394  15.060  0.0485 -0.3131  0.3091
 7663TIP3    H244481   3.427   3.258  15.126  2.0960 -0.5056  0.2545
 7664TIP3   OH244482   2.635   1.949   0.916 -0.4975  0.2824  0.2997
 7664TIP3    H144483   2.585   1.978   0.839 -0.6863 -1.8935 -0.4369
 7664TIP3    H244484   2.690   1.878   0.884  0.8160  0.5867  1.7957
 7665TIP3   OH244485   2.192   5.769  11.831 -0.0831  0.1185 -0.7930
 7665TIP3    H144486   2.192   5.696  11.893  0.3327 -1.2267 -2.3434
 7665TIP3    H244487   2.102   5.771  11.797 -1.1672  2.7864  2.0210
 7666TIP3   OH244488   2.966   4.035   0.811  0.3591 -0.2595  0.2476
 7666TIP3    H144489   2.898   3.993   0.759 -1.0018 -0.0616  1.8174
 7666TIP3    H244490   3.002   4.103   0.754 -2.6687  1.4902  0.3074
 7667TIP3   OH244491   3.811   4.234   0.094  0.0818  0.3498  0.2946
 7667TIP3    H144492   3.744   4.302   0.083  0.0605  0.7209  2.4475
 7667TIP3    H244493   3.892   4.283   0.109  0.6189 -0.1099 -0.9960
 7668TIP3   OH244494   3.161   4.936   4.160 -0.6633 -0.0206 -0.5470
 7668TIP3    H144495   3.237   4.905   4.111  0.8852  0.5915  1.4358
 7668TIP3    H244496   3.153   5.028   4.136 -1.6016 -0.3855 -1.7398
 7669TIP3   OH244497   3.525   2.398   1.225 -0.4549  0.6668  0.3647
 7669TIP3    H144498   3.547   2.351   1.306 -1.1430  0.3287  0.3602
 7669TIP3    H244499   3.492   2.330   1.166  1.4836  0.6537 -0.7504
 7670TIP3   OH244500   1.945   3.249  14.468  0.5169  0.1209 -0.2103
 7670TIP3    H144501   2.015   3.255  14.533  1.1315  3.5776 -1.0950
 7670TIP3    H244502   1.943   3.335  14.427 -2.2515 -0.8772 -2.3196
 7671TIP3   OH244503   0.376   3.189  10.775  0.4003  0.4862  0.0292
 7671TIP3    H144504   0.463   3.230  10.769  1.4519 -1.5541  0.8888
 7671TIP3    H244505   0.393   3.101  10.810 -1.7607 -0.7798 -1.9451
 7672TIP3   OH244506   2.742   4.824   0.256  0.0640 -0.1606  0.1026
 7672TIP3    H144507   2.792   4.905   0.245  2.6122 -1.7757 -0.4914
 7672TIP3    H244508   2.720   4.823   0.350 -0.8965  1.6993 -0.0726
 7673TIP3   OH244509   6.523   5.653   4.678  0.4089  1.0447  0.7736
 7673TIP3    H144510   6.430   5.634   4.666  0.5498  1.2363 -0.6773
 7673TIP3    H244511   6.526   5.749   4.688  0.7459  1.4429 -2.4828
 7674TIP3   OH244512   2.094   0.665  15.564 -0.7267 -0.4343  0.9397
 7674TIP3    H144513   2.133   0.673  15.651  1.6971  0.7389 -0.2002
 7674TIP3    H244514   2.099   0.571  15.545  0.0675 -0.5119  1.4898
 7675TIP3   OH244515   2.559   1.020  11.897  0.3835  0.0108  0.6146
 7675TIP3    H144516   2.552   0.929  11.871  0.7271 -0.1680  1.1412
 7675TIP3    H244517   2.632   1.054  11.846 -0.5665  0.3293 -0.5305
 7676TIP3   OH244518   2.786   5.964   4.331  0.2276 -0.4058 -0.3488
 7676TIP3    H144519   2.729   6.026   4.285 -1.2333 -1.0594  0.5457
 7676TIP3    H244520   2.834   5.919   4.261 -1.1266 -0.5914 -1.1618
 7677TIP3   OH244521   3.943   5.850  13.943 -0.6109 -0.3169  0.1987
 7677TIP3    H144522   3.852   5.862  13.916 -0.4028  0.9554  0.0320
 7677TIP3    H244523   3.987   5.930  13.916  0.3823 -0.5660  1.0373
 7678TIP3   OH244524   2.092   2.742  15.911  0.0292  0.5101  0.2346
 7678TIP3    H144525   2.121   2.704  15.827 -0.9655  1.3119 -0.4803
 7678TIP3    H244526   2.023   2.683  15.941  1.3661 -0.5894  1.2229
 7679TIP3   OH244527   1.386   4.894  13.045  0.2720  0.5128 -0.5790
 7679TIP3    H144528   1.316   4.959  13.045 -0.6520 -0.3893  2.8488
 7679TIP3    H244529   1.467   4.945  13.050 -0.2476  1.4725 -1.8642
 7680TIP3   OH244530   1.633   5.719  13.037  0.5828 -0.6372 -0.1034
 7680TIP3    H144531   1.633   5.634  13.083  0.4681 -1.0870 -0.9255
 7680TIP3    H244532   1.562   5.768  13.079 -0.0107 -1.3149 -0.2874
 7681TIP3   OH244533   1.966   5.090   0.504 -1.0316  0.0493 -0.3768
 7681TIP3    H144534   1.976   5.030   0.430 -3.4596  0.4171 -1.0554
 7681TIP3    H244535   1.914   5.041   0.568 -0.1112  0.2183  0.5040
 7682TIP3   OH244536   4.758   2.861  14.574  0.7106 -0.2071 -0.2101
 7682TIP3    H144537   4.684   2.834  14.629  1.2128 -0.3092  0.4189
 7682TIP3    H244538   4.718   2.884  14.490 -0.4821  2.9587  1.1365
 7683TIP3   OH244539   5.569   6.472   2.633 -0.5816  0.0797  0.0945
 7683TIP3    H144540   5.474   6.470   2.619 -0.5200  0.3597 -0.3897
 7683TIP3    H244541   5.604   6.413   2.565 -0.4994 -1.0585  1.0993
 7684TIP3   OH244542   2.565   2.414   5.655  0.1538 -0.3484  0.0569
 7684TIP3    H144543   2.573   2.436   5.748  0.4807  4.6043 -0.9704
 7684TIP3    H244544   2.642   2.360   5.636  1.0477  0.0914  2.3155
 7685TIP3   OH244545   6.582   0.307  11.932 -0.5786  0.1519  0.4452
 7685TIP3    H144546   6.606   0.239  11.868  0.6437 -0.5180  1.5863
 7685TIP3    H244547   6.492   0.286  11.956 -1.0052  0.3308 -0.9537
 7686TIP3   OH244548   6.606   1.066   0.764  0.2748  0.2366 -0.0322
 7686TIP3    H144549   6.644   1.105   0.685  1.3379  2.1628  1.3934
 7686TIP3    H244550   6.681   1.033   0.813 -0.2983 -0.1389  0.6095
 7687TIP3   OH244551   5.238   1.288  13.856 -0.5288  0.0350  0.2584
 7687TIP3    H144552   5.170   1.254  13.914 -0.5656  0.4639  0.4686
 7687TIP3    H244553   5.319   1.246  13.887 -0.7824 -0.9523 -0.3844
 7688TIP3   OH244554   4.217   3.264   4.345 -0.3456  0.4644 -0.1960
 7688TIP3    H144555   4.141   3.289   4.293  0.5038  0.3158 -1.5340
 7688TIP3    H244556   4.227   3.336   4.408 -0.9015  1.0568 -0.7759
 7689TIP3   OH244557   0.293   5.056   3.661 -0.3508  0.2422 -0.4503
 7689TIP3    H144558   0.300   5.102   3.578 -0.7600  1.7463  0.3222
 7689TIP3    H244559   0.282   4.964   3.638  2.3547  0.2550 -2.0234
 7690TIP3   OH244560   3.665   2.208   1.378 -0.0658  0.2979 -0.0600
 7690TIP3    H144561   3.742   2.199   1.322 -1.2093 -2.7006 -1.2368
 7690TIP3    H244562   3.694   2.266   1.448  2.8225  0.4186 -1.2621
 7691TIP3   OH244563   2.971   5.108   0.681 -0.2956  0.0004  0.6402
 7691TIP3    H144564   2.973   5.055   0.760 -1.7916 -0.4471  0.3794
 7691TIP3    H244565   2.983   5.198   0.713 -1.4665 -0.1192  1.4303
 7692TIP3   OH244566   5.416   1.589  17.171 -0.1160 -0.1522 -0.0007
 7692TIP3    H144567   5.481   1.599  17.240 -0.5228  1.0759  0.2207
 7692TIP3    H244568   5.464   1.551  17.098  1.0018  1.2862 -0.0352
 7693TIP3   OH244569   1.148   2.507   3.569  0.0164  0.5804  0.2362
 7693TIP3    H144570   1.192   2.491   3.653  0.4086  1.2322  0.1604
 7693TIP3    H244571   1.057   2.485   3.586  0.6228 -2.2775 -0.0316
 7694TIP3   OH244572   5.970   3.813   4.619 -0.4388 -0.1696 -0.4654
 7694TIP3    H144573   5.973   3.901   4.655  0.8440 -0.4276  0.1031
 7694TIP3    H244574   6.050   3.806   4.567 -1.2996 -0.4776 -1.7724
 7695TIP3   OH244575   3.457   2.411  11.350  0.5424 -0.0313 -0.2636
 7695TIP3    H144576   3.419   2.413  11.438 -2.4026  0.5523 -1.5207
 7695TIP3    H244577   3.493   2.323  11.342 -3.2766 -1.7025 -0.1005
 7696TIP3   OH244578   4.442   3.257  11.329 -0.4516  0.4355  0.1466
 7696TIP3    H144579   4.378   3.193  11.298  0.0087  0.2792 -0.4886
 7696TIP3    H244580   4.436   3.329  11.266  0.6690  0.0044 -0.4568
 7697TIP3   OH244581   3.023   3.468  17.109 -0.6886 -0.3199  0.0995
 7697TIP3    H144582   2.966   3.394  17.129  1.3429 -1.6423  1.2013
 7697TIP3    H244583   2.986   3.541  17.158 -0.8379 -1.4180  1.6504
 7698TIP3   OH244584   4.604   0.952  13.692  0.6261 -0.2469 -0.2047
 7698TIP3    H144585   4.559   0.983  13.771 -0.1102  0.2274 -0.8071
 7698TIP3    H244586   4.583   1.017  13.625  2.2995  0.0502 -0.4867
 7699TIP3   OH244587   2.917   1.594   4.653 -0.0222 -0.3658 -0.4541
 7699TIP3    H144588   2.893   1.524   4.592 -1.4532  0.4162 -0.7971
 7699TIP3    H244589   2.873   1.571   4.734  1.0520 -0.8583  0.0022
 7700TIP3   OH244590   0.739   4.418  14.466  0.5403  0.3727 -0.5109
 7700TIP3    H144591   0.746   4.324  14.450 -0.8229  0.4557 -1.6404
 7700TIP3    H244592   0.681   4.450  14.397 -1.7462  1.5073  1.8613
 7701TIP3   OH244593   5.969   0.590  15.654 -0.2447 -0.2626  0.3773
 7701TIP3    H144594   6.011   0.661  15.702 -1.4539 -0.0404  1.1303
 7701TIP3    H244595   5.950   0.524  15.720 -0.6130 -0.5858 -0.0440
 7702TIP3   OH244596   1.650   1.139   1.729 -0.1188 -0.0150 -0.1832
 7702TIP3    H144597   1.566   1.113   1.692 -0.5348 -1.0702  1.4772
 7702TIP3    H244598   1.701   1.170   1.654 -1.4429 -0.8050 -1.4153
 7703TIP3   OH244599   1.636   6.330  11.137  0.1240 -0.7442 -0.0042
 7703TIP3    H144600   1.639   6.347  11.043  1.0845 -2.6414 -0.3388
 7703TIP3    H244601   1.720   6.362  11.170  0.1476 -0.8824  0.0695
 7704TIP3   OH244602   1.955   0.855   0.032 -0.0356 -0.1469  0.6014
 7704TIP3    H144603   1.862   0.864   0.052 -0.4905  0.9767 -1.8930
 7704TIP3    H244604   1.957   0.800  -0.047  1.3408  0.7837 -0.0207
 7705TIP3   OH244605   0.336   0.322   2.030  0.4817 -0.3010  0.0669
 7705TIP3    H144606   0.398   0.326   1.957  1.4303  1.1945  0.9177
 7705TIP3    H244607   0.265   0.266   1.999  1.1781 -0.2011 -1.7610
 7706TIP3   OH244608   4.602   2.183   3.256 -0.0051 -0.3666 -0.4182
 7706TIP3    H144609   4.537   2.161   3.189 -1.3417  2.6465 -0.1880
 7706TIP3    H244610   4.554   2.178   3.338  0.8293 -0.9863  0.0376
 7707TIP3   OH244611   1.975   6.069  16.901 -0.3428 -0.0861 -0.1303
 7707TIP3    H144612   1.911   6.068  16.972 -1.3418 -1.1170 -1.0155
 7707TIP3    H244613   2.017   6.154  16.907 -0.2432 -0.2595  1.8395
 7708TIP3   OH244614   6.725   2.864  15.833 -0.1636 -0.1868  0.3892
 7708TIP3    H144615   6.659   2.795  15.826  0.2805 -0.5781 -0.0470
 7708TIP3    H244616   6.803   2.826  15.792 -0.0038  0.6949 -0.1232
 7709TIP3   OH244617   6.103   0.183  16.619  0.8576 -0.0960 -0.0415
 7709TIP3    H144618   6.129   0.091  16.628  3.7875  0.6695 -0.0447
 7709TIP3    H244619   6.186   0.231  16.619 -0.4985  2.3611 -2.5609
 7710TIP3   OH244620   1.965   4.440  11.354 -0.1208  0.2084  0.7282
 7710TIP3    H144621   1.964   4.526  11.395  0.1049  0.1826  0.7941
 7710TIP3    H244622   2.041   4.442  11.296 -1.4637  0.8444 -1.0268
 7711TIP3   OH244623   3.421   4.482  12.098  0.0004  0.5206  0.2520
 7711TIP3    H144624   3.413   4.557  12.039 -1.4674 -0.5884 -0.9969
 7711TIP3    H244625   3.339   4.434  12.088  0.8686 -1.2101  1.0998
 7712TIP3   OH244626   1.912   3.616   3.694 -0.2432  0.1626 -0.3554
 7712TIP3    H144627   1.886   3.684   3.756 -2.3025  0.9236 -1.9787
 7712TIP3    H244628   1.911   3.535   3.745 -2.9054  0.6251  0.3997
 7713TIP3   OH244629   5.799   5.815  15.992 -0.3437 -0.4235 -0.0898
 7713TIP3    H144630   5.877   5.770  16.025  1.8045  2.5170 -0.9272
 7713TIP3    H244631   5.783   5.777  15.906 -0.3781 -1.6609  0.4581
 7714TIP3   OH244632   4.014   5.389  16.295 -0.2073  0.0632 -0.4226
 7714TIP3    H144633   4.030   5.307  16.340 -1.8006  0.6609  1.2977
 7714TIP3    H244634   3.940   5.428  16.341  0.2541  2.2743 -1.4675
 7715TIP3   OH244635   4.258   4.905   0.817  0.2985 -0.5160 -0.0512
 7715TIP3    H144636   4.243   4.850   0.894 -0.9226 -0.8028 -0.4954
 7715TIP3    H244637   4.215   4.988   0.838  1.5705  0.0688  0.3410
 7716TIP3   OH244638   1.738   1.334   5.328  0.5582 -0.4004  1.2403
 7716TIP3    H144639   1.707   1.249   5.358  1.9565 -1.6110 -0.6180
 7716TIP3    H244640   1.788   1.369   5.402  0.2715 -1.3426  1.8847
 7717TIP3   OH244641   4.509   1.681   5.093  0.3836  0.2923  0.1976
 7717TIP3    H144642   4.467   1.735   5.026 -0.5871 -0.5801  0.0911
 7717TIP3    H244643   4.568   1.624   5.044  1.1780  1.0303  0.2819
 7718TIP3   OH244644   0.037   0.219   1.085 -0.0397  0.5329 -0.4838
 7718TIP3    H144645   0.023   0.174   1.002  0.8743  1.9821 -1.4590
 7718TIP3    H244646   0.014   0.154   1.152  0.8930 -1.2429 -1.8328
 7719TIP3   OH244647   0.340   0.808   2.362  0.5427 -0.2899  0.6254
 7719TIP3    H144648   0.291   0.883   2.397 -0.2307 -1.2909  1.7213
 7719TIP3    H244649   0.400   0.784   2.433 -2.8877 -4.0270  2.4591
 7720TIP3   OH244650   6.264   1.577   5.309  0.7442  0.4812 -0.0210
 7720TIP3    H144651   6.260   1.529   5.226 -0.0044 -0.6436  0.6574
 7720TIP3    H244652   6.357   1.585   5.327  0.8954 -0.0494 -0.5333
 7721TIP3   OH244653   5.918   1.768   2.202  0.0301  0.5108  0.1044
 7721TIP3    H144654   5.927   1.817   2.120 -0.7566  1.2290  0.4390
 7721TIP3    H244655   6.008   1.753   2.231  0.3551 -0.7557 -1.4739
 7722TIP3   OH244656   5.933   3.562  16.370  0.2748  0.0531 -0.0462
 7722TIP3    H144657   5.992   3.595  16.437  0.0335 -0.9958  0.6947
 7722TIP3    H244658   5.933   3.467  16.382 -0.1098 -0.1181 -1.2499
 7723TIP3   OH244659   1.303   3.204  11.509 -0.1667 -0.0648  0.0714
 7723TIP3    H144660   1.337   3.136  11.451 -2.3361 -0.1186 -1.1894
 7723TIP3    H244661   1.321   3.172  11.597  0.7036 -1.2685 -0.5300
 7724TIP3   OH244662   3.238   6.354  11.327 -0.2707 -0.2744  0.2122
 7724TIP3    H144663   3.226   6.298  11.250 -0.1651 -1.1047  0.7918
 7724TIP3    H244664   3.202   6.439  11.301 -2.8880 -1.3267  0.2203
 7725TIP3   OH244665   4.171   2.166   0.040 -1.0794  0.3199  0.6825
 7725TIP3    H144666   4.113   2.142  -0.033 -0.3803 -1.2850  0.6269
 7725TIP3    H244667   4.128   2.240   0.081 -1.7732  0.9053 -1.0403
 7726TIP3   OH244668   5.069   6.045   0.474  0.4036  0.0165  0.4256
 7726TIP3    H144669   4.975   6.055   0.484  0.0067  0.2320 -2.9731
 7726TIP3    H244670   5.080   5.981   0.403  2.7322  1.8698 -1.0154
 7727TIP3   OH244671   5.011   0.113  13.584  0.7394 -0.3733  0.3400
 7727TIP3    H144672   5.041   0.081  13.499  0.6815  0.4630  0.0048
 7727TIP3    H244673   4.943   0.177  13.564  0.4025 -0.5008  1.0311
 7728TIP3   OH244674   1.015   0.976   2.340  0.2988  0.1419 -0.0139
 7728TIP3    H144675   0.983   0.890   2.367  2.3660 -0.8652 -0.7371
 7728TIP3    H244676   1.087   0.994   2.400  1.0970  0.5204 -1.0815
 7729TIP3   OH244677   6.251   4.198   0.003 -0.2206  0.4603  0.2670
 7729TIP3    H144678   6.289   4.278   0.039  0.1682  0.8065 -0.9007
 7729TIP3    H244679   6.273   4.130   0.068  0.5712  1.0496  0.6250
 7730TIP3   OH244680   6.207   0.172  15.153  0.0484 -0.1587 -0.3891
 7730TIP3    H144681   6.226   0.195  15.244 -0.3716 -0.1412 -0.3051
 7730TIP3    H244682   6.181   0.079  15.157 -1.1233  0.1636 -0.3268
 7731TIP3   OH244683   4.301   6.046   0.727 -0.8269  0.4288  0.9489
 7731TIP3    H144684   4.262   6.134   0.724 -0.8133  0.4132  0.2087
 7731TIP3    H244685   4.368   6.052   0.795 -0.3347  1.1968  0.4084
 7732TIP3   OH244686   2.847   3.952  10.685  0.0416  0.1546  0.9308
 7732TIP3    H144687   2.874   3.920  10.599 -0.3525  0.2648  0.7649
 7732TIP3    H244688   2.886   3.890  10.747 -0.1192 -0.2330  0.6466
 7733TIP3   OH244689   3.608   4.261  11.186  0.2881  0.3413 -0.0811
 7733TIP3    H144690   3.624   4.302  11.271 -1.8014  0.4015  0.3158
 7733TIP3    H244691   3.670   4.188  11.183  1.4066  1.2252  0.8502
 7734TIP3   OH244692   2.846   3.383  13.179 -0.1750 -0.5061 -0.6515
 7734TIP3    H144693   2.858   3.288  13.188  0.5018 -0.3360  0.3508
 7734TIP3    H244694   2.779   3.404  13.245  1.3545  0.0482  0.7690
 7735TIP3   OH244695   6.674   5.220   4.553  0.0045 -1.1894  0.0178
 7735TIP3    H144696   6.761   5.230   4.516 -0.6814 -0.1799 -1.3522
 7735TIP3    H244697   6.663   5.297   4.610  0.0014 -1.3040  0.1729
 7736TIP3   OH244698   3.016   1.989   1.560 -0.1728 -0.2978 -0.5644
 7736TIP3    H144699   3.071   1.920   1.599  0.8481  0.8918  0.1646
 7736TIP3    H244700   3.030   1.980   1.466  0.1837 -0.8993 -0.4614
 7737TIP3   OH244701   5.871   0.146   5.294 -0.2439 -0.4961 -0.0637
 7737TIP3    H144702   5.961   0.129   5.267  0.1759  0.9573  0.3674
 7737TIP3    H244703   5.825   0.167   5.212 -0.0102 -0.5181 -0.2004
 7738TIP3   OH244704   0.452   3.737  13.957  0.1851  0.1002  0.1304
 7738TIP3    H144705   0.532   3.685  13.951 -0.6828 -1.0556 -1.8477
 7738TIP3    H244706   0.451   3.768  14.048  1.6602 -1.8160  0.8454
 7739TIP3   OH244707   1.092   1.814  11.340 -0.3827  0.4879 -0.0966
 7739TIP3    H144708   1.167   1.848  11.389 -0.8427 -0.1005  1.0322
 7739TIP3    H244709   1.132   1.764  11.268  0.2910  2.1408 -0.9060
 7740TIP3   OH244710   2.542   1.128  16.934  0.0919 -0.6317  0.7053
 7740TIP3    H144711   2.629   1.118  16.894  1.0776  2.4081  1.9326
 7740TIP3    H244712   2.545   1.075  17.013  0.5898 -1.0887  0.3782
 7741TIP3   OH244713   4.521   4.969  11.969 -0.3244 -0.2059 -0.2613
 7741TIP3    H144714   4.433   4.990  11.939 -0.2262 -0.0573 -0.4486
 7741TIP3    H244715   4.528   5.011  12.055 -1.4242 -2.6029  1.0396
 7742TIP3   OH244716   5.834   5.105  16.275  0.1400 -0.6409  0.0871
 7742TIP3    H144717   5.929   5.091  16.273  0.5919  2.0088 -3.9386
 7742TIP3    H244718   5.817   5.142  16.361  2.5151 -2.4476  1.4034
 7743TIP3   OH244719   4.938   3.269  14.110  0.1101 -0.0914  0.2932
 7743TIP3    H144720   4.958   3.336  14.175 -0.4876  0.7470 -0.3777
 7743TIP3    H244721   4.995   3.289  14.036  1.0467 -1.2553  0.6668
 7744TIP3   OH244722   4.386   5.322   3.230 -0.3291  0.4240 -0.0400
 7744TIP3    H144723   4.399   5.236   3.269 -0.9056  0.1204 -0.5185
 7744TIP3    H244724   4.364   5.304   3.138 -0.5647  1.0741 -0.1124
 7745TIP3   OH244725   0.264   3.389   6.170 -0.1192  0.1450  0.1248
 7745TIP3    H144726   0.213   3.407   6.092  0.5303  0.5175 -0.2202
 7745TIP3    H244727   0.237   3.457   6.232  0.6551  0.9319 -0.3891
 7746TIP3   OH244728   0.405   3.877  15.602  0.1811 -0.1657  0.5655
 7746TIP3    H144729   0.332   3.839  15.651  0.5027 -0.8251  0.5398
 7746TIP3    H244730   0.411   3.823  15.523 -0.9270  1.4533 -0.6737
 7747TIP3   OH244731   5.305   5.544  16.746  0.2677  0.1967  0.5314
 7747TIP3    H144732   5.399   5.546  16.763  0.0896 -0.9109  1.7537
 7747TIP3    H244733   5.266   5.512  16.827 -0.9786 -1.3412 -0.6124
 7748TIP3   OH244734   2.497   3.347  15.077 -0.3387  0.0458  0.0303
 7748TIP3    H144735   2.576   3.314  15.034  0.8249  1.8992  0.7010
 7748TIP3    H244736   2.473   3.279  15.139  1.2893 -0.1238  0.4980
 7749TIP3   OH244737   6.616   0.612  15.828 -0.1787 -0.7842  0.0484
 7749TIP3    H144738   6.633   0.706  15.818 -1.1071 -0.6889 -0.6384
 7749TIP3    H244739   6.579   0.604  15.916 -0.3985 -0.4666 -0.0131
 7750TIP3   OH244740   6.000   2.829   0.062  0.2571 -0.1550  0.8661
 7750TIP3    H144741   6.049   2.767   0.116  0.5518 -0.2164  0.5261
 7750TIP3    H244742   6.014   2.914   0.105  1.2748 -0.0580  0.3467
 7751TIP3   OH244743   4.373   3.593  14.590 -0.2846 -0.3794  0.4552
 7751TIP3    H144744   4.360   3.504  14.558  1.0520 -1.0840  1.7834
 7751TIP3    H244745   4.387   3.582  14.684 -1.1841  1.3474  0.7995
 7752TIP3   OH244746   4.371   2.661  11.988  0.0360  0.5987  0.0745
 7752TIP3    H144747   4.434   2.619  11.929 -0.2428 -1.2098  1.0526
 7752TIP3    H244748   4.300   2.688  11.930 -0.3190 -1.3273 -0.4278
 7753TIP3   OH244749   6.214   1.712   2.861 -0.5799 -0.2675  0.0432
 7753TIP3    H144750   6.270   1.784   2.834 -0.5871 -0.4148 -0.3683
 7753TIP3    H244751   6.194   1.665   2.779 -1.6525  0.0417  0.1225
 7754TIP3   OH244752   0.853   0.319   2.946 -0.4309 -0.1221 -0.0953
 7754TIP3    H144753   0.758   0.317   2.952 -0.4617 -0.6223 -0.7066
 7754TIP3    H244754   0.871   0.392   2.886 -0.4428 -0.2239 -0.2231
 7755TIP3   OH244755   1.358   4.533   0.058 -0.0890 -0.2583  0.5661
 7755TIP3    H144756   1.370   4.441   0.032 -0.1567  0.2672 -1.3582
 7755TIP3    H244757   1.446   4.563   0.080 -0.0105 -0.6574  0.8216
 7756TIP3   OH244758   2.991   4.685   0.205  0.2197 -0.4745  0.3127
 7756TIP3    H144759   2.922   4.690   0.271  0.2007 -0.5848  0.3010
 7756TIP3    H244760   2.975   4.761   0.149 -0.7503 -1.2923 -0.5308
 7757TIP3   OH244761   3.044   5.770  11.561 -0.3818 -0.4849  0.7455
 7757TIP3    H144762   3.035   5.675  11.557  0.3750 -0.5381  0.2693
 7757TIP3    H244763   3.123   5.784  11.614 -0.7471 -0.1110  1.1993
 7758TIP3   OH244764   2.024   5.872  16.384  0.1665  0.2369  0.0922
 7758TIP3    H144765   2.043   5.792  16.432  0.5419  0.8229  0.9504
 7758TIP3    H244766   2.079   5.867  16.306 -0.4857 -0.7467 -0.3032
 7759TIP3   OH244767   4.330   0.258   3.645 -0.1529  0.0820  0.0563
 7759TIP3    H144768   4.340   0.247   3.739 -0.6720 -0.5771  0.0390
 7759TIP3    H244769   4.304   0.171   3.613  0.1172  0.2736 -0.7042
 7760TIP3   OH244770   3.065   6.406   3.729  0.6673  0.2450 -0.2159
 7760TIP3    H144771   2.978   6.368   3.742  0.4223  1.1274  0.8055
 7760TIP3    H244772   3.122   6.356   3.788  0.1345  2.1485  2.0180
 7761TIP3   OH244773   2.353   3.470   3.530 -0.4135 -0.3220 -0.0762
 7761TIP3    H144774   2.444   3.492   3.552  0.0787 -1.0474 -1.3611
 7761TIP3    H244775   2.348   3.480   3.435 -1.6997 -0.2426 -0.0010
 7762TIP3   OH244776   3.520   3.857  14.726  0.5193 -0.1394  0.0704
 7762TIP3    H144777   3.590   3.917  14.752  1.1066 -0.6234 -0.3774
 7762TIP3    H244778   3.472   3.905  14.658  3.1270 -1.5057 -2.8475
 7763TIP3   OH244779   0.811   4.888  12.709 -0.3118 -0.0322  0.0941
 7763TIP3    H144780   0.880   4.925  12.764  0.1827 -0.7838 -0.0145
 7763TIP3    H244781   0.855   4.863  12.628 -0.5069 -1.3944  0.3906
 7764TIP3   OH244782   2.509   1.530  15.140  0.1258 -0.9981 -0.2690
 7764TIP3    H144783   2.548   1.562  15.059 -1.6752  0.2102 -0.6904
 7764TIP3    H244784   2.542   1.589  15.207 -1.9600  0.8385 -0.8152
 7765TIP3   OH244785   1.989   2.311  15.620  0.7175 -0.3076  0.0145
 7765TIP3    H144786   2.019   2.375  15.555 -1.4909 -0.2231 -0.9404
 7765TIP3    H244787   1.924   2.258  15.575 -1.2986  0.1165  2.2867
 7766TIP3   OH244788   0.192   4.793  13.953 -0.0554 -0.8883  0.1274
 7766TIP3    H144789   0.173   4.887  13.951  1.3411 -0.6292 -1.3135
 7766TIP3    H244790   0.106   4.752  13.969 -0.6760  0.6139  0.7409
 7767TIP3   OH244791   4.668   1.682   1.676 -0.2244  0.6665  0.6223
 7767TIP3    H144792   4.668   1.615   1.607  0.4300  2.2995 -1.0113
 7767TIP3    H244793   4.684   1.633   1.757  1.5500 -1.0144 -0.6808
 7768TIP3   OH244794   4.782   3.941  12.181 -0.6325  0.0412 -0.1114
 7768TIP3    H144795   4.760   4.008  12.116  2.0060  1.8952  0.8495
 7768TIP3    H244796   4.874   3.921  12.165 -0.4277 -0.7464  1.9600
 7769TIP3   OH244797   1.976   2.299  11.237 -0.0225  0.0228  0.3928
 7769TIP3    H144798   1.986   2.316  11.143  0.4459  0.4814  0.5213
 7769TIP3    H244799   1.884   2.317  11.255  0.6189  3.3655  0.6876
 7770TIP3   OH244800   1.414   3.236  16.790 -0.9773 -0.4090 -0.5397
 7770TIP3    H144801   1.324   3.221  16.762 -1.2548  0.6084 -0.2259
 7770TIP3    H244802   1.406   3.292  16.867 -0.0283  0.5517 -1.1243
 7771TIP3   OH244803   5.417   3.433   1.041  0.1986 -0.3187  0.2565
 7771TIP3    H144804   5.435   3.513   1.090  1.3071 -0.1560 -0.4125
 7771TIP3    H244805   5.450   3.363   1.097  2.4995 -0.0553 -0.7375
 7772TIP3   OH244806   5.464   1.963  16.929 -1.1024  0.5131 -0.2062
 7772TIP3    H144807   5.442   2.056  16.928 -1.5179  0.4234  0.4536
 7772TIP3    H244808   5.511   1.950  17.011  1.3865  0.6780 -1.5582
 7773TIP3   OH244809   1.974   4.754   4.531  0.0360  0.3895 -0.0614
 7773TIP3    H144810   2.011   4.667   4.519 -0.0484  0.4145 -0.5161
 7773TIP3    H244811   2.038   4.800   4.585  0.5216  0.3319 -0.5808
 7774TIP3   OH244812   0.939   0.625   0.118 -0.1956  0.0825  0.2851
 7774TIP3    H144813   1.006   0.567   0.081  0.7492  2.3758 -1.7534
 7774TIP3    H244814   0.871   0.629   0.051 -0.7975  0.4193  0.9142
 7775TIP3   OH244815   3.024   0.319  16.366  0.0996  0.3852 -0.5325
 7775TIP3    H144816   2.966   0.293  16.295  0.3816  0.8522 -0.9363
 7775TIP3    H244817   3.000   0.410  16.385 -0.6090 -0.0283  0.6051
 7776TIP3   OH244818   1.952   0.693  12.256  0.2825  0.1796  0.2636
 7776TIP3    H144819   1.862   0.698  12.287  0.3271  3.2403  0.0328
 7776TIP3    H244820   1.957   0.759  12.187  2.2006 -1.3302 -1.1073
 7777TIP3   OH244821   3.371   5.880  10.775  0.0413 -0.0418  0.2226
 7777TIP3    H144822   3.391   5.931  10.697 -0.3687  1.3903  1.0290
 7777TIP3    H244823   3.454   5.836  10.797  0.6789  1.0534  0.0638
 7778TIP3   OH244824   4.211   2.504  17.292 -0.1464  0.0007  0.2119
 7778TIP3    H144825   4.139   2.468  17.343 -1.6477 -1.2469 -2.6367
 7778TIP3    H244826   4.205   2.599  17.306 -1.1766 -0.2413  1.4964
 7779TIP3   OH244827   1.169   3.831  11.114 -0.8701 -0.2365  0.3783
 7779TIP3    H144828   1.154   3.755  11.169 -1.5200 -1.6080 -1.6266
 7779TIP3    H244829   1.264   3.842  11.112 -0.6434 -2.1278 -0.7596
 7780TIP3   OH244830   0.985   0.999   3.627 -0.2139  0.1922  0.1522
 7780TIP3    H144831   1.063   0.978   3.576 -0.9515 -1.8224 -0.2136
 7780TIP3    H244832   1.005   1.082   3.668  2.4028 -0.5988  0.5923
 7781TIP3   OH244833   5.091   3.672   4.390  0.1695  0.3040  0.0212
 7781TIP3    H144834   5.154   3.731   4.430  1.2042 -0.5995 -0.2412
 7781TIP3    H244835   5.142   3.594   4.368 -1.0594 -0.4825 -0.0989
 7782TIP3   OH244836   1.269   5.960  16.873  0.0065 -0.0583  0.2617
 7782TIP3    H144837   1.283   6.046  16.912  1.1619 -0.4942  0.8560
 7782TIP3    H244838   1.183   5.965  16.833  0.3416  1.5934 -0.2875
 7783TIP3   OH244839   0.394   3.955   1.700  0.9638  0.2867  0.4933
 7783TIP3    H144840   0.393   4.039   1.654  1.7046 -0.3663 -0.7526
 7783TIP3    H244841   0.313   3.954   1.749 -0.3731  0.5569 -1.6490
 7784TIP3   OH244842   2.439   0.668   3.950 -0.4766  0.1899 -0.0996
 7784TIP3    H144843   2.517   0.655   4.004 -0.4184 -2.5857 -0.7428
 7784TIP3    H244844   2.470   0.718   3.875 -0.3201  3.1017  1.8136
 7785TIP3   OH244845   1.473   1.738   1.673  0.2583 -0.0661 -0.6307
 7785TIP3    H144846   1.539   1.683   1.713  0.6610  0.8307 -0.0462
 7785TIP3    H244847   1.522   1.798   1.617  0.0288  1.0423  0.3153
 7786TIP3   OH244848   1.687   4.307  10.667 -0.1135 -0.2622  0.3087
 7786TIP3    H144849   1.614   4.294  10.728 -0.6568  2.4061  0.2921
 7786TIP3    H244850   1.648   4.291  10.580 -0.4029  0.0513  0.3796
 7787TIP3   OH244851   5.381   2.366  16.148 -0.0419  0.2750 -0.3299
 7787TIP3    H144852   5.459   2.403  16.105  1.0677 -0.6814  0.8221
 7787TIP3    H244853   5.311   2.427  16.126  0.9837  1.0430 -1.5676
 7788TIP3   OH244854   5.366   1.990   3.050 -0.0532 -0.2557  0.2597
 7788TIP3    H144855   5.284   2.006   3.003 -1.0325  0.9799  2.3326
 7788TIP3    H244856   5.350   1.910   3.101  0.2503 -0.3520  0.2075
 7789TIP3   OH244857   0.162   3.837   5.467 -1.3430  0.2934 -0.1229
 7789TIP3    H144858   0.119   3.819   5.384 -0.3602  0.5726 -0.6996
 7789TIP3    H244859   0.093   3.829   5.532 -1.8153 -1.4027 -0.8065
 7790TIP3   OH244860   0.705   4.346  15.472  0.0914 -0.0746  0.3444
 7790TIP3    H144861   0.787   4.383  15.440  1.5170 -0.7190  3.1266
 7790TIP3    H244862   0.710   4.253  15.450  0.6727 -0.3468  1.5909
 7791TIP3   OH244863   4.615   1.764  13.548  0.2264 -0.6067 -0.1941
 7791TIP3    H144864   4.577   1.721  13.624 -0.2346 -2.6472 -1.5320
 7791TIP3    H244865   4.597   1.857  13.561 -0.9514 -1.0643  1.5602
 7792TIP3   OH244866   5.222   6.075   0.102 -0.3564 -0.5277  0.1093
 7792TIP3    H144867   5.305   6.033   0.126  0.4369  1.1925  0.4902
 7792TIP3    H244868   5.210   6.052   0.010  1.4130  0.5231 -0.4263
 7793TIP3   OH244869   3.290   2.269  15.051  0.8082  0.0907 -0.5841
 7793TIP3    H144870   3.371   2.223  15.074  0.9023  0.5399  0.0173
 7793TIP3    H244871   3.312   2.362  15.063 -0.1997  0.1484  0.9058
 7794TIP3   OH244872   0.990   3.246  12.102 -0.6434 -0.7046 -0.2690
 7794TIP3    H144873   1.041   3.268  12.024 -0.7114 -1.4712 -0.5367
 7794TIP3    H244874   1.021   3.158  12.126 -0.5369 -0.4125  0.6365
 7795TIP3   OH244875   2.299   6.078   0.891  0.2020 -0.1319  0.1774
 7795TIP3    H144876   2.269   6.005   0.835 -3.1315  2.0294 -0.9758
 7795TIP3    H244877   2.251   6.067   0.973  0.7529 -0.0063  0.5209
 7796TIP3   OH244878   1.913   5.852  15.563 -0.4707 -0.4247  0.4829
 7796TIP3    H144879   1.873   5.769  15.588 -0.0483 -0.4570  1.0497
 7796TIP3    H244880   1.856   5.886  15.494  0.0442 -1.7792 -0.6287
 7797TIP3   OH244881   2.823   4.378   2.996 -0.2955 -0.3180 -0.0526
 7797TIP3    H144882   2.762   4.374   2.923  0.3577  0.8852 -0.6866
 7797TIP3    H244883   2.786   4.444   3.055 -0.2855 -0.5301  0.1905
 7798TIP3   OH244884   0.730   3.147  15.858 -0.2907 -0.3154 -0.3676
 7798TIP3    H144885   0.708   3.054  15.864  0.5792 -0.3696  2.3157
 7798TIP3    H244886   0.787   3.164  15.933  0.5596  2.1240 -1.5016
 7799TIP3   OH244887   6.005   0.816   0.136  0.5213 -0.1627 -0.3186
 7799TIP3    H144888   5.988   0.850   0.224  0.7414 -3.1309  0.9199
 7799TIP3    H244889   6.096   0.840   0.118  0.3153  0.9113  0.0245
 7800TIP3   OH244890   1.132   4.577  11.062  0.4902  0.2007  0.5945
 7800TIP3    H144891   1.141   4.554  10.969 -0.1959 -0.1099  0.5991
 7800TIP3    H244892   1.175   4.505  11.108 -2.1809 -1.4507  0.6266
 7801TIP3   OH244893   5.440   3.760   0.657  0.2046  0.8757 -0.2017
 7801TIP3    H144894   5.392   3.842   0.649 -0.3661  0.7824  2.0125
 7801TIP3    H244895   5.375   3.697   0.687  1.5015  0.5598  1.9964
 7802TIP3   OH244896   6.280   0.381   4.279 -0.0349 -0.1983 -0.0523
 7802TIP3    H144897   6.206   0.430   4.242 -0.1352 -1.2004 -1.2397
 7802TIP3    H244898   6.357   0.415   4.232 -0.0116 -0.6500 -0.3422
 7803TIP3   OH244899   2.298   2.500  11.783 -0.2616  0.2268  0.0631
 7803TIP3    H144900   2.260   2.562  11.845  2.1065  2.7970 -0.9711
 7803TIP3    H244901   2.372   2.461  11.831  1.7463  2.4219 -1.1431
 7804TIP3   OH244902   0.958   1.608  10.958  0.7778  0.2245 -0.5030
 7804TIP3    H144903   0.999   1.687  10.925  1.2964  0.1972  0.0714
 7804TIP3    H244904   1.006   1.536  10.918  0.3269  0.1998 -1.0002
 7805TIP3   OH244905   6.652   4.797  12.461 -0.3884 -0.2564  0.3579
 7805TIP3    H144906   6.634   4.829  12.549  2.1019 -0.3380  0.9261
 7805TIP3    H244907   6.729   4.846  12.433  0.0887 -1.7244 -0.9549
 7806TIP3   OH244908   0.817   2.131   5.946  0.3954 -0.0714 -0.3912
 7806TIP3    H144909   0.869   2.058   5.980  0.6736 -0.2442 -1.1644
 7806TIP3    H244910   0.735   2.128   5.996  1.6197  1.0078  1.7554
 7807TIP3   OH244911   6.692   3.459   5.996 -0.4478 -0.3682 -0.4612
 7807TIP3    H144912   6.765   3.490   6.050  0.1415 -1.0962 -0.8378
 7807TIP3    H244913   6.629   3.425   6.059 -0.7416  0.8205 -0.0950
 7808TIP3   OH244914   6.808   5.697  13.603 -0.0118 -0.0140  0.7667
 7808TIP3    H144915   6.726   5.652  13.586  0.8016 -1.3331  0.2538
 7808TIP3    H244916   6.857   5.690  13.520  0.8583  0.2244  1.2518
 7809TIP3   OH244917   1.801   4.727   5.450  0.0242 -0.6033 -0.1102
 7809TIP3    H144918   1.773   4.776   5.372  2.0344 -1.1707 -1.2482
 7809TIP3    H244919   1.896   4.739   5.452  0.1283 -1.5321  1.6455
 7810TIP3   OH244920   5.655   3.936   6.418  0.1815 -0.1907 -0.1950
 7810TIP3    H144921   5.648   3.873   6.346 -0.3036 -0.3717  0.0124
 7810TIP3    H244922   5.726   3.994   6.391 -1.4214  1.0841 -1.8912
 7811TIP3   OH244923   4.288   5.731  11.541 -0.3703 -0.1321 -0.5777
 7811TIP3    H144924   4.378   5.721  11.573  0.3330 -0.0035 -2.4874
 7811TIP3    H244925   4.239   5.661  11.586  0.5880  0.0463  0.7694
 7812TIP3   OH244926   2.561   3.260  11.440 -0.1587 -0.2533 -0.3723
 7812TIP3    H144927   2.594   3.194  11.501 -1.4261 -0.3156  0.2689
 7812TIP3    H244928   2.598   3.342  11.472 -1.1779 -0.2238  0.7787
 7813TIP3   OH244929   0.708   3.859  14.482  0.2220  0.9438  0.3923
 7813TIP3    H144930   0.697   3.824  14.571 -1.0975  0.1320 -0.0714
 7813TIP3    H244931   0.670   3.947  14.486  0.1587  0.9061  0.6332
 7814TIP3   OH244932   2.293   3.393   5.685  0.2657 -0.1706 -0.2749
 7814TIP3    H144933   2.205   3.431   5.690  0.3365  0.1774 -1.5047
 7814TIP3    H244934   2.350   3.467   5.664  0.7714 -0.5127 -0.1280
 7815TIP3   OH244935   2.109   0.526   0.255  0.1520 -0.2808  0.3956
 7815TIP3    H144936   2.161   0.532   0.176 -0.3269  1.0796  0.1667
 7815TIP3    H244937   2.028   0.573   0.235 -0.3104 -0.6005  1.4254
 7816TIP3   OH244938   0.705   6.394   0.970  0.2251 -0.1926  0.3696
 7816TIP3    H144939   0.625   6.367   1.014 -0.9593  2.2039 -0.2441
 7816TIP3    H244940   0.769   6.326   0.993 -1.4100 -1.0671  2.5132
 7817TIP3   OH244941   5.153   0.054  16.527  0.1090 -0.2834 -0.4247
 7817TIP3    H144942   5.219   0.032  16.461 -0.7547 -0.6861 -1.1659
 7817TIP3    H244943   5.127  -0.030  16.564 -0.0433 -0.1298 -0.1770
 7818TIP3   OH244944   0.534   4.161  13.732 -0.3788 -0.2248 -0.1318
 7818TIP3    H144945   0.489   4.078  13.721 -0.1259 -0.4667  0.6365
 7818TIP3    H244946   0.473   4.226  13.697 -0.2031 -0.8185 -1.5612
 7819TIP3   OH244947   0.100   4.069   1.560  0.0321  0.1748 -0.0599
 7819TIP3    H144948   0.159   4.126   1.511  0.5051  0.5524  0.9511
 7819TIP3    H244949   0.141   4.058   1.645 -0.5305 -0.9038  0.0926
 7820TIP3   OH244950   3.196   4.649  13.340  0.5510 -0.0317 -0.0105
 7820TIP3    H144951   3.197   4.706  13.417 -0.7234  3.3123 -2.3407
 7820TIP3    H244952   3.105   4.619  13.333 -0.0110  1.9083 -1.6776
 7821TIP3   OH244953   1.688   1.982   0.312 -0.3537 -0.7219 -0.7067
 7821TIP3    H144954   1.646   1.896   0.323  1.0771 -1.5251 -1.4458
 7821TIP3    H244955   1.737   1.974   0.230 -0.0354  0.7384 -0.6620
 7822TIP3   OH244956   2.710   6.258  16.012 -0.0072 -0.1514  0.0972
 7822TIP3    H144957   2.718   6.302  15.928 -1.2020 -0.7149 -0.3252
 7822TIP3    H244958   2.702   6.165  15.991 -1.9722 -0.1567  0.7065
 7823TIP3   OH244959   5.186   4.007   0.594 -0.0949  0.8295  0.5125
 7823TIP3    H144960   5.176   3.981   0.686 -4.2812 -0.5781 -0.2509
 7823TIP3    H244961   5.126   3.950   0.546  1.0447  2.4166 -2.9785
 7824TIP3   OH244962   0.469   4.609   4.740  0.2989  0.2139 -0.3057
 7824TIP3    H144963   0.385   4.568   4.719  0.7539 -1.4503  1.0585
 7824TIP3    H244964   0.533   4.539   4.732  1.4529  1.2621 -0.4181
 7825TIP3   OH244965   5.177   2.161   3.358  0.2699  0.2764  0.6612
 7825TIP3    H144966   5.203   2.072   3.382  1.0048  0.1363 -0.6438
 7825TIP3    H244967   5.082   2.162   3.369  0.3193 -0.4988  1.1963
 7826TIP3   OH244968   1.021   4.864  12.130 -0.7738  0.0210  0.5665
 7826TIP3    H144969   1.026   4.939  12.070  2.2141  0.3135  1.1162
 7826TIP3    H244970   0.987   4.901  12.212  1.2933  0.9305  1.0349
 7827TIP3   OH244971   6.284   1.338  17.001 -0.2685  0.3200 -0.3502
 7827TIP3    H144972   6.236   1.408  17.045 -0.2818 -0.4884  0.9538
 7827TIP3    H244973   6.257   1.258  17.047 -0.1675 -0.5295 -1.7323
 7828TIP3   OH244974   4.298   1.899   4.193  0.1690  1.0126 -0.1668
 7828TIP3    H144975   4.237   1.919   4.263  1.7476  0.0249  1.5365
 7828TIP3    H244976   4.310   1.804   4.198  0.7028  0.9966 -1.4418
 7829TIP3   OH244977   3.161   5.484   5.222  0.2195  0.5756  0.6949
 7829TIP3    H144978   3.255   5.482   5.203 -0.1086  0.8728 -1.0230
 7829TIP3    H244979   3.124   5.417   5.165 -0.8044  1.5212  0.2457
 7830TIP3   OH244980   2.087   0.721  12.557  0.2092 -0.3315  0.6135
 7830TIP3    H144981   2.052   0.809  12.540 -2.2808 -1.7638 -2.2813
 7830TIP3    H244982   2.040   0.691  12.635  1.1509  0.9165  1.6809
 7831TIP3   OH244983   0.708   4.994  11.862 -0.4982  0.4521  0.1952
 7831TIP3    H144984   0.709   4.898  11.866  1.4347  0.4757  1.0668
 7831TIP3    H244985   0.623   5.019  11.898 -0.9750 -0.9312  0.0600
 7832TIP3   OH244986   4.270   2.804   0.724 -0.2291 -0.4260 -0.1065
 7832TIP3    H144987   4.224   2.754   0.791 -0.7479 -0.2405 -0.3185
 7832TIP3    H244988   4.318   2.871   0.772 -1.9187  0.7546 -0.0309
 7833TIP3   OH244989   4.776   2.377  12.407  0.3044 -0.1229  0.6206
 7833TIP3    H144990   4.747   2.467  12.421  0.3175 -0.3910  2.4800
 7833TIP3    H244991   4.807   2.348  12.493  1.8008 -1.3715 -0.3116
 7834TIP3   OH244992   6.794   5.053  15.060 -0.1463 -0.1395 -0.0559
 7834TIP3    H144993   6.829   5.026  14.976 -2.3309 -4.7749  0.3735
 7834TIP3    H244994   6.703   5.076  15.041  0.3593  2.4136  0.4559
 7835TIP3   OH244995   5.170   1.007   2.351 -0.1199  0.7773  0.0276
 7835TIP3    H144996   5.162   1.080   2.413  2.1780  1.2742 -0.2138
 7835TIP3    H244997   5.263   1.006   2.328 -0.4020 -1.3425 -1.0692
 7836TIP3   OH244998   0.870   5.531  16.227  0.2684  0.1506  0.5273
 7836TIP3    H144999   0.898   5.442  16.209  1.3280  0.7900 -1.0748
 7836TIP3    H245000   0.837   5.528  16.317 -2.0175 -2.3983 -0.3167
 7837TIP3   OH245001   1.575   2.167   3.092  0.2417  0.1908  0.1672
 7837TIP3    H145002   1.530   2.217   3.024 -0.6411 -0.3982  0.3100
 7837TIP3    H245003   1.505   2.130   3.145  0.9144 -0.0042  0.9320
 7838TIP3   OH245004   3.867   4.941  11.098  0.4309 -0.3707  0.5534
 7838TIP3    H145005   3.779   4.943  11.060  0.6724  0.3336  0.0343
 7838TIP3    H245006   3.925   4.947  11.023  0.9304 -0.7272  0.9078
 7839TIP3   OH245007   5.997   4.047  12.913  0.2551  0.1643 -0.0531
 7839TIP3    H145008   5.942   4.017  12.841  0.7219  1.2922 -0.8787
 7839TIP3    H245009   5.935   4.081  12.978 -0.1139 -0.1914 -0.2140
 7840TIP3   OH245010   0.882   0.962  11.429  0.2363 -0.0708  0.3849
 7840TIP3    H145011   0.811   0.901  11.410  0.2106 -0.0959  0.5608
 7840TIP3    H245012   0.867   0.989  11.520  1.8342 -1.9602  1.2349
 7841TIP3   OH245013   2.193   3.519  16.444 -0.0496 -0.5378  0.2855
 7841TIP3    H145014   2.106   3.481  16.456 -0.8266  1.2573  0.4220
 7841TIP3    H245015   2.201   3.530  16.349 -0.1822 -0.1965  0.3172
 7842TIP3   OH245016   0.952   0.873  14.671 -0.7362 -0.0784 -0.1119
 7842TIP3    H145017   0.876   0.924  14.700 -1.3308  0.8778 -3.1706
 7842TIP3    H245018   0.981   0.917  14.591  1.3555 -2.0867 -0.5113
 7843TIP3   OH245019   3.713   4.105  12.576  0.3071  0.4152  0.7736
 7843TIP3    H145020   3.790   4.148  12.615  2.0867 -1.1620 -0.9055
 7843TIP3    H245021   3.733   4.102  12.483 -1.8661  0.0523  0.3121
 7844TIP3   OH245022   4.806   6.511  15.396 -0.2394  0.4070  0.1229
 7844TIP3    H145023   4.867   6.494  15.468 -0.5516 -0.4871  0.1861
 7844TIP3    H245024   4.766   6.426  15.378 -0.8311  0.8099 -0.4980
 7845TIP3   OH245025   5.931   1.323  15.950 -0.0519 -0.3582 -0.4514
 7845TIP3    H145026   6.024   1.313  15.932 -0.3830 -0.5040 -2.1212
 7845TIP3    H245027   5.888   1.260  15.892 -1.3197  1.2796 -1.3356
 7846TIP3   OH245028   1.803   4.655   2.166  0.7363 -0.2180  0.0725
 7846TIP3    H145029   1.841   4.589   2.223  1.7022  1.8208  1.8558
 7846TIP3    H245030   1.863   4.730   2.172 -1.5271  1.6778 -0.0355
 7847TIP3   OH245031   2.978   4.716   0.727 -0.8671  0.2154 -0.0031
 7847TIP3    H145032   3.063   4.681   0.751 -0.6192  0.7033 -0.1694
 7847TIP3    H245033   2.946   4.758   0.806 -0.2085  1.5073 -0.4144
 7848TIP3   OH245034   1.854   4.240   2.023  0.4003 -0.1611 -0.2647
 7848TIP3    H145035   1.798   4.274   2.093 -0.3715 -0.8235 -0.5522
 7848TIP3    H245036   1.803   4.253   1.943  1.0511  0.0906 -0.6392
 7849TIP3   OH245037   2.210   4.444  15.376  0.1821 -0.1417  0.0571
 7849TIP3    H145038   2.131   4.392  15.389 -0.3074  0.4498 -0.4736
 7849TIP3    H245039   2.279   4.398  15.424 -0.4026 -0.8761  0.1871
 7850TIP3   OH245040   6.201   2.650  16.447  0.4444  0.1845  0.3584
 7850TIP3    H145041   6.189   2.556  16.434  0.3314  0.2697 -0.1804
 7850TIP3    H245042   6.279   2.671  16.395  0.8923  0.2601  1.0510
 7851TIP3   OH245043   2.066   4.004  12.916  0.7082  0.1873 -0.2399
 7851TIP3    H145044   1.987   4.018  12.969  1.8532  0.1516  1.5137
 7851TIP3    H245045   2.042   4.035  12.829 -1.7280 -1.1911 -0.1133
 7852TIP3   OH245046   0.503   4.828   0.269 -0.5592 -0.1349 -0.0990
 7852TIP3    H145047   0.413   4.843   0.300 -0.5788  0.0581 -0.2543
 7852TIP3    H245048   0.512   4.883   0.192 -0.2677 -0.0642 -0.0170
 7853TIP3   OH245049   5.959   1.981   5.086 -0.2009 -0.3461  0.0811
 7853TIP3    H145050   5.988   1.895   5.056 -1.1668 -0.4284 -0.6060
 7853TIP3    H245051   6.010   2.043   5.033 -1.4600 -0.4920 -1.3298
 7854TIP3   OH245052   4.736   4.229  11.512 -0.1481 -0.1602 -0.4465
 7854TIP3    H145053   4.754   4.251  11.604  0.2630  0.3332 -0.6422
 7854TIP3    H245054   4.718   4.314  11.470  0.9313 -0.2423 -1.0943
 7855TIP3   OH245055   4.364   3.366   3.253 -0.2201  0.1824  0.1029
 7855TIP3    H145056   4.458   3.361   3.236 -0.2393 -0.2375  0.1087
 7855TIP3    H245057   4.345   3.288   3.305 -0.5819  0.2383  0.0555
 7856TIP3   OH245058   4.393   4.198  11.258  0.8024 -0.0843 -0.3119
 7856TIP3    H145059   4.339   4.277  11.267  2.1794  0.7248  0.9037
 7856TIP3    H245060   4.401   4.164  11.347  1.0430 -1.0489 -0.6984
 7857TIP3   OH245061   1.462   1.271  12.104 -0.5535  0.5634 -0.0021
 7857TIP3    H145062   1.552   1.270  12.071 -0.0018  3.4110  1.2523
 7857TIP3    H245063   1.440   1.179  12.116  2.1486 -0.1931 -0.4262
 7858TIP3   OH245064   0.808   0.570  12.076  0.5775 -0.1923 -0.0713
 7858TIP3    H145065   0.782   0.662  12.078  2.0013  0.2146  0.9738
 7858TIP3    H245066   0.884   0.568  12.019 -0.3767 -1.0039 -1.3469
 7859TIP3   OH245067   4.577   2.742   2.261 -0.3213 -0.1009 -0.3312
 7859TIP3    H145068   4.524   2.791   2.323  0.6780 -0.8599  1.1545
 7859TIP3    H245069   4.534   2.657   2.253 -0.2253 -0.1445 -0.3878
 7860TIP3   OH245070   1.789   0.931   1.838 -0.5487  0.1460  0.1262
 7860TIP3    H145071   1.789   0.875   1.760 -2.0255  0.9419 -0.4667
 7860TIP3    H245072   1.757   1.016   1.806 -1.0636  0.5009  1.5728
 7861TIP3   OH245073   6.184   6.365   1.987 -0.8408  0.2530 -0.6098
 7861TIP3    H145074   6.137   6.383   2.069  2.1064  0.3416  1.1437
 7861TIP3    H245075   6.252   6.432   1.984 -0.5974 -0.0587 -2.9287
 7862TIP3   OH245076   6.681   5.770   4.196 -0.4064  0.4811 -0.3262
 7862TIP3    H145077   6.610   5.762   4.132 -1.0362  2.0109  0.1517
 7862TIP3    H245078   6.680   5.687   4.244 -1.9671  0.5424 -0.2211
 7863TIP3   OH245079   5.630   6.097  14.817  0.4119 -0.2965  0.4914
 7863TIP3    H145080   5.565   6.051  14.870  1.3748 -1.9144  0.3068
 7863TIP3    H245081   5.642   6.181  14.861 -1.0861 -0.3731  1.0701
 7864TIP3   OH245082   0.813   2.744   2.949 -0.3014 -0.9152 -0.2692
 7864TIP3    H145083   0.719   2.753   2.963 -0.3568  2.3383 -2.1480
 7864TIP3    H245084   0.853   2.784   3.027 -0.5022  0.5268 -0.8995
 7865TIP3   OH245085   0.257   4.241   3.086 -1.0906  0.0657 -0.0739
 7865TIP3    H145086   0.224   4.315   3.036  3.4761  0.3967 -2.9461
 7865TIP3    H245087   0.291   4.181   3.019 -1.9469 -3.2043  2.3348
 7866TIP3   OH245088   2.566   4.737   0.075  0.2759 -0.0517 -0.4394
 7866TIP3    H145089   2.530   4.652   0.099 -2.4489  1.4559  1.0700
 7866TIP3    H245090   2.624   4.760   0.147  1.1049 -0.6809 -0.9058
 7867TIP3   OH245091   5.731   0.407  11.624  0.1658  0.0207 -0.0761
 7867TIP3    H145092   5.715   0.379  11.714  0.2682 -0.1352 -0.1055
 7867TIP3    H245093   5.735   0.325  11.574 -2.6140  0.2332 -0.6800
 7868TIP3   OH245094   1.986   3.113  11.069 -0.6768 -0.6711  0.5916
 7868TIP3    H145095   2.077   3.085  11.062 -0.2557  0.7350  0.2548
 7868TIP3    H245096   1.991   3.207  11.088 -2.0460 -0.6672  0.9787
 7869TIP3   OH245097   2.055   5.743  15.859 -0.4134  0.3354  0.2680
 7869TIP3    H145098   2.027   5.831  15.835 -2.4599 -0.7809 -1.5583
 7869TIP3    H245099   1.986   5.712  15.918  0.6130  0.1451  1.3946
 7870TIP3   OH245100   2.902   3.979  15.947 -0.5400 -0.0082 -0.0285
 7870TIP3    H145101   2.931   4.043  16.012  0.9043 -0.8775  0.2219
 7870TIP3    H245102   2.946   3.898  15.973 -1.9349 -0.9759 -0.6406
 7871TIP3   OH245103   5.953   0.894  11.938  0.0301 -0.3431 -0.0404
 7871TIP3    H145104   5.956   0.815  11.993 -0.2823 -2.0368 -2.3698
 7871TIP3    H245105   5.890   0.873  11.870  0.0000  1.9286 -0.7570
 7872TIP3   OH245106   4.343   0.611  16.267  0.1824  0.5012  0.0519
 7872TIP3    H145107   4.369   0.521  16.247 -1.0122  0.2807 -0.5776
 7872TIP3    H245108   4.251   0.616  16.239 -0.9020  0.8391  3.4206
 7873TIP3   OH245109   1.769   2.328  13.125 -1.1769  0.4274  0.2728
 7873TIP3    H145110   1.853   2.370  13.108 -0.3659 -0.9011  0.9242
 7873TIP3    H245111   1.764   2.321  13.220 -1.8284  0.0861  0.2206
 7874TIP3   OH245112   3.700   3.884   0.538  0.4156  0.1469  0.5332
 7874TIP3    H145113   3.761   3.816   0.569 -0.0917 -0.5778 -0.0337
 7874TIP3    H245114   3.700   3.874   0.443  0.5597  1.1440  0.4260
 7875TIP3   OH245115   0.705   6.443  10.452  0.0493 -0.1105  0.0802
 7875TIP3    H145116   0.662   6.522  10.419  0.2034  0.0931  0.3715
 7875TIP3    H245117   0.650   6.371  10.421  0.6270  0.0300 -1.3149
 7876TIP3   OH245118   4.232   1.215  14.377 -0.0692 -0.0765  0.6007
 7876TIP3    H145119   4.238   1.269  14.298  0.2536  0.2439  0.8383
 7876TIP3    H245120   4.187   1.136  14.349  0.5209 -0.1982 -0.0386
 7877TIP3   OH245121   6.809   5.974  11.645  0.2680 -0.1169 -0.1991
 7877TIP3    H145122   6.722   5.949  11.613  1.0752 -0.7437 -1.9631
 7877TIP3    H245123   6.832   6.052  11.595  0.8200 -0.0857  0.1030
 7878TIP3   OH245124   5.134   0.676  14.762  0.3903 -0.2389  0.0893
 7878TIP3    H145125   5.152   0.591  14.722 -0.8177  0.7703 -2.7477
 7878TIP3    H245126   5.053   0.662  14.812  0.8864 -1.0610  0.6694
 7879TIP3   OH245127   3.294   6.061  15.900  0.2186 -0.0464  0.1293
 7879TIP3    H145128   3.375   6.079  15.851 -0.5026  1.8159 -0.4420
 7879TIP3    H245129   3.228   6.115  15.856 -0.9532 -0.1889  1.6935
 7880TIP3   OH245130   6.017   2.146   4.242  0.5140  0.0275 -0.1005
 7880TIP3    H145131   6.040   2.123   4.152  1.2457 -0.3130  0.1679
 7880TIP3    H245132   5.968   2.070   4.274 -0.0953  0.3171 -0.3384
 7881TIP3   OH245133   4.453   0.940   4.157 -0.6208 -0.3610 -0.6437
 7881TIP3    H145134   4.490   0.852   4.161 -0.6116 -0.4490 -2.2396
 7881TIP3    H245135   4.483   0.983   4.237  1.1328 -1.1434 -0.8654
 7882TIP3   OH245136   4.148   4.074   5.824  0.0396 -0.4160  0.2084
 7882TIP3    H145137   4.237   4.059   5.791  0.3277 -0.1261  0.8428
 7882TIP3    H245138   4.117   4.150   5.776  1.0816  1.0421  1.7620
 7883TIP3   OH245139   1.287   2.658  13.455  0.2042  0.0721  0.0620
 7883TIP3    H145140   1.237   2.623  13.529 -2.6102 -1.3143 -2.4027
 7883TIP3    H245141   1.337   2.730  13.492 -1.4833 -0.2934  3.2284
 7884TIP3   OH245142   2.176   6.706   0.999 -0.1663 -0.0999 -0.7569
 7884TIP3    H145143   2.100   6.761   0.977 -0.8399 -0.9738 -0.6698
 7884TIP3    H245144   2.227   6.760   1.060 -1.7514 -0.2446  0.7628
 7885TIP3   OH245145   0.910   4.591  11.216 -0.1055 -0.4563 -0.1325
 7885TIP3    H145146   0.979   4.629  11.161 -0.3433  0.0147 -0.1071
 7885TIP3    H245147   0.864   4.667  11.252  0.9841 -0.7383  1.9050
 7886TIP3   OH245148   2.836   4.023  11.201 -0.7511 -0.4531  0.7875
 7886TIP3    H145149   2.799   3.946  11.245 -0.4049 -1.2074 -0.2237
 7886TIP3    H245150   2.921   3.993  11.168 -1.2492 -0.0638 -0.8742
 7887TIP3   OH245151   5.950   0.891  15.034 -0.1691  0.5980  0.0575
 7887TIP3    H145152   5.916   0.939  15.109 -0.8755  1.5706 -0.8572
 7887TIP3    H245153   5.880   0.828  15.012 -0.5432  1.2235 -0.5850
 7888TIP3   OH245154   2.088   4.095   2.664 -0.3179 -0.5511  0.5908
 7888TIP3    H145155   2.007   4.143   2.647 -0.4320 -0.8411  0.3112
 7888TIP3    H245156   2.138   4.102   2.583  0.3609  0.4365  1.0824
 7889TIP3   OH245157   2.917   5.910  11.377 -0.2330 -0.1574 -0.1699
 7889TIP3    H145158   2.952   5.994  11.408  0.4105 -0.6418  0.4309
 7889TIP3    H245159   2.946   5.847  11.442 -0.6119 -0.8696 -0.6911
 7890TIP3   OH245160   2.929   5.397  14.183 -0.9640 -0.0431 -0.3957
 7890TIP3    H145161   2.871   5.371  14.255  0.3473 -0.0818  0.6486
 7890TIP3    H245162   3.005   5.340  14.192 -0.2850  0.7516 -1.1282
 7891TIP3   OH245163   4.933   3.854   6.224 -0.4462  0.1803 -0.4897
 7891TIP3    H145164   4.907   3.945   6.236  0.0947  0.3594 -0.6647
 7891TIP3    H245165   4.999   3.839   6.292 -0.4436 -0.0452 -0.5399
 7892TIP3   OH245166   5.663   4.254   1.826  0.1128  0.2264 -0.0674
 7892TIP3    H145167   5.706   4.294   1.902 -1.6313 -1.4304  1.8451
 7892TIP3    H245168   5.735   4.217   1.775  1.2394  0.3131  1.3955
 7893TIP3   OH245169   6.700   2.176   5.259 -0.5394 -0.3925 -0.0604
 7893TIP3    H145170   6.632   2.176   5.192 -0.5867 -1.4507 -0.0137
 7893TIP3    H245171   6.766   2.236   5.225 -0.0695 -1.7124 -1.5641
 7894TIP3   OH245172   1.804   5.811   1.925 -0.2388  0.2128 -0.3279
 7894TIP3    H145173   1.815   5.726   1.882 -0.2977  0.5893 -1.0788
 7894TIP3    H245174   1.817   5.792   2.018  0.6131 -0.4632 -0.5802
 7895TIP3   OH245175   0.242   3.546   4.110 -0.3217 -0.0447  0.4216
 7895TIP3    H145176   0.222   3.605   4.183  2.9762 -0.7140  1.9222
 7895TIP3    H245177   0.228   3.599   4.032 -2.0623  1.2483  1.5687
 7896TIP3   OH245178   3.753   0.409  17.051 -0.3719 -0.2519 -0.1994
 7896TIP3    H145179   3.704   0.461  16.988 -2.5877 -0.8657  0.9529
 7896TIP3    H245180   3.750   0.461  17.132  1.7720  0.1711 -0.3691
 7897TIP3   OH245181   0.478   1.646  12.356  0.0554  0.3149  0.3334
 7897TIP3    H145182   0.500   1.557  12.331  1.5832  0.7935 -0.0894
 7897TIP3    H245183   0.490   1.648  12.451  0.8944  0.3075  0.2264
 7898TIP3   OH245184   2.480   0.844   3.022 -0.1218 -0.2843 -0.0191
 7898TIP3    H145185   2.453   0.795   2.944 -1.5480 -1.6474  1.3067
 7898TIP3    H245186   2.459   0.936   3.001  0.4184 -0.4999 -1.6046
 7899TIP3   OH245187   3.673   0.921  14.781  0.2330  0.1499  0.0623
 7899TIP3    H145188   3.658   1.005  14.825 -0.4470  0.8888 -1.5150
 7899TIP3    H245189   3.768   0.914  14.775  0.3149  0.3170  1.1313
 7900TIP3   OH245190   3.734   3.859   0.271 -0.2056  0.4006  0.3482
 7900TIP3    H145191   3.710   3.940   0.226 -0.4021 -0.7931 -1.7705
 7900TIP3    H245192   3.683   3.791   0.226  1.9530 -1.2376  0.2992
 7901TIP3   OH245193   6.058   3.483  12.198  0.0334  0.0971  0.1509
 7901TIP3    H145194   6.036   3.550  12.263  1.8428  0.3772  0.4797
 7901TIP3    H245195   5.990   3.492  12.131 -0.0575  1.9005  0.4553
 7902TIP3   OH245196   6.533   1.670   3.555 -0.1183 -0.0378  0.6326
 7902TIP3    H145197   6.523   1.700   3.465  1.1511 -0.6991  0.2548
 7902TIP3    H245198   6.458   1.707   3.602 -1.3355 -0.5389 -0.9136
 7903TIP3   OH245199   0.795   3.144   5.999  0.2840  0.4900  0.4184
 7903TIP3    H145200   0.854   3.139   6.075  0.1977 -0.3117  0.4420
 7903TIP3    H245201   0.747   3.061   6.001 -1.1070  1.2802  0.6005
 7904TIP3   OH245202   0.299   3.731   4.880  0.2821 -0.6548  0.1445
 7904TIP3    H145203   0.381   3.759   4.840  0.6065  0.0712  1.2776
 7904TIP3    H245204   0.262   3.811   4.918 -0.0361 -1.3057  1.2352
 7905TIP3   OH245205   5.592   0.609  13.788 -0.4001  0.3499  0.2032
 7905TIP3    H145206   5.579   0.528  13.837 -0.0236 -0.0804 -0.4087
 7905TIP3    H245207   5.585   0.584  13.696 -0.2678  1.0040  0.0087
 7906TIP3   OH245208   6.743   3.135  16.626  1.1867  0.0844  0.0136
 7906TIP3    H145209   6.738   3.224  16.660  2.0296 -0.1915  0.8672
 7906TIP3    H245210   6.654   3.116  16.594  0.9501  1.1343  0.0442
 7907TIP3   OH245211   1.413   6.031  15.643 -0.6100  0.3929  0.0604
 7907TIP3    H145212   1.383   6.079  15.566 -1.0172 -1.2995 -0.8741
 7907TIP3    H245213   1.468   6.092  15.690  0.8249  1.0120 -2.3291
 7908TIP3   OH245214   0.237   1.236   1.646 -0.0859 -0.4037  0.2624
 7908TIP3    H145215   0.270   1.265   1.731 -0.6348  0.3967  0.2118
 7908TIP3    H245216   0.162   1.294   1.629 -0.0471 -0.6393 -0.7070
 7909TIP3   OH245217   4.510   4.513   6.466  0.4044 -0.3613  0.2470
 7909TIP3    H145218   4.468   4.457   6.531 -0.1376  0.6320  0.7642
 7909TIP3    H245219   4.528   4.595   6.512 -1.1513  0.8165 -1.1903
 7910TIP3   OH245220   2.667   6.081   1.133 -0.1942  0.8636 -0.4767
 7910TIP3    H145221   2.753   6.071   1.092 -0.8616  0.3272 -1.7715
 7910TIP3    H245222   2.635   6.166   1.102 -1.4168 -0.2761 -2.4841
 7911TIP3   OH245223   6.319   1.996   3.939  0.1412 -0.5836 -0.8458
 7911TIP3    H145224   6.345   1.909   3.908  0.7672 -1.0808  1.0122
 7911TIP3    H245225   6.394   2.027   3.989 -0.6346  0.4416 -0.3056
 7912TIP3   OH245226   5.025   4.834  13.187 -0.1380 -0.0856  0.1679
 7912TIP3    H145227   5.090   4.801  13.125  0.3332  1.4909 -0.1968
 7912TIP3    H245228   4.945   4.842  13.135 -0.1849 -0.3872  0.1913
 7913TIP3   OH245229   6.020   3.088   0.225 -0.0114 -0.5780  0.0042
 7913TIP3    H145230   6.054   3.147   0.292 -1.9399 -1.2519  1.6273
 7913TIP3    H245231   5.965   3.144   0.169  0.6834 -0.2379 -0.3434
 7914TIP3   OH245232   1.484   2.652   0.922 -0.1414 -0.5524  0.2518
 7914TIP3    H145233   1.493   2.587   0.853 -1.1353 -1.2546  0.7656
 7914TIP3    H245234   1.394   2.684   0.912  0.0005 -0.0156  0.6724
 7915TIP3   OH245235   3.300   4.219  13.503 -0.1829 -0.4317  0.0738
 7915TIP3    H145236   3.251   4.158  13.448 -0.4204 -0.2947  0.1323
 7915TIP3    H245237   3.329   4.166  13.577  1.3100 -0.9427 -0.8527
 7916TIP3   OH245238   2.102   3.730  17.187  0.1452  0.1676 -0.4732
 7916TIP3    H145239   2.167   3.711  17.119 -2.0301  1.0433 -2.8867
 7916TIP3    H245240   2.036   3.661  17.177 -0.8525  1.0612 -0.1234
 7917TIP3   OH245241   2.821   1.452   3.554 -0.0031 -0.6330 -0.5932
 7917TIP3    H145242   2.853   1.538   3.581 -1.0076 -1.1454  2.4403
 7917TIP3    H245243   2.748   1.470   3.496 -1.2652  0.6119  1.3267
 7918TIP3   OH245244   0.908   2.570  14.125 -0.3572 -0.0062 -0.0839
 7918TIP3    H145245   0.842   2.547  14.191 -0.7463  0.2088 -0.4009
 7918TIP3    H245246   0.987   2.586  14.176 -0.5588 -0.2211  0.3024
 7919TIP3   OH245247   5.997   1.086  13.424 -0.0422 -0.3698  0.2681
 7919TIP3    H145248   5.962   1.096  13.512 -3.0430 -0.9667 -0.7950
 7919TIP3    H245249   5.979   0.995  13.400 -0.6761  0.1842 -1.4952
 7920TIP3   OH245250   4.457   4.752   1.820 -0.2485 -0.3394 -0.3925
 7920TIP3    H145251   4.551   4.755   1.805 -0.1157  1.8165  0.6577
 7920TIP3    H245252   4.422   4.706   1.744  1.5117  0.0964 -1.4946
 7921TIP3   OH245253   0.988   2.383  11.509 -0.4189  0.2596  0.2331
 7921TIP3    H145254   1.009   2.376  11.416 -0.4139 -0.3072  0.2737
 7921TIP3    H245255   1.047   2.320  11.551 -1.7595 -0.8714  0.4188
 7922TIP3   OH245256   6.211   2.482   2.773  0.1433 -0.3162 -0.6000
 7922TIP3    H145257   6.166   2.554   2.817 -1.1044 -1.2074 -0.4137
 7922TIP3    H245258   6.198   2.500   2.680  3.4386  1.9937 -0.7292
 7923TIP3   OH245259   5.864   4.998  17.278 -0.6779 -0.1203 -0.4387
 7923TIP3    H145260   5.787   4.991  17.221  0.1627  0.3807 -1.6630
 7923TIP3    H245261   5.938   4.981  17.220  0.1504 -0.5727  0.7266
 7924TIP3   OH245262   5.688   4.464  12.514  0.3616 -0.0520  0.2129
 7924TIP3    H145263   5.777   4.481  12.547  0.6353 -0.1996 -0.4296
 7924TIP3    H245264   5.634   4.529  12.558  1.0220  0.9637 -0.4581
 7925TIP3   OH245265   3.563   5.863  16.804 -0.1395 -0.0762 -0.7954
 7925TIP3    H145266   3.627   5.895  16.867 -0.1561 -0.0970 -0.7682
 7925TIP3    H245267   3.555   5.769  16.822 -1.2453  0.1918  0.1529
 7926TIP3   OH245268   2.037   1.272  17.239  0.7116  0.6396  0.4974
 7926TIP3    H145269   2.071   1.220  17.167 -0.5021  1.5553 -0.7588
 7926TIP3    H245270   2.039   1.363  17.207 -2.6355  0.7789  0.4179
 7927TIP3   OH245271   1.280   5.010  16.540  0.0585  0.4457  0.1851
 7927TIP3    H145272   1.197   4.964  16.531 -0.3016  1.1428 -0.0658
 7927TIP3    H245273   1.262   5.099  16.510  0.0600  1.5322  3.2182
 7928TIP3   OH245274   4.505   1.345   4.852  0.4255  0.0341 -0.2562
 7928TIP3    H145275   4.430   1.374   4.905  0.1216 -2.3973  0.7078
 7928TIP3    H245276   4.499   1.397   4.772 -2.2402 -0.0165 -0.1401
 7929TIP3   OH245277   3.404   1.991   4.826  0.1731 -0.0367  0.2688
 7929TIP3    H145278   3.433   2.037   4.747 -2.5065  0.6424 -0.3760
 7929TIP3    H245279   3.407   1.899   4.802 -1.2456  0.2019 -0.8628
 7930TIP3   OH245280   1.481   4.218  10.841 -0.2839  0.5212  0.9112
 7930TIP3    H145281   1.430   4.187  10.767 -0.6753  2.0322  0.5240
 7930TIP3    H245282   1.423   4.207  10.916 -0.3945  0.2568  0.7865
 7931TIP3   OH245283   1.028   4.988  12.382 -0.2682 -0.4004  0.6951
 7931TIP3    H145284   0.971   5.054  12.343 -1.0368 -0.6717  1.3443
 7931TIP3    H245285   0.968   4.931  12.431  0.7699  0.3477  2.8490
 7932TIP3   OH245286   0.871   3.184  16.094 -0.3496 -0.5013  0.0962
 7932TIP3    H145287   0.894   3.116  16.157  0.5569  0.3094  0.6673
 7932TIP3    H245288   0.954   3.205  16.051 -0.7745 -0.3266 -0.6350
 7933TIP3   OH245289   3.503   0.441   5.175  0.3267  0.1521 -0.0938
 7933TIP3    H145290   3.458   0.502   5.234  3.1025  0.5766  1.6351
 7933TIP3    H245291   3.432   0.392   5.133 -1.7942  1.7073  1.5793
 7934TIP3   OH245292   1.562   3.674   0.109 -0.1436  0.2568  0.4457
 7934TIP3    H145293   1.564   3.584   0.077  0.1713  0.6464 -0.6649
 7934TIP3    H245294   1.649   3.688   0.146 -0.4512 -0.1415  1.3277
 7935TIP3   OH245295   6.500   0.547  11.771  0.2206  0.0310  0.2504
 7935TIP3    H145296   6.530   0.483  11.706  4.7478  1.4403  0.7882
 7935TIP3    H245297   6.531   0.512  11.855 -0.4960  1.0816  0.9658
 7936TIP3   OH245298   4.144   5.163   3.150 -0.2023  0.2953  0.0528
 7936TIP3    H145299   4.191   5.121   3.079 -1.1776 -1.4129  0.3924
 7936TIP3    H245300   4.060   5.118   3.154 -0.9536  1.7146  0.9857
 7937TIP3   OH245301   3.421   6.530   1.344  0.4604 -0.4491 -0.2886
 7937TIP3    H145302   3.382   6.482   1.271 -1.1243  1.8287 -0.9873
 7937TIP3    H245303   3.515   6.515   1.336  0.2108 -1.0765 -2.1681
 7938TIP3   OH245304   0.163   3.652   2.125  0.2764 -0.0521 -0.3105
 7938TIP3    H145305   0.133   3.738   2.098  0.0241  0.3856  1.3316
 7938TIP3    H245306   0.191   3.663   2.216  2.2488 -1.2089 -0.7398
 7939TIP3   OH245307   6.647   2.639  14.155 -0.3640  0.2789  0.3273
 7939TIP3    H145308   6.741   2.655  14.155 -0.4110  0.5825  0.0806
 7939TIP3    H245309   6.623   2.634  14.247  0.2894 -2.2948  0.3810
 7940TIP3   OH245310   6.411   4.872   3.198 -0.6247 -0.0861  0.3237
 7940TIP3    H145311   6.318   4.896   3.199 -0.0834  2.1377  3.4330
 7940TIP3    H245312   6.425   4.827   3.281  1.3565  0.6937  0.4225
 7941TIP3   OH245313   3.233   2.765   4.459  0.7429  0.1665  0.3920
 7941TIP3    H145314   3.210   2.829   4.392 -3.9644 -1.3781  0.2979
 7941TIP3    H245315   3.283   2.698   4.412 -0.1254  0.4833 -1.0300
 7942TIP3   OH245316   2.317   1.196   5.044 -0.5934  0.2042 -0.3164
 7942TIP3    H145317   2.247   1.187   4.979  0.8901  0.8035 -2.0536
 7942TIP3    H245318   2.369   1.270   5.013 -0.1505  0.8435  1.8687
 7943TIP3   OH245319   5.263   0.008   1.839 -0.1707 -0.5107  0.5221
 7943TIP3    H145320   5.274   0.073   1.908 -0.4993 -0.0801  0.1720
 7943TIP3    H245321   5.352  -0.022   1.819  0.1493  1.0754 -0.5016
 7944TIP3   OH245322   4.000   1.507   4.000  0.0242 -0.2366  0.4402
 7944TIP3    H145323   3.934   1.505   3.932  0.5527 -1.6625 -0.0656
 7944TIP3    H245324   3.951   1.508   4.082 -0.6173 -0.0185  0.0481
 7945TIP3   OH245325   4.757   0.027   1.291  0.3114  0.3096 -0.4296
 7945TIP3    H145326   4.810  -0.021   1.227  1.6210  2.4846 -1.0578
 7945TIP3    H245327   4.686   0.065   1.239 -0.5249 -0.6801 -0.0029
 7946TIP3   OH245328   2.954   2.380  12.078  0.1746  0.2072 -0.2491
 7946TIP3    H145329   3.015   2.428  12.022 -0.7263 -1.2231 -2.4798
 7946TIP3    H245330   3.011   2.326  12.134  1.1061  2.3502  0.9232
 7947TIP3   OH245331   2.829   3.607  12.246 -0.0864 -0.1032 -0.3183
 7947TIP3    H145332   2.752   3.601  12.302  0.1633  0.7225  0.1215
 7947TIP3    H245333   2.898   3.563  12.296  0.2128  0.9044  0.1679
 7948TIP3   OH245334   1.400   1.860   6.166  0.1141  0.3843 -0.1350
 7948TIP3    H145335   1.474   1.920   6.156 -2.0174  2.8075 -1.7252
 7948TIP3    H245336   1.328   1.915   6.197 -1.2175 -1.8248  0.8061
 7949TIP3   OH245337   2.510   2.826   6.334 -0.7341 -0.0949 -0.0622
 7949TIP3    H145338   2.568   2.815   6.409 -0.0603  2.8147 -0.0869
 7949TIP3    H245339   2.438   2.879   6.367 -0.7156  0.7303 -1.2886
 7950TIP3   OH245340   2.971   0.091  16.766 -0.1339  0.2329 -0.2599
 7950TIP3    H145341   3.026   0.155  16.813  1.5968 -0.6761 -1.0035
 7950TIP3    H245342   2.980   0.115  16.674 -2.4515  1.1773 -0.2766
 7951TIP3   OH245343   4.347   2.284  14.321  0.0991 -0.2435  0.1195
 7951TIP3    H145344   4.302   2.245  14.396  0.7708 -1.8008 -0.2698
 7951TIP3    H245345   4.432   2.311  14.354  0.2710 -0.6266 -0.0182
 7952TIP3   OH245346   5.178   3.934   5.427 -0.0281 -0.6469  0.1406
 7952TIP3    H145347   5.188   3.932   5.523  0.4806 -0.0138  0.1073
 7952TIP3    H245348   5.179   4.027   5.405 -2.8217 -0.6600 -0.2212
 7953TIP3   OH245349   4.119   0.350  13.457 -0.0662  0.0807  0.2107
 7953TIP3    H145350   4.185   0.415  13.434 -1.4955  1.8752  1.0138
 7953TIP3    H245351   4.154   0.307  13.535  1.5331 -1.1286 -1.1335
 7954TIP3   OH245352   3.903   4.993  13.598 -0.2211 -0.0672  0.2233
 7954TIP3    H145353   3.956   5.063  13.561  0.7418 -0.0820  1.5359
 7954TIP3    H245354   3.940   4.912  13.563 -1.1444  0.0499 -1.0545
 7955TIP3   OH245355   5.513   1.272  15.040  0.5075 -0.5742 -0.8061
 7955TIP3    H145356   5.568   1.318  14.976 -1.1279  1.0246 -1.1060
 7955TIP3    H245357   5.573   1.249  15.111  1.6715  0.7685 -1.3215
 7956TIP3   OH245358   3.186   2.419   0.710  0.1007 -0.5053 -0.1620
 7956TIP3    H145359   3.191   2.466   0.793 -0.3660 -0.2517 -0.2781
 7956TIP3    H245360   3.223   2.480   0.646 -3.0936  0.8351 -0.7938
 7957TIP3   OH245361   3.636   2.032  12.226 -0.1995  0.5108  0.0457
 7957TIP3    H145362   3.627   1.936  12.229 -0.3043  0.4855 -0.7935
 7957TIP3    H245363   3.711   2.047  12.168  0.1615  0.9280  0.6142
 7958TIP3   OH245364   0.497   1.823   6.016 -0.4935  0.1483 -0.3935
 7958TIP3    H145365   0.589   1.818   6.041 -0.8566 -0.3870  0.8656
 7958TIP3    H245366   0.468   1.732   6.012 -1.2003  0.3464  0.1348
 7959TIP3   OH245367   1.183   1.097   1.441  0.3577 -0.2010 -0.3649
 7959TIP3    H145368   1.190   1.128   1.350  0.3403 -1.5509 -0.8437
 7959TIP3    H245369   1.089   1.082   1.454  0.4213 -0.5598 -0.3178
 7960TIP3   OH245370   5.988   5.351   2.587  0.0191 -0.4401  0.3252
 7960TIP3    H145371   5.925   5.278   2.584 -1.6447  0.9709 -0.2248
 7960TIP3    H245372   6.036   5.338   2.668 -2.5933 -0.2895  1.9449
 7961TIP3   OH245373   5.251   3.718  13.736  0.4268 -0.0634  0.1074
 7961TIP3    H145374   5.185   3.782  13.708  0.5327  0.2375  0.5420
 7961TIP3    H245375   5.299   3.762  13.806  0.5271 -0.6051  0.3815
 7962TIP3   OH245376   0.626   1.804  16.881  0.0002  0.0761  0.2950
 7962TIP3    H145377   0.691   1.762  16.825  1.8945  2.3732  0.7260
 7962TIP3    H245378   0.659   1.892  16.895 -2.2084  0.6552  2.1931
 7963TIP3   OH245379   2.249   3.312   0.040  0.7998  0.3845  0.3448
 7963TIP3    H145380   2.337   3.336   0.071  0.1945  0.1624  2.2735
 7963TIP3    H245381   2.197   3.305   0.120 -0.4953 -1.4614 -0.6464
 7964TIP3   OH245382   3.799   1.784  13.503  0.6042  0.1372 -0.1795
 7964TIP3    H145383   3.738   1.723  13.545 -0.7364 -0.4636 -2.8609
 7964TIP3    H245384   3.743   1.852  13.466  1.7387  0.7413 -0.8107
 7965TIP3   OH245385   0.629   0.071  16.946 -0.6479 -0.2529 -0.0691
 7965TIP3    H145386   0.641   0.144  17.007 -0.8565  0.4873 -0.8974
 7965TIP3    H245387   0.718   0.038  16.930 -0.5294 -0.0429  0.1478
 7966TIP3   OH245388   6.717   1.914   5.939 -0.1988  0.3220 -0.1683
 7966TIP3    H145389   6.767   1.942   5.863  0.3466  2.0602  0.7968
 7966TIP3    H245390   6.679   1.995   5.974  0.6178 -0.2361  2.1573
 7967TIP3   OH245391   3.681   1.637  15.209 -0.2782 -0.2850  0.3693
 7967TIP3    H145392   3.629   1.717  15.203 -0.7122 -0.5073  1.0503
 7967TIP3    H245393   3.701   1.628  15.303  2.4298  0.6985 -0.0555
 7968TIP3   OH245394   4.685   6.197   1.914 -0.0271  0.0824  0.2376
 7968TIP3    H145395   4.630   6.268   1.946 -0.8055  0.4504 -1.8973
 7968TIP3    H245396   4.771   6.237   1.900  0.2829 -0.0454  1.6443
 7969TIP3   OH245397   3.098   2.834   2.569 -0.0904  0.2536  0.7240
 7969TIP3    H145398   3.086   2.927   2.590  1.4981  0.5341  0.4279
 7969TIP3    H245399   3.057   2.825   2.482  1.7562  1.1986 -0.2758
 7970TIP3   OH245400   3.099   0.665  14.707  0.0474  0.2031 -0.7843
 7970TIP3    H145401   3.014   0.643  14.745 -0.1442 -0.7614 -1.7641
 7970TIP3    H245402   3.106   0.610  14.629  1.2108  0.8807 -1.1724
 7971TIP3   OH245403   0.114   1.774  16.476  0.0321 -0.3664  0.0880
 7971TIP3    H145404   0.100   1.690  16.519 -1.0311 -0.4052 -0.3420
 7971TIP3    H245405   0.199   1.764  16.432  1.0882 -0.3606  2.0664
 7972TIP3   OH245406   2.686   0.421  15.034  0.0876 -0.2314 -0.0603
 7972TIP3    H145407   2.657   0.494  15.089 -0.2111  1.3065 -2.2052
 7972TIP3    H245408   2.779   0.412  15.054 -0.0237  0.2698  0.7094
 7973TIP3   OH245409   4.074   0.573  16.992 -0.2914  0.2236 -0.2650
 7973TIP3    H145410   4.030   0.615  17.066  0.3504  0.3205  0.0655
 7973TIP3    H245411   4.079   0.640  16.925  1.8547  1.1041  0.7080
 7974TIP3   OH245412   5.012   0.519   0.663  0.2007 -0.2119  0.0144
 7974TIP3    H145413   4.996   0.603   0.707  2.3039  0.8178 -1.1185
 7974TIP3    H245414   5.053   0.464   0.731  0.6449  0.3428  0.1971
 7975TIP3   OH245415   3.076   6.496  16.821 -0.6230  0.5106  0.0539
 7975TIP3    H145416   3.058   6.504  16.728  0.6203 -2.0568 -0.4592
 7975TIP3    H245417   2.993   6.469  16.859 -0.4440 -1.3652 -0.7992
 7976TIP3   OH245418   1.487   5.141  13.653 -0.1475 -0.4644  0.4857
 7976TIP3    H145419   1.416   5.079  13.637  0.1598 -0.9321  0.9156
 7976TIP3    H245420   1.448   5.207  13.711 -0.3984 -0.4000  0.2432
 7977TIP3   OH245421   6.504   5.696  15.211 -0.3505  0.3364 -0.2288
 7977TIP3    H145422   6.562   5.654  15.274 -2.0965 -2.2568 -0.2963
 7977TIP3    H245423   6.522   5.790  15.221  2.4852 -0.2881  1.0342
 7978TIP3   OH245424   1.703   0.012  15.022 -0.4613 -0.0104 -0.2635
 7978TIP3    H145425   1.639  -0.054  14.995 -0.8908  0.1043  0.4623
 7978TIP3    H245426   1.650   0.079  15.065  0.1616  0.0697  0.3742
 7979TIP3   OH245427   3.547   5.979  14.749  0.5689 -0.0005  0.2135
 7979TIP3    H145428   3.612   5.988  14.679  1.1833  0.1051  0.7948
 7979TIP3    H245429   3.528   6.069  14.776  0.3095 -0.0395  0.1635
 7980TIP3   OH245430   4.024   1.106   1.729 -0.2489 -0.4770  0.4120
 7980TIP3    H145431   4.048   1.020   1.765  0.5113 -0.7609 -0.7224
 7980TIP3    H245432   4.058   1.169   1.793  0.9563 -0.9730  0.2755
 7981TIP3   OH245433   5.720   6.039   2.225  0.7073  0.0727 -0.5297
 7981TIP3    H145434   5.772   6.020   2.304  1.1442  1.6373 -0.4368
 7981TIP3    H245435   5.647   6.092   2.256  0.4004 -0.0303 -1.0602
 7982TIP3   OH245436   1.391   1.928   2.846  0.1347  0.0187  0.1223
 7982TIP3    H145437   1.423   1.848   2.804  0.7174  0.6895 -0.7241
 7982TIP3    H245438   1.398   1.996   2.778  2.1876  1.3720  1.6210
 7983TIP3   OH245439   4.316   1.643  13.245  0.3774  0.7402  0.2865
 7983TIP3    H145440   4.365   1.641  13.163  1.0606 -2.0344  0.7020
 7983TIP3    H245441   4.350   1.718  13.293 -0.5816  2.8488 -2.2694
 7984TIP3   OH245442   2.260   2.278  16.238 -0.2628  0.1622 -0.0690
 7984TIP3    H145443   2.298   2.197  16.203  1.8567  1.3424 -0.5461
 7984TIP3    H245444   2.174   2.284  16.196 -1.7968 -3.4023  2.2834
 7985TIP3   OH245445   0.261   5.702   1.509  0.5156  0.2696  0.0684
 7985TIP3    H145446   0.262   5.775   1.447 -0.0017 -0.1254 -0.4069
 7985TIP3    H245447   0.305   5.736   1.587 -1.1031  1.5833  0.4215
 7986TIP3   OH245448   0.528   1.733  12.666  0.1440  0.2801  0.8612
 7986TIP3    H145449   0.560   1.664  12.724  1.4877 -0.9184 -1.2196
 7986TIP3    H245450   0.598   1.798  12.665  0.0399  0.3907  0.7543
 7987TIP3   OH245451   4.044   5.620  14.945  0.7038 -0.3690  0.2318
 7987TIP3    H145452   3.992   5.594  15.021  2.0872 -1.9097  0.6626
 7987TIP3    H245453   3.983   5.614  14.871  0.0894 -1.5453  0.8188
 7988TIP3   OH245454   1.467   5.304   2.744  0.6014  0.3435 -0.1903
 7988TIP3    H145455   1.412   5.350   2.680 -0.5559 -0.0970  0.4719
 7988TIP3    H245456   1.492   5.372   2.807 -1.4692  0.0165  1.0337
 7989TIP3   OH245457   5.712   3.517  15.424 -0.5080 -0.4257 -0.0505
 7989TIP3    H145458   5.673   3.498  15.339 -0.1366 -0.7024 -0.1651
 7989TIP3    H245459   5.753   3.603  15.413 -1.3425  0.0031  0.1632
 7990TIP3   OH245460   1.097   0.677  12.787  0.5353  0.1559  0.5245
 7990TIP3    H145461   1.031   0.716  12.729 -0.5260 -1.7558  0.3929
 7990TIP3    H245462   1.054   0.673  12.872  0.4604 -1.1297  0.4314
 7991TIP3   OH245463   0.450   3.744  12.628 -0.3102  0.1110 -0.5468
 7991TIP3    H145464   0.409   3.793  12.700 -0.0314 -0.7399  0.2015
 7991TIP3    H245465   0.400   3.769  12.551  0.4663  2.3501 -0.3429
 7992TIP3   OH245466   5.367   0.629   4.516  0.1250  0.1292 -0.0947
 7992TIP3    H145467   5.391   0.575   4.592 -1.5255  0.7582  0.9187
 7992TIP3    H245468   5.449   0.643   4.469  1.0372 -0.9527  1.1401
 7993TIP3   OH245469   1.327   6.471  13.381 -0.0175 -0.6017  0.7381
 7993TIP3    H145470   1.341   6.438  13.470  0.1626 -0.5235  0.7387
 7993TIP3    H245471   1.283   6.555  13.393  0.2591 -0.4591  0.7647
 7994TIP3   OH245472   1.716   2.184   4.092  0.8274 -0.8645  0.3881
 7994TIP3    H145473   1.620   2.180   4.096  0.7648  0.9336  0.9323
 7994TIP3    H245474   1.739   2.126   4.019 -0.6812 -1.1200  0.0887
 7995TIP3   OH245475   0.470   1.019  16.857  0.2124  0.7039  0.0371
 7995TIP3    H145476   0.556   1.051  16.831 -0.3078  0.6596 -1.8001
 7995TIP3    H245477   0.479   0.924  16.855  0.2614  0.7042  0.3040
 7996TIP3   OH245478   2.215   1.944   5.053 -0.3810  0.5672  0.1740
 7996TIP3    H145479   2.201   1.913   4.964  0.7857  0.0452  0.1713
 7996TIP3    H245480   2.309   1.938   5.067 -0.8196 -2.0654  2.4248
 7997TIP3   OH245481   4.098   1.760  13.086 -0.0504 -0.1807  0.0769
 7997TIP3    H145482   4.151   1.716  13.153 -0.6880  2.5141  2.4624
 7997TIP3    H245483   4.156   1.829  13.051 -0.4878 -0.1126 -0.5259
 7998TIP3   OH245484   2.008   2.518  13.098  0.4250 -0.6122 -0.4884
 7998TIP3    H145485   2.087   2.530  13.046  0.4783  0.1548 -0.2359
 7998TIP3    H245486   2.022   2.571  13.176 -0.7514  0.3200 -0.9017
 7999TIP3   OH245487   6.153   0.715  16.412  0.1917  0.9111  0.2096
 7999TIP3    H145488   6.130   0.627  16.444  2.1942  0.1459 -0.3759
 7999TIP3    H245489   6.104   0.725  16.331  1.0626 -0.2577 -0.4681
 8000TIP3   OH245490   1.167   0.173  13.960 -0.2177  0.3923 -0.1369
 8000TIP3    H145491   1.211   0.141  14.039  0.4345 -0.0944 -0.6959
 8000TIP3    H245492   1.082   0.204  13.992  0.3420  0.9219  0.8758
 8001TIP3   OH245493   0.870   6.243   5.555  0.4865 -0.2338  0.5346
 8001TIP3    H145494   0.775   6.230   5.552  0.5431 -0.5318 -0.0397
 8001TIP3    H245495   0.900   6.181   5.622  0.3442 -0.5729  0.2878
 8002TIP3   OH245496   0.233   0.237  13.568 -0.3280  0.4888 -0.3417
 8002TIP3    H145497   0.166   0.218  13.633  0.4508 -1.4396 -0.0761
 8002TIP3    H245498   0.204   0.319  13.527 -1.4259  1.1001  1.6095
 8003TIP3   OH245499   0.018   1.523   5.266  0.0143  0.2995 -0.7218
 8003TIP3    H145500   0.064   1.477   5.196 -0.1577 -0.1155 -0.5640
 8003TIP3    H245501   0.086   1.566   5.316  0.1393  0.6169 -1.1557
 8004TIP3   OH245502   1.943   3.700   2.884 -0.0147 -0.2331  0.5197
 8004TIP3    H145503   2.035   3.724   2.872 -0.1109  0.0245  0.3103
 8004TIP3    H245504   1.947   3.612   2.921  0.3413  0.2279  1.5998
 8005TIP3   OH245505   5.077   5.537   2.915  0.2586  0.1510  0.0353
 8005TIP3    H145506   5.016   5.547   2.988  2.1009  0.0117  1.6302
 8005TIP3    H245507   5.062   5.447   2.884 -0.5168  0.2029  0.2459
 8006TIP3   OH245508   4.551   0.718  11.762 -0.2690  0.1568 -0.0788
 8006TIP3    H145509   4.597   0.734  11.680 -0.8318 -1.2803 -0.6845
 8006TIP3    H245510   4.614   0.671  11.817  0.6627  2.5055  0.9301
 8007TIP3   OH245511   5.407   2.959   0.168 -0.2838 -0.2683 -0.3719
 8007TIP3    H145512   5.319   2.995   0.172  0.3507  1.2093  0.8828
 8007TIP3    H245513   5.453   3.014   0.105  1.4138  2.9104  3.4196
 8008TIP3   OH245514   3.250   0.248  16.689 -0.1453  0.1769 -0.2110
 8008TIP3    H145515   3.252   0.174  16.628 -1.1459 -1.0529  1.2351
 8008TIP3    H245516   3.299   0.218  16.766 -0.2879  1.1419  0.2672
 8009TIP3   OH245517   2.911   5.248   2.232  0.4043  0.2936 -0.0649
 8009TIP3    H145518   2.956   5.283   2.155  0.5192  0.1073 -0.0854
 8009TIP3    H245519   2.819   5.270   2.219  0.3075 -0.4151 -0.6440
 8010TIP3   OH245520   4.079   1.645  13.899 -0.2625 -0.0506 -1.3183
 8010TIP3    H145521   4.173   1.626  13.905 -0.5375 -1.2618 -0.6591
 8010TIP3    H245522   4.068   1.684  13.812  1.0608  1.3930 -0.8626
 8011TIP3   OH245523   6.249   2.365  15.392 -0.0681 -0.7731  0.0019
 8011TIP3    H145524   6.189   2.290  15.396  0.3733 -1.1121  0.2568
 8011TIP3    H245525   6.242   2.405  15.479  0.0183 -0.7704  0.0083
 8012TIP3   OH245526   6.593   4.763   3.023 -0.3345  0.3526 -0.1822
 8012TIP3    H145527   6.632   4.713   3.094  0.8574  0.6929 -0.5876
 8012TIP3    H245528   6.524   4.815   3.065 -0.6475 -0.5774  0.4624
 8013TIP3   OH245529   0.885   0.494   6.217  0.4565 -0.1248  0.5718
 8013TIP3    H145530   0.862   0.585   6.199 -1.3651 -0.5225  0.8080
 8013TIP3    H245531   0.953   0.473   6.153 -0.2237  0.9232 -0.5061
 8014TIP3   OH245532   6.477   6.317   0.059  0.0787 -0.1724  0.1940
 8014TIP3    H145533   6.538   6.248   0.085  0.5617  0.5506  1.0566
 8014TIP3    H245534   6.470   6.310  -0.036 -1.5729 -2.7852  0.4683
 8015TIP3   OH245535   4.328   6.197  15.087 -0.3544 -0.0142  0.5208
 8015TIP3    H145536   4.260   6.211  15.021 -1.1044 -1.5266  0.9523
 8015TIP3    H245537   4.409   6.192  15.037 -0.7129  0.5300 -0.1206
 8016TIP3   OH245538   2.429   0.072   3.159  0.7421  0.5215 -0.3989
 8016TIP3    H145539   2.464   0.161   3.161  0.7529  0.5216 -0.6270
 8016TIP3    H245540   2.420   0.048   3.251 -2.5123  2.0411 -0.2504
 8017TIP3   OH245541   4.694   5.121  11.085 -0.3690 -0.2334  0.2998
 8017TIP3    H145542   4.666   5.212  11.094 -1.4162 -0.4806 -0.4318
 8017TIP3    H245543   4.695   5.104  10.991 -1.5046 -1.3814  0.4821
 8018TIP3   OH245544   5.045   1.542   0.828  0.3381  0.2986 -0.1009
 8018TIP3    H145545   4.955   1.558   0.858 -0.5603 -2.4300 -1.2398
 8018TIP3    H245546   5.047   1.449   0.807  2.6484  0.9057 -2.7549
 8019TIP3   OH245547   3.707   5.924  14.548 -0.0145  0.0629 -0.1452
 8019TIP3    H145548   3.758   5.966  14.478  1.0050 -2.4469 -0.9959
 8019TIP3    H245549   3.631   5.888  14.503 -0.0430 -0.4053  0.2774
 8020TIP3   OH245550   5.616   0.513  13.534 -0.3081  0.1851  0.0981
 8020TIP3    H145551   5.686   0.559  13.487 -0.3741 -0.0763 -0.2625
 8020TIP3    H245552   5.610   0.428  13.490 -0.5324  0.0272  0.4322
 8021TIP3   OH245553   4.885   6.623  14.930 -0.3492 -0.5013 -0.0878
 8021TIP3    H145554   4.846   6.544  14.892 -1.8536 -0.1029  0.6051
 8021TIP3    H245555   4.845   6.630  15.016  0.2240  0.7061  0.0851
 8022TIP3   OH245556   6.283   5.952  17.246  0.2073 -0.2411 -0.5371
 8022TIP3    H145557   6.319   6.021  17.191 -0.6230 -1.0318 -2.1139
 8022TIP3    H245558   6.277   5.990  17.333 -0.8904  1.9142 -1.5226
 8023TIP3   OH245559   6.544   5.330   0.444  0.2091  0.1580  0.1175
 8023TIP3    H145560   6.485   5.293   0.509 -1.0103  1.4989 -0.2301
 8023TIP3    H245561   6.538   5.270   0.369 -1.7984  1.0615 -0.4610
 8024TIP3   OH245562   1.507   3.506  13.614 -0.6398  0.0680  0.8079
 8024TIP3    H145563   1.571   3.435  13.620 -0.3306  0.3216  0.5615
 8024TIP3    H245564   1.541   3.563  13.544 -2.1739 -0.8562 -0.7309
 8025TIP3   OH245565   4.685   2.017  16.941  0.2205 -0.2789  0.2104
 8025TIP3    H145566   4.772   2.055  16.954  0.3159 -0.3980 -0.0640
 8025TIP3    H245567   4.673   2.018  16.846  0.0336 -0.5121  0.2316
 8026TIP3   OH245568   1.651   2.247   5.987 -0.1482 -0.1102 -0.1489
 8026TIP3    H145569   1.668   2.163   6.029  3.4437  0.3779 -0.4631
 8026TIP3    H245570   1.607   2.299   6.055  0.7496 -1.0828  1.2138
 8027TIP3   OH245571   5.098   5.689  12.344 -0.1976 -0.4662  0.0876
 8027TIP3    H145572   5.143   5.649  12.269 -2.6122 -3.4823  0.1333
 8027TIP3    H245573   5.009   5.656  12.338 -0.9612  0.8883  3.1459
 8028TIP3   OH245574   3.555   2.732   5.006 -0.0911  0.3319 -0.3935
 8028TIP3    H145575   3.610   2.735   4.928  0.8663 -1.1956  0.1772
 8028TIP3    H245576   3.467   2.753   4.976  0.3622  0.2516 -1.7838
 8029TIP3   OH245577   3.220   3.791   5.158  0.2354  0.0277 -0.3153
 8029TIP3    H145578   3.205   3.879   5.191 -1.0230  0.6998 -2.5124
 8029TIP3    H245579   3.136   3.747   5.170  0.3012 -0.2692 -0.9020
 8030TIP3   OH245580   0.414   4.563  12.018  0.0770  0.4921  0.6378
 8030TIP3    H145581   0.334   4.609  12.043 -0.8988 -0.8419  0.0784
 8030TIP3    H245582   0.480   4.631  12.006 -1.0191  1.6145  0.9856
 8031TIP3   OH245583   4.018   3.422  12.718  0.0643  0.4333  0.4262
 8031TIP3    H145584   3.967   3.501  12.734 -0.0891  0.4672 -0.1988
 8031TIP3    H245585   3.984   3.388  12.635  2.3015  1.5012 -1.0003
 8032TIP3   OH245586   3.141   6.546  10.788 -0.2245  0.7953  0.1993
 8032TIP3    H145587   3.231   6.518  10.802 -0.3270  0.5324  0.3363
 8032TIP3    H245588   3.088   6.473  10.820 -0.4379 -0.4481 -2.8355
 8033TIP3   OH245589   6.032   2.413   0.381  0.1262 -0.6056  0.3067
 8033TIP3    H145590   5.975   2.455   0.317  1.7351  1.1256 -0.0132
 8033TIP3    H245591   6.078   2.345   0.331  0.2871 -0.2489 -0.0258
 8034TIP3   OH245592   6.136   2.630   2.301  0.0808  0.5253  0.1179
 8034TIP3    H145593   6.052   2.593   2.331  0.9714 -0.8464  1.0056
 8034TIP3    H245594   6.114   2.716   2.267 -1.8107 -0.1180 -0.3407
 8035TIP3   OH245595   4.922   2.126  12.882 -0.1542  0.6839 -0.3766
 8035TIP3    H145596   4.880   2.184  12.946 -0.9229  0.7706 -0.9422
 8035TIP3    H245597   4.996   2.087  12.929 -0.4403  1.0887  0.4220
 8036TIP3   OH245598   0.195   2.996   0.632  0.3736 -0.3391 -0.0863
 8036TIP3    H145599   0.219   3.072   0.685  1.7033  0.0219 -1.1538
 8036TIP3    H245600   0.101   2.986   0.645  0.5627  0.1286  1.8033
 8037TIP3   OH245601   5.634   3.634   1.661  0.0722 -0.0824  0.3324
 8037TIP3    H145602   5.584   3.614   1.582  0.3909  0.0338  0.0970
 8037TIP3    H245603   5.592   3.583   1.730  1.0207 -1.8102 -0.3051
 8038TIP3   OH245604   1.194   5.148   5.261 -0.0566 -0.0787 -0.3065
 8038TIP3    H145605   1.212   5.112   5.347  1.4446  0.5432 -0.3474
 8038TIP3    H245606   1.200   5.243   5.273 -0.3277  0.0269 -0.9771
 8039TIP3   OH245607   5.549   5.692   6.182 -0.2158  0.5440  0.4330
 8039TIP3    H145608   5.543   5.788   6.186 -1.9848  0.4368  1.0788
 8039TIP3    H245609   5.457   5.663   6.177  0.3686 -1.0381 -2.0963
 8040TIP3   OH245610   0.071   5.342  13.289 -0.5959 -0.1661  0.0001
 8040TIP3    H145611   0.157   5.306  13.311  0.9840  2.8944 -0.8880
 8040TIP3    H245612   0.066   5.335  13.194 -1.1577  0.0189  0.0130
 8041TIP3   OH245613   4.785   3.410  11.730  0.4178 -0.4799 -0.2221
 8041TIP3    H145614   4.872   3.402  11.768  0.1656 -1.6525  0.1222
 8041TIP3    H245615   4.799   3.448  11.643  1.2300 -0.3136 -0.0136
 8042TIP3   OH245616   0.640   4.246  15.792  0.2538 -0.1577  0.0861
 8042TIP3    H145617   0.659   4.152  15.790 -1.6573 -0.5317 -1.9743
 8042TIP3    H245618   0.547   4.252  15.770  0.6343  2.2980 -0.9497
 8043TIP3   OH245619   1.731   4.091  10.926  0.1505  0.3892 -0.8688
 8043TIP3    H145620   1.640   4.102  10.897 -0.2690  1.0789  0.6718
 8043TIP3    H245621   1.735   4.136  11.011  1.4263 -1.2561 -0.0186
 8044TIP3   OH245622   2.719   0.951  14.086  0.2923  0.0945  0.0106
 8044TIP3    H145623   2.690   0.972  14.175  0.9913  0.9946  0.0320
 8044TIP3    H245624   2.650   0.988  14.029 -0.3317 -0.7877  0.1853
 8045TIP3   OH245625   1.105   4.557  16.496  0.0919 -0.6114  0.5880
 8045TIP3    H145626   1.087   4.463  16.487  0.8861 -0.6271 -0.8978
 8045TIP3    H245627   1.038   4.600  16.444  0.6853 -0.4256 -0.0302
 8046TIP3   OH245628   0.683   3.274   5.085  0.1179  0.0618  0.1287
 8046TIP3    H145629   0.658   3.303   4.998  0.5991 -1.0778 -0.4073
 8046TIP3    H245630   0.774   3.304   5.095  0.9747 -2.0857 -0.8411
 8047TIP3   OH245631   5.448   4.163   0.076  0.4328  0.5513 -0.2913
 8047TIP3    H145632   5.431   4.241   0.129  0.9606  1.7986 -1.9214
 8047TIP3    H245633   5.363   4.142   0.037  0.4014  0.6527 -0.2791
 8048TIP3   OH245634   0.586   4.550   3.060 -0.0708  0.3615 -0.2519
 8048TIP3    H145635   0.548   4.590   2.982  0.8150  0.6415 -0.5365
 8048TIP3    H245636   0.554   4.460   3.058  0.4743  0.1817 -1.2931
 8049TIP3   OH245637   6.353   6.710  15.541 -0.6489 -0.1985 -0.0052
 8049TIP3    H145638   6.328   6.650  15.611 -0.4751 -0.0037  0.2237
 8049TIP3    H245639   6.430   6.669  15.500 -1.0895 -0.5966 -0.4519
 8050TIP3   OH245640   0.113   3.680   5.801  0.3699 -0.4817  0.2594
 8050TIP3    H145641   0.107   3.706   5.893 -0.4644  0.3437 -0.0192
 8050TIP3    H245642   0.079   3.590   5.799  2.7955 -1.4377  1.1484
 8051TIP3   OH245643   6.739   4.692  12.205 -0.7823 -0.0787  0.3853
 8051TIP3    H145644   6.674   4.699  12.135 -1.2511 -0.8981  0.7266
 8051TIP3    H245645   6.692   4.720  12.283 -0.6254 -0.3544  0.5787
 8052TIP3   OH245646   0.281   1.036  14.698  0.5045  0.0710  1.1526
 8052TIP3    H145647   0.196   0.993  14.693  1.5045 -1.9628  1.1603
 8052TIP3    H245648   0.270   1.103  14.765 -1.7438  1.3811 -0.4567
 8053TIP3   OH245649   5.365   6.443  13.483  0.3553 -0.4524  1.0354
 8053TIP3    H145650   5.322   6.417  13.401  1.2254  0.7014  0.1916
 8053TIP3    H245651   5.358   6.366  13.539 -1.1877 -0.9006  0.2503
 8054TIP3   OH245652   4.903   0.831  11.059 -0.7988  0.0916  0.0968
 8054TIP3    H145653   4.979   0.868  11.015 -1.0542  1.6330  0.9412
 8054TIP3    H245654   4.875   0.759  11.002  0.1727  0.6893 -1.1467
 8055TIP3   OH245655   4.247   5.054   4.868  0.3401 -0.1392 -0.2188
 8055TIP3    H145656   4.209   5.068   4.781  0.6067  1.6292 -0.0599
 8055TIP3    H245657   4.302   5.130   4.883  2.4953 -1.7712  0.3591
 8056TIP3   OH245658   4.934   5.156   5.643 -0.4308  0.0116  0.0827
 8056TIP3    H145659   4.887   5.089   5.692  0.2133 -0.4160  0.1114
 8056TIP3    H245660   5.013   5.173   5.694  0.1519 -0.2973 -0.6998
 8057TIP3   OH245661   4.753   1.078   3.291  0.0407 -0.3035  0.6200
 8057TIP3    H145662   4.844   1.093   3.267 -0.0589  0.2997  0.6148
 8057TIP3    H245663   4.732   1.148   3.352 -1.4369  1.6305 -2.0388
 8058TIP3   OH245664   3.326   1.298   4.311  0.0026  0.1939 -0.2791
 8058TIP3    H145665   3.245   1.327   4.268  0.4438  0.5761 -0.8497
 8058TIP3    H245666   3.377   1.378   4.322 -0.6992  0.3578  2.2561
 8059TIP3   OH245667   5.395   3.043   0.984  0.9426  0.6827  0.3378
 8059TIP3    H145668   5.393   2.947   0.987  1.5927  0.4422 -3.6556
 8059TIP3    H245669   5.347   3.071   1.061 -0.5949 -2.8888  0.7623
 8060TIP3   OH245670   5.999   4.065  13.497  0.1273  0.0051 -0.0092
 8060TIP3    H145671   5.938   4.070  13.571  1.2432  2.9399  0.7780
 8060TIP3    H245672   5.969   4.133  13.437  2.3538  1.2141  0.2082
 8061TIP3   OH245673   0.251   5.945  11.580 -0.2364 -0.7266 -0.0561
 8061TIP3    H145674   0.307   5.921  11.654  0.0951 -0.8737 -0.3511
 8061TIP3    H245675   0.163   5.952  11.618 -0.2449 -1.8058  0.1578
 8062TIP3   OH245676   4.801   0.168  12.970  0.2426 -0.2222 -0.2970
 8062TIP3    H145677   4.865   0.233  12.998 -0.0092  0.7858 -1.9577
 8062TIP3    H245678   4.843   0.122  12.897 -0.7077  0.1260 -1.0832
 8063TIP3   OH245679   1.896   1.536   4.750  0.0923  0.2867  0.3336
 8063TIP3    H145680   1.876   1.629   4.760 -0.9471  0.0264  0.7461
 8063TIP3    H245681   1.913   1.505   4.839 -0.6868 -0.1553  0.3359
 8064TIP3   OH245682   6.818   1.417   1.804  0.2509 -0.0761 -0.1468
 8064TIP3    H145683   6.802   1.399   1.896 -0.1184 -0.1154 -0.2165
 8064TIP3    H245684   6.796   1.335   1.760  0.5262 -0.0900 -0.2597
 8065TIP3   OH245685   0.119   3.410   3.236  0.1489 -0.1857  0.2084
 8065TIP3    H145686   0.145   3.500   3.257 -0.7296  0.3205 -0.8563
 8065TIP3    H245687   0.116   3.366   3.321 -0.9584  1.2029  0.9127
 8066TIP3   OH245688   2.232   3.250  15.824  0.2873  0.5184 -0.1233
 8066TIP3    H145689   2.155   3.304  15.802  0.3378  0.3260 -0.7697
 8066TIP3    H245690   2.200   3.160  15.820  0.3259  0.4779  0.4855
 8067TIP3   OH245691   4.443   0.922  16.713 -0.0691 -0.3431 -0.9250
 8067TIP3    H145692   4.521   0.892  16.666  1.3844  0.9896  0.5562
 8067TIP3    H245693   4.399   0.842  16.741  0.9399 -1.1193 -1.5106
 8068TIP3   OH245694   5.825   0.339  16.745 -0.4195 -0.2425  0.6666
 8068TIP3    H145695   5.817   0.402  16.816  1.7299  1.5745 -0.6704
 8068TIP3    H245696   5.915   0.308  16.750 -0.1851  0.0597 -1.3776
 8069TIP3   OH245697   1.159   1.996  12.701 -0.1445  0.2617  0.2432
 8069TIP3    H145698   1.181   1.904  12.713 -2.0112 -0.3404 -0.7261
 8069TIP3    H245699   1.104   2.018  12.776 -0.7870  0.2066 -0.2030
 8070TIP3   OH245700   1.165   0.131  10.501 -0.1685  0.0352  0.4556
 8070TIP3    H145701   1.243   0.131  10.557 -0.3091  0.0794  0.6535
 8070TIP3    H245702   1.180   0.062  10.437  0.7845  1.1540 -0.5435
 8071TIP3   OH245703   4.164   4.447  15.319 -0.0181  0.3160 -0.3674
 8071TIP3    H145704   4.078   4.447  15.278  0.2312 -1.7288 -0.9773
 8071TIP3    H245705   4.226   4.447  15.246  0.4747  0.0767  0.0466
 8072TIP3   OH245706   3.583   3.670  12.044  0.6398 -0.3817 -0.2165
 8072TIP3    H145707   3.620   3.589  12.078  3.0988  1.1066  0.7910
 8072TIP3    H245708   3.601   3.735  12.112 -2.6357  0.7344 -0.3242
 8073TIP3   OH245709   3.067   2.283  12.914  0.3534 -0.5031  0.3358
 8073TIP3    H145710   3.023   2.254  12.834  0.4629  1.8674 -0.6192
 8073TIP3    H245711   3.142   2.334  12.884 -1.4047  3.1478  1.8717
 8074TIP3   OH245712   4.500   0.430  12.085 -0.2428  0.1358  0.8143
 8074TIP3    H145713   4.415   0.407  12.122 -0.0078 -0.7403  0.8147
 8074TIP3    H245714   4.518   0.517  12.120 -1.1083  0.3056  0.8637
 8075TIP3   OH245715   4.834   5.501   2.645 -0.1563  0.1371  0.1683
 8075TIP3    H145716   4.839   5.591   2.612 -0.4211 -0.0104 -0.2847
 8075TIP3    H245717   4.911   5.457   2.608  1.5260  0.8913  2.6479
 8076TIP3   OH245718   4.587   5.987  13.622 -0.7610 -0.1928  0.0474
 8076TIP3    H145719   4.577   5.977  13.527 -1.4545 -1.0515  0.2032
 8076TIP3    H245720   4.503   6.024  13.651  0.0768  1.6995  0.1097
 8077TIP3   OH245721   4.716   5.068  11.828  0.1479  0.1360 -0.2479
 8077TIP3    H145722   4.687   5.156  11.852  0.5969  0.1628  0.2098
 8077TIP3    H245723   4.640   5.012  11.847 -0.1403  0.4264 -0.5496
 8078TIP3   OH245724   1.443   1.401   5.361 -0.3364  0.5151  0.2116
 8078TIP3    H145725   1.507   1.427   5.294 -0.9874 -0.1247 -0.6620
 8078TIP3    H245726   1.495   1.361   5.430  0.4234  1.8649  0.4318
 8079TIP3   OH245727   6.002   1.985  14.723  0.1795  0.7804 -0.2541
 8079TIP3    H145728   6.028   1.965  14.812  0.7292  1.2406 -0.3097
 8079TIP3    H245729   5.963   2.072  14.728  0.2972  0.8483 -0.4758
 8080TIP3   OH245730   6.529   5.142   5.644  0.0904  0.5253 -0.4125
 8080TIP3    H145731   6.619   5.130   5.614 -0.0284  2.9370 -1.8578
 8080TIP3    H245732   6.477   5.089   5.584  0.3988  0.5437 -0.6998
 8081TIP3   OH245733   0.780   5.201   6.208 -0.1808  0.0550 -0.3306
 8081TIP3    H145734   0.868   5.187   6.243 -0.2077 -0.3810 -0.4411
 8081TIP3    H245735   0.722   5.182   6.281 -0.1318  2.0356  0.2791
 8082TIP3   OH245736   6.305   5.663  10.859 -0.1781 -0.2045 -0.2267
 8082TIP3    H145737   6.376   5.692  10.916  1.5690 -2.1649 -1.3164
 8082TIP3    H245738   6.264   5.591  10.906  0.2442 -0.7733 -0.7137
 8083TIP3   OH245739   5.224   0.979  16.203  0.3494  0.4668 -0.1993
 8083TIP3    H145740   5.217   1.046  16.134 -0.9710  1.1281  0.5480
 8083TIP3    H245741   5.155   0.916  16.182  0.3688  0.3326  0.1351
 8084TIP3   OH245742   2.181   4.891   4.758 -0.1499 -0.1710 -0.2100
 8084TIP3    H145743   2.236   4.844   4.696  0.5008  0.2524  0.0332
 8084TIP3    H245744   2.243   4.933   4.818 -0.7761 -1.4580  1.3903
 8085TIP3   OH245745   3.602   2.179   0.959 -0.5542 -0.1089 -0.4193
 8085TIP3    H145746   3.533   2.189   0.894 -2.2343  0.0020  1.3227
 8085TIP3    H245747   3.555   2.163   1.041  1.5344 -1.3410  0.5693
 8086TIP3   OH245748   0.898   1.070   1.416 -0.2070 -0.4411  0.6178
 8086TIP3    H145749   0.887   1.013   1.492  1.6691  0.7630  1.8436
 8086TIP3    H245750   0.836   1.142   1.431  0.0044 -0.3170  0.8969
 8087TIP3   OH245751   1.735   4.285   2.261 -1.0298 -0.5649  0.3320
 8087TIP3    H145752   1.736   4.192   2.281 -0.0415 -0.6663 -0.1552
 8087TIP3    H245753   1.680   4.324   2.329  0.3276 -1.2096  1.8291
 8088TIP3   OH245754   5.825   3.647  15.136 -0.1526 -0.6660 -0.3042
 8088TIP3    H145755   5.851   3.725  15.089 -0.9928  1.0669  2.0223
 8088TIP3    H245756   5.906   3.613  15.174 -0.2126  0.7976  1.1734
 8089TIP3   OH245757   2.498   1.819  12.378  0.0689 -0.0159  0.4273
 8089TIP3    H145758   2.563   1.875  12.421  0.7110 -1.4589  1.3483
 8089TIP3    H245759   2.504   1.844  12.285  1.8239 -0.0164  0.5238
 8090TIP3   OH245760   5.920   6.345   2.216  0.7545 -0.4786 -0.5822
 8090TIP3    H145761   5.965   6.281   2.271  1.3130 -0.4822 -1.0349
 8090TIP3    H245762   5.907   6.301   2.133 -0.1541 -0.4965 -0.4296
 8091TIP3   OH245763   3.497   2.570  16.452 -0.2005  0.5719  0.5618
 8091TIP3    H145764   3.490   2.653  16.499 -0.0503  0.6223  0.4961
 8091TIP3    H245765   3.573   2.581  16.395 -1.9890  1.5461 -1.7529
 8092TIP3   OH245766   1.815   4.866   0.612  0.1621 -0.4272 -0.2687
 8092TIP3    H145767   1.881   4.814   0.566 -1.4259 -3.4776  0.7733
 8092TIP3    H245768   1.732   4.825   0.588 -0.9918  0.4840  2.0661
 8093TIP3   OH245769   1.563   1.393   6.525 -0.3315  0.0407  0.7573
 8093TIP3    H145770   1.620   1.448   6.470 -0.7174 -2.4515 -2.2630
 8093TIP3    H245771   1.480   1.440   6.528 -0.9748 -0.7917 -2.6306
 8094TIP3   OH245772   6.475   5.909   3.952  0.6085 -0.6954 -0.3456
 8094TIP3    H145773   6.400   5.905   3.893 -0.5687 -2.1068  1.2121
 8094TIP3    H245774   6.488   6.002   3.969 -0.9073 -0.4510 -0.4786
 8095TIP3   OH245775   1.382   6.385  17.215  0.2139 -0.6004  0.3550
 8095TIP3    H145776   1.428   6.355  17.293  1.6228  0.9359  0.1425
 8095TIP3    H245777   1.452   6.401  17.151 -0.8987 -1.5938 -1.1499
 8096TIP3   OH245778   0.265   2.293  16.298 -0.9740  0.2440  0.2084
 8096TIP3    H145779   0.203   2.324  16.232 -1.4191 -0.9409  0.0682
 8096TIP3    H245780   0.338   2.257  16.248 -1.4264 -0.8864  0.3646
 8097TIP3   OH245781   0.678   6.250  13.617  0.0764  0.3151  0.1767
 8097TIP3    H145782   0.678   6.303  13.537  0.1394 -0.5455 -0.3981
 8097TIP3    H245783   0.631   6.304  13.681  2.3407  2.1785  0.3531
 8098TIP3   OH245784   1.242   2.549  16.617  0.1790 -0.0855  0.3096
 8098TIP3    H145785   1.266   2.554  16.525 -0.4730  1.4182  0.2224
 8098TIP3    H245786   1.291   2.620  16.659 -1.3817  0.7843  0.7104
 8099TIP3   OH245787   3.575   0.335  15.263 -0.3504  0.2044  0.1356
 8099TIP3    H145788   3.610   0.424  15.256 -0.1439  0.1756  0.7430
 8099TIP3    H245789   3.648   0.278  15.242 -0.8722  0.1893 -1.7725
 8100TIP3   OH245790   5.977   6.334  14.550  0.0601  0.2179 -0.2125
 8100TIP3    H145791   6.026   6.402  14.504  1.0213 -1.1858 -1.2962
 8100TIP3    H245792   6.014   6.252  14.518  0.1036 -0.7987  2.3873
 8101TIP3   OH245793   6.541   1.948   1.368  0.2692  0.6023  0.6917
 8101TIP3    H145794   6.603   2.020   1.379  0.0073  0.9377  0.0184
 8101TIP3    H245795   6.595   1.869   1.366  1.0339  1.1338 -3.2147
 8102TIP3   OH245796   2.450   4.430  14.285 -0.1852 -0.3613  0.7017
 8102TIP3    H145797   2.385   4.470  14.343  1.2431 -1.1291  2.8704
 8102TIP3    H245798   2.471   4.346  14.326  0.8648 -0.9072 -0.9096
 8103TIP3   OH245799   1.065   1.079   0.411  0.6616  0.2234 -0.0252
 8103TIP3    H145800   1.141   1.024   0.392 -0.9510 -2.8361  1.9009
 8103TIP3    H245801   1.007   1.068   0.336  0.3023 -0.8014  0.4009
 8104TIP3   OH245802   5.533   4.501   5.274  0.0984  0.0760  0.1429
 8104TIP3    H145803   5.557   4.418   5.316  0.5319  1.5258  2.8457
 8104TIP3    H245804   5.455   4.531   5.322 -1.3329  0.2313 -2.1920
 8105TIP3   OH245805   2.843   4.752   5.634  0.5765  0.0661 -0.0643
 8105TIP3    H145806   2.789   4.706   5.698 -2.7306 -0.6240 -3.1943
 8105TIP3    H245807   2.906   4.686   5.604 -1.1782 -1.0950 -1.2180
 8106TIP3   OH245808   3.496   4.209  15.688 -0.4091  0.1652  0.3319
 8106TIP3    H145809   3.420   4.169  15.647 -0.9288  1.1368  0.3233
 8106TIP3    H245810   3.549   4.241  15.616  0.6369 -1.6065  0.2880
 8107TIP3   OH245811   0.730   6.000   3.060  0.3791 -0.1620  0.2804
 8107TIP3    H145812   0.825   6.006   3.058  0.4066 -0.5965  0.3702
 8107TIP3    H245813   0.702   6.020   2.970  0.6330 -1.5001 -0.1019
 8108TIP3   OH245814   4.085   2.834   2.615  0.2656 -0.1679 -0.0161
 8108TIP3    H145815   4.007   2.889   2.623  0.8032  0.8321 -1.3928
 8108TIP3    H245816   4.114   2.819   2.705  0.5280  2.4301  0.3792
 8109TIP3   OH245817   2.398   5.116   5.746  0.4688 -0.3847 -0.2760
 8109TIP3    H145818   2.478   5.089   5.790  0.5052 -0.3798 -0.3386
 8109TIP3    H245819   2.367   5.191   5.795  1.1646  0.3717 -0.9820
 8110TIP3   OH245820   3.602   1.109   0.021 -0.0987  0.0755 -0.2428
 8110TIP3    H145821   3.606   1.048  -0.053  1.3968 -0.6034  0.3629
 8110TIP3    H245822   3.509   1.130   0.030 -0.8569 -3.1688  0.3639
 8111TIP3   OH245823   4.057   0.909   1.261 -0.2800 -0.6337 -0.0172
 8111TIP3    H145824   4.076   0.978   1.325 -2.3156  0.4810 -0.5445
 8111TIP3    H245825   4.060   0.828   1.311 -0.0516  0.0552  1.1041
 8112TIP3   OH245826   4.033   1.142  12.132  0.2747 -0.1257  0.0793
 8112TIP3    H145827   4.089   1.119  12.058  2.4436  1.2904  1.2419
 8112TIP3    H245828   4.084   1.205  12.183 -1.9748  0.4402  1.7274
 8113TIP3   OH245829   6.420   5.470   6.045 -0.0300 -0.0796 -0.6993
 8113TIP3    H145830   6.423   5.408   6.117 -0.9228  1.0382  0.3196
 8113TIP3    H245831   6.443   5.419   5.967 -1.1687 -1.7606  0.0516
 8114TIP3   OH245832   6.316   6.566  15.766  0.0365  0.5848  0.1305
 8114TIP3    H145833   6.364   6.484  15.773  1.4511  1.6122  4.2134
 8114TIP3    H245834   6.226   6.540  15.745  1.0967 -1.7438 -1.7751
 8115TIP3   OH245835   0.592   0.701   5.693 -0.5896  0.3798 -0.2129
 8115TIP3    H145836   0.585   0.607   5.681  1.8842  0.0417  0.7423
 8115TIP3    H245837   0.506   0.735   5.666 -2.4995 -2.3881  2.1078
 8116TIP3   OH245838   2.474   3.204  12.072 -0.3231  0.0302 -0.4684
 8116TIP3    H145839   2.457   3.298  12.082 -0.8876 -0.2078  0.9967
 8116TIP3    H245840   2.562   3.193  12.107 -0.2645  0.0178 -0.6220
 8117TIP3   OH245841   4.641   1.127   1.049  0.2035  0.0911  0.1938
 8117TIP3    H145842   4.667   1.146   1.139 -0.7576 -0.2459  0.5474
 8117TIP3    H245843   4.582   1.052   1.056  0.8756 -0.5469 -0.8111
 8118TIP3   OH245844   0.002   1.316   4.336  0.4126  0.1084  1.1915
 8118TIP3    H145845   0.094   1.287   4.333 -0.5128 -2.9221  0.5827
 8118TIP3    H245846  -0.011   1.343   4.427  1.9809  0.9082  1.2077
 8119TIP3   OH245847   4.710   5.383  15.383  0.3089 -0.1884 -0.8069
 8119TIP3    H145848   4.754   5.464  15.407 -0.5231  0.2051 -0.5835
 8119TIP3    H245849   4.775   5.315  15.399  0.6755  0.3374 -0.0202
 8120TIP3   OH245850   4.338   0.809  11.405  0.6103 -0.2728  0.2735
 8120TIP3    H145851   4.396   0.809  11.481 -0.4052 -0.3592  1.0437
 8120TIP3    H245852   4.343   0.899  11.371  0.1181  0.0825  1.1492
 8121TIP3   OH245853   3.318   5.355  14.188  0.2449 -0.4290  0.0154
 8121TIP3    H145854   3.259   5.412  14.238  0.5743 -0.3078  0.2702
 8121TIP3    H245855   3.274   5.343  14.104  0.1389  0.1467 -0.0144
 8122TIP3   OH245856   1.318   1.821  12.997  0.4081  0.4389 -0.3784
 8122TIP3    H145857   1.311   1.753  13.064 -2.0961 -0.3218 -1.3465
 8122TIP3    H245858   1.277   1.898  13.036 -0.4464  0.1909 -0.7806
 8123TIP3   OH245859   4.486   6.743  17.181 -0.0829  0.0434  0.3402
 8123TIP3    H145860   4.545   6.668  17.178 -1.0860 -0.8906  2.3865
 8123TIP3    H245861   4.407   6.713  17.135  0.1239  0.4262 -0.2686
 8124TIP3   OH245862   4.999   1.138  11.185 -0.0848  0.1773  0.0817
 8124TIP3    H145863   4.974   1.226  11.213 -0.1638  0.9812 -2.3935
 8124TIP3    H245864   5.090   1.146  11.157 -1.0828  0.3219 -3.3673
 8125TIP3   OH245865   3.596   0.469  15.827  0.0093  0.4069  0.1644
 8125TIP3    H145866   3.564   0.452  15.739 -0.4725 -1.7279  0.7421
 8125TIP3    H245867   3.540   0.540  15.859 -0.0503  0.9475 -1.0813
 8126TIP3   OH245868   5.659   5.156  14.497 -0.0700 -0.1162 -0.1467
 8126TIP3    H145869   5.718   5.228  14.474  0.2075 -0.7208 -1.3273
 8126TIP3    H245870   5.709   5.077  14.478 -0.8946 -0.6290 -0.1762
 8127TIP3   OH245871   1.619   5.268  12.221  0.0688 -0.1598 -0.2616
 8127TIP3    H145872   1.529   5.273  12.188  0.0192 -0.9618 -0.2484
 8127TIP3    H245873   1.660   5.349  12.190 -0.1945 -0.5341 -1.6430
 8128TIP3   OH245874   2.949   3.301  12.808  0.3413 -0.3245  0.0327
 8128TIP3    H145875   2.932   3.377  12.863  0.1388  0.3858 -1.0018
 8128TIP3    H245876   2.970   3.231  12.870  1.6551  0.8550  0.9523
 8129TIP3   OH245877   3.965   4.723  13.737 -0.3745  0.2336 -0.3454
 8129TIP3    H145878   4.029   4.742  13.669 -0.0249 -1.8583 -0.6298
 8129TIP3    H245879   4.016   4.683  13.808 -1.1648 -0.2263 -0.0282
 8130TIP3   OH245880   4.100   6.761   5.493 -0.3032  0.1843  0.7414
 8130TIP3    H145881   4.118   6.720   5.577  0.6680 -1.2002 -0.1170
 8130TIP3    H245882   4.030   6.709   5.455 -2.9241  2.6612  1.9783
 8131TIP3   OH245883   2.360   5.146  11.686 -0.1132 -0.1978  0.2654
 8131TIP3    H145884   2.408   5.095  11.621 -0.5735  0.1309 -0.3346
 8131TIP3    H245885   2.310   5.081  11.736 -1.5740 -0.2539 -1.2275
 8132TIP3   OH245886   5.677   5.915  15.559  0.1805 -0.4588  0.8762
 8132TIP3    H145887   5.596   5.866  15.576 -0.1239 -0.6116 -0.8841
 8132TIP3    H245888   5.648   5.995  15.514  1.0159 -0.6192  0.0325
 8133TIP3   OH245889   3.215   4.935  11.323 -0.6036  0.3120  0.0488
 8133TIP3    H145890   3.302   4.967  11.347  0.6956 -2.2556 -1.1223
 8133TIP3    H245891   3.169   4.925  11.406  0.7164  0.2779  0.7803
 8134TIP3   OH245892   3.557   0.175  14.349 -0.2099 -0.2471  0.0552
 8134TIP3    H145893   3.489   0.223  14.395 -0.2847 -2.8964  2.8845
 8134TIP3    H245894   3.514   0.144  14.269 -1.3205  0.9143  0.1813
 8135TIP3   OH245895   1.252   3.219   4.429 -0.5073  0.7888  0.1869
 8135TIP3    H145896   1.208   3.136   4.412 -0.9965  1.0053  0.3866
 8135TIP3    H245897   1.328   3.219   4.371 -0.0299 -0.1797  0.7844
 8136TIP3   OH245898   2.221   1.804   0.544  0.4380 -0.0009 -0.2881
 8136TIP3    H145899   2.280   1.856   0.488 -1.6231  4.6253  1.6382
 8136TIP3    H245900   2.274   1.783   0.621  1.1146 -0.3303 -0.8324
 8137TIP3   OH245901   0.722   6.474   0.232  0.0746  0.6243 -1.0011
 8137TIP3    H145902   0.715   6.486   0.137 -0.8642 -2.0665 -1.3355
 8137TIP3    H245903   0.802   6.423   0.244  0.6582  1.7105 -0.2673
 8138TIP3   OH245904   6.030   5.127  15.415  0.0820 -0.4366 -0.0421
 8138TIP3    H145905   6.055   5.061  15.479  0.5331  1.3682  1.6985
 8138TIP3    H245906   6.099   5.124  15.349  0.0381 -1.7672 -0.0346
 8139TIP3   OH245907   5.208   1.221   3.848 -0.0096  0.1128 -0.1718
 8139TIP3    H145908   5.275   1.208   3.781 -1.9121  1.5850 -2.4273
 8139TIP3    H245909   5.134   1.167   3.820 -0.3792 -0.2797  1.4572
 8140TIP3   OH245910   6.625   0.381   1.116  0.2619  0.5812 -0.2064
 8140TIP3    H145911   6.652   0.471   1.100  1.9626  0.1952  0.3501
 8140TIP3    H245912   6.704   0.329   1.100 -0.3056 -0.6632  0.9178
 8141TIP3   OH245913   3.005   5.419  12.742  0.6401  0.0238  0.6717
 8141TIP3    H145914   3.077   5.393  12.799  0.2198 -3.5066 -0.2740
 8141TIP3    H245915   3.024   5.378  12.658 -1.8040  0.0976  0.0285
 8142TIP3   OH245916   0.719   5.181   0.224  0.2953  0.1513  0.1774
 8142TIP3    H145917   0.639   5.132   0.210  0.1736  0.3292  0.2492
 8142TIP3    H245918   0.693   5.256   0.278  0.5411  0.1065  0.3646
 8143TIP3   OH245919   6.586   6.007   1.965  0.5207 -0.0765 -0.6447
 8143TIP3    H145920   6.503   6.020   1.918  0.9608  0.1289 -1.3599
 8143TIP3    H245921   6.603   5.913   1.957  0.8898  0.0517 -1.3899
 8144TIP3   OH245922   3.592   1.806   1.219  0.2011 -0.0634  0.5308
 8144TIP3    H145923   3.616   1.742   1.152 -0.4206 -0.8927  1.0967
 8144TIP3    H245924   3.664   1.802   1.282  0.5543  0.3779  0.1622
 8145TIP3   OH245925   5.869   1.878  14.996 -0.0162 -0.3212  0.4941
 8145TIP3    H145926   5.826   1.865  15.081  1.2298 -1.1549  1.0105
 8145TIP3    H245927   5.944   1.818  14.998  0.3874  0.1273 -0.9396
 8146TIP3   OH245928   4.293   0.269   5.728 -0.3092 -0.2909 -0.0210
 8146TIP3    H145929   4.200   0.262   5.703  0.2407  0.6859 -2.4519
 8146TIP3    H245930   4.295   0.239   5.819 -3.2201  0.9078  0.4966
 8147TIP3   OH245931   4.372   2.336  16.591 -0.0957 -0.4766 -0.0427
 8147TIP3    H145932   4.296   2.309  16.539  0.8633 -2.5962 -0.4056
 8147TIP3    H245933   4.436   2.365  16.525  0.4691 -1.5029  0.0283
 8148TIP3   OH245934   2.195   3.103   1.272  0.9010  0.4460 -0.0152
 8148TIP3    H145935   2.244   3.057   1.341 -0.0473  0.1622  0.4890
 8148TIP3    H245936   2.252   3.101   1.196  1.4349 -0.3870  0.3981
 8149TIP3   OH245937   0.240   0.826  14.327  0.1162 -0.3184 -0.0440
 8149TIP3    H145938   0.322   0.873  14.310 -0.5354  1.5958  1.7928
 8149TIP3    H245939   0.260   0.770  14.402  0.0137 -0.5925 -0.2208
 8150TIP3   OH245940   6.339   1.171  16.573 -0.0005  0.0940 -0.4928
 8150TIP3    H145941   6.425   1.186  16.533  0.3682  0.9205  0.5641
 8150TIP3    H245942   6.321   1.253  16.620 -0.9545 -0.4193  0.0367
 8151TIP3   OH245943   2.414   6.574   3.614  0.1825  0.0441 -0.0709
 8151TIP3    H145944   2.390   6.596   3.525  0.8166 -0.7622 -0.4556
 8151TIP3    H245945   2.419   6.658   3.660 -1.8358  0.3349 -0.3442
 8152TIP3   OH245946   4.842   3.816   1.291  0.4606 -0.0027  0.0008
 8152TIP3    H145947   4.759   3.839   1.251  0.5799  0.3451 -0.0415
 8152TIP3    H245948   4.853   3.722   1.273 -0.7642 -0.4579  1.4903
 8153TIP3   OH245949   0.108   0.929   0.679  0.2951 -0.2973  0.2996
 8153TIP3    H145950   0.083   0.837   0.680  2.7663 -1.0141 -0.3416
 8153TIP3    H245951   0.098   0.958   0.770 -0.6063 -1.1627  0.4760
 8154TIP3   OH245952   1.556   1.354  13.956  0.0146  0.4258  0.6350
 8154TIP3    H145953   1.615   1.362  14.030 -1.0392  1.7660  1.3663
 8154TIP3    H245954   1.597   1.405  13.886  0.9201 -0.6917  0.3485
 8155TIP3   OH245955   0.857   0.513  10.684  0.0684 -0.1281 -0.0959
 8155TIP3    H145956   0.879   0.501  10.591  1.1890 -2.0962  0.3873
 8155TIP3    H245957   0.890   0.434  10.726  1.0364  1.5037  2.2570
 8156TIP3   OH245958   0.187   6.650   1.216  0.4825 -0.6621  0.5497
 8156TIP3    H145959   0.122   6.581   1.206  0.1725 -0.2633 -0.2202
 8156TIP3    H245960   0.263   6.619   1.166  0.4497 -0.5761  0.4469
 8157TIP3   OH245961   1.559   0.104   2.240  0.1766 -0.1745 -0.2016
 8157TIP3    H145962   1.556   0.010   2.226 -2.8166 -0.2331  0.4481
 8157TIP3    H245963   1.543   0.115   2.333  2.3931  0.9404  0.0895
 8158TIP3   OH245964   2.229   0.557   2.324 -0.1839 -0.0525  0.0276
 8158TIP3    H145965   2.183   0.632   2.362 -0.9697 -0.3946 -0.2381
 8158TIP3    H245966   2.244   0.497   2.398  0.9430  0.6056  0.3457
 8159TIP3   OH245967   3.082   6.270  13.656 -0.5808  0.1444 -0.4091
 8159TIP3    H145968   3.073   6.359  13.691 -0.6303 -0.4193  1.0739
 8159TIP3    H245969   3.175   6.262  13.636 -0.4647  0.3427  0.0214
 8160TIP3   OH245970   5.114   5.984  16.175  0.0582  0.3876  0.0865
 8160TIP3    H145971   5.028   5.942  16.166 -0.0988  0.6832  0.2072
 8160TIP3    H245972   5.100   6.073  16.145  0.0836  0.7267  1.0754
 8161TIP3   OH245973   4.910   4.179  11.918  0.0136 -0.3457 -0.0640
 8161TIP3    H145974   4.829   4.213  11.879 -1.0962 -0.1801  2.3142
 8161TIP3    H245975   4.888   4.091  11.947  0.7031 -0.3417  0.4847
 8162TIP3   OH245976   1.184   4.470   4.459 -0.2995 -0.0465 -0.2577
 8162TIP3    H145977   1.231   4.454   4.541 -1.0543  2.9629  0.8323
 8162TIP3    H245978   1.245   4.442   4.390  1.4094 -0.1029  1.2482
 8163TIP3   OH245979   1.182   0.290   6.098  0.1913  0.0714  0.4266
 8163TIP3    H145980   1.235   0.240   6.037 -1.2901  0.3037 -1.1018
 8163TIP3    H245981   1.176   0.377   6.059 -2.3644 -0.2988 -0.1345
 8164TIP3   OH245982   3.531   3.115   5.583  0.3448 -0.8350  0.5602
 8164TIP3    H145983   3.570   3.030   5.564 -2.5306 -1.7832 -1.3202
 8164TIP3    H245984   3.443   3.095   5.616 -0.1331  1.3792  0.7461
 8165TIP3   OH245985   3.584   0.499   3.421  0.2878 -0.5487 -0.2257
 8165TIP3    H145986   3.555   0.582   3.459  0.6522 -0.5374  0.0314
 8165TIP3    H245987   3.519   0.435   3.450 -0.9240 -0.0555 -1.8004
 8166TIP3   OH245988   2.001   5.849  17.269  0.4046 -0.0022 -0.1269
 8166TIP3    H145989   2.004   5.848  17.174 -1.0796  1.4975 -0.2095
 8166TIP3    H245990   1.931   5.788  17.291  0.5144 -0.0870 -0.0160
 8167TIP3   OH245991   3.651   5.559  12.903 -1.0875  0.1618  0.1165
 8167TIP3    H145992   3.707   5.622  12.858 -2.0018  0.2500 -0.9322
 8167TIP3    H245993   3.612   5.508  12.833 -2.1527 -0.0343  0.8393
 8168TIP3   OH245994   2.347   4.571  10.327  0.8271 -0.3255  0.1978
 8168TIP3    H145995   2.358   4.555  10.421  1.5865  0.7559  0.3090
 8168TIP3    H245996   2.359   4.485  10.286 -1.5021 -1.1825  1.2223
 8169TIP3   OH245997   0.328   4.628   0.447 -0.7111  0.2625 -0.1237
 8169TIP3    H145998   0.233   4.617   0.439 -0.9961  2.1487  0.5995
 8169TIP3    H245999   0.345   4.634   0.541 -0.0311  1.2824 -0.3037
 8170TIP3   OH246000   1.027   0.230  14.848  0.0428  0.3983  0.0340
 8170TIP3    H146001   1.053   0.272  14.765  0.3630 -2.1576 -1.1992
 8170TIP3    H246002   0.932   0.242  14.852  0.0367  0.6209 -0.6670
 8171TIP3   OH246003   4.775   4.755   1.750 -0.2031  0.1637  0.2838
 8171TIP3    H146004   4.858   4.712   1.728 -0.6178 -1.0424  0.9965
 8171TIP3    H246005   4.727   4.758   1.667  0.0076 -0.3589  0.1421
 8172TIP3   OH246006   4.666   2.407  17.117 -0.2146 -0.0901 -0.6043
 8172TIP3    H146007   4.759   2.428  17.116 -0.3579  0.5296 -0.6366
 8172TIP3    H246008   4.632   2.445  17.036 -0.8737  1.3917  0.3513
 8173TIP3   OH246009   2.472   2.662   2.836 -0.1469 -0.2506  0.1352
 8173TIP3    H146010   2.520   2.589   2.797 -0.6189 -0.3959 -0.1739
 8173TIP3    H246011   2.411   2.621   2.898  0.0941 -0.0702  0.4960
 8174TIP3   OH246012   2.899   4.900  16.561  0.0592 -0.6252 -1.0835
 8174TIP3    H146013   2.847   4.930  16.636  0.8607 -0.1267 -0.7188
 8174TIP3    H246014   2.849   4.926  16.484  0.1312  0.5156 -0.7517
 8175TIP3   OH246015   0.326   6.369   2.078  0.3673  0.3168  0.2094
 8175TIP3    H146016   0.287   6.454   2.101  2.4709  1.0066  1.3540
 8175TIP3    H246017   0.378   6.345   2.155  0.7112 -1.4715 -0.5600
 8176TIP3   OH246018   2.981   3.064   0.400  0.2454 -0.3271  0.2074
 8176TIP3    H146019   2.901   3.116   0.410 -0.3214 -1.0967 -0.2535
 8176TIP3    H246020   3.049   3.116   0.443 -0.9823 -0.8432  2.9483
 8177TIP3   OH246021   4.019   4.752   0.733  0.1188 -0.2003 -0.0081
 8177TIP3    H146022   4.073   4.674   0.745 -1.0168 -0.7890  1.4133
 8177TIP3    H246023   4.079   4.825   0.749  0.5782 -0.8428  1.2767
 8178TIP3   OH246024   4.193   1.497   0.263  0.5306 -0.0316 -0.3149
 8178TIP3    H146025   4.268   1.440   0.279  0.8740  0.3815 -0.4379
 8178TIP3    H246026   4.137   1.448   0.203 -0.7872 -1.6072  2.1405
 8179TIP3   OH246027   5.431   5.363   0.780 -0.1872 -0.0203  0.0095
 8179TIP3    H146028   5.381   5.310   0.717  0.3770  0.6614 -1.0312
 8179TIP3    H246029   5.518   5.324   0.779 -0.3175 -0.3415  0.7854
 8180TIP3   OH246030   4.989   2.433  16.586 -0.4473 -0.0257 -0.1307
 8180TIP3    H146031   4.952   2.521  16.596 -0.7987 -0.3209  1.3319
 8180TIP3    H246032   5.075   2.439  16.628  0.2773  0.0770 -1.6010
 8181TIP3   OH246033   6.693   5.969  15.150  0.0044  0.2524  0.8874
 8181TIP3    H146034   6.766   5.929  15.104  1.8190  0.2270  3.6371
 8181TIP3    H246035   6.734   6.037  15.204 -2.1226  0.8470  1.7941
 8182TIP3   OH246036   5.353   2.532   2.613  0.5426  0.0285  0.2199
 8182TIP3    H146037   5.389   2.510   2.699 -0.0631 -1.0550  0.2214
 8182TIP3    H246038   5.357   2.627   2.608  2.1114  0.0052  0.7650
 8183TIP3   OH246039   3.414   3.086  14.133  0.1008 -0.3143 -0.5215
 8183TIP3    H146040   3.407   3.076  14.038  1.3471  1.4585 -0.8204
 8183TIP3    H246041   3.401   3.180  14.148 -0.8597 -0.7066  1.1338
 8184TIP3   OH246042   3.515   4.797   4.497  0.1066 -0.4747  0.3013
 8184TIP3    H146043   3.537   4.871   4.441  2.5616 -1.5419 -0.1973
 8184TIP3    H246044   3.470   4.735   4.439  1.4940 -1.0166 -0.2236
 8185TIP3   OH246045   5.197   1.424  10.912  0.0944 -0.4434 -0.4309
 8185TIP3    H146046   5.235   1.360  10.851 -1.1241 -0.6852 -0.9755
 8185TIP3    H246047   5.186   1.375  10.994 -0.1607 -0.7275 -0.6316
 8186TIP3   OH246048   5.507   1.510   4.186  0.4379 -0.7756 -0.0463
 8186TIP3    H146049   5.458   1.566   4.127  0.3772 -1.3910 -0.5839
 8186TIP3    H246050   5.527   1.432   4.135 -0.3493 -1.6827  0.9950
 8187TIP3   OH246051   6.037   5.337   5.655 -0.1875 -0.6801 -0.6554
 8187TIP3    H146052   5.949   5.318   5.687  0.4176  0.0037  1.5011
 8187TIP3    H246053   6.095   5.306   5.725  1.2087  0.4658 -1.2789
 8188TIP3   OH246054   1.690   4.481  15.052  0.1102 -0.2147 -0.3227
 8188TIP3    H146055   1.603   4.508  15.023 -0.2008  0.8781  1.5085
 8188TIP3    H246056   1.741   4.562  15.057  0.3967 -0.4668  1.2561
 8189TIP3   OH246057   4.405   4.699  16.899  0.1916  0.0661  0.2187
 8189TIP3    H146058   4.318   4.668  16.875 -0.5580  1.4493  1.0814
 8189TIP3    H246059   4.420   4.662  16.986  1.3176 -1.8260 -0.7667
 8190TIP3   OH246060   2.260   3.586  15.927 -0.3223  0.1270  0.0300
 8190TIP3    H146061   2.255   3.681  15.930  1.8921  0.2844 -0.2351
 8190TIP3    H246062   2.182   3.559  15.878 -0.0233  1.9294 -1.4930
 8191TIP3   OH246063   0.701   4.147   3.248 -0.3423  0.8131 -0.3141
 8191TIP3    H146064   0.668   4.087   3.180  0.2955  1.0134 -0.8073
 8191TIP3    H246065   0.788   4.173   3.217 -0.3562  1.5049  0.2090
 8192TIP3   OH246066   6.183   3.196   6.623  0.1711  0.2390  0.0005
 8192TIP3    H146067   6.269   3.236   6.606 -0.2184  0.6884 -0.9393
 8192TIP3    H246068   6.121   3.266   6.605 -0.4086 -0.1408  0.5214
 8193TIP3   OH246069   5.279   0.531  15.021 -0.2349  0.0174 -0.9340
 8193TIP3    H146070   5.348   0.594  14.999 -0.0942 -0.0545 -0.7003
 8193TIP3    H246071   5.304   0.451  14.974  0.4744 -0.3695  0.0919
 8194TIP3   OH246072   3.746   2.643   1.674 -0.2885 -0.0455 -0.5371
 8194TIP3    H146073   3.674   2.583   1.693  1.3188 -1.4821  1.2346
 8194TIP3    H246074   3.801   2.594   1.611  2.6986 -1.9059  3.2607
 8195TIP3   OH246075   2.823   6.400  13.638  0.2569 -0.2849 -0.2236
 8195TIP3    H146076   2.781   6.350  13.568  0.4831 -0.6577 -0.0932
 8195TIP3    H246077   2.825   6.340  13.713  1.1105 -0.3123 -0.2586
 8196TIP3   OH246078   6.657   4.252  12.392  0.1558 -0.5932  0.3277
 8196TIP3    H146079   6.723   4.321  12.386 -1.3042  0.8313  0.2638
 8196TIP3    H246080   6.707   4.171  12.403  1.9085  0.4171 -0.0879
 8197TIP3   OH246081   0.297   5.911  16.752  0.5370  0.0864 -0.1065
 8197TIP3    H146082   0.273   5.928  16.661 -0.1600  1.3138  0.2920
 8197TIP3    H246083   0.354   5.984  16.776  1.3619 -0.6556  0.1997
 8198TIP3   OH246084   6.260   1.462   5.060 -0.3061  0.3352 -0.6797
 8198TIP3    H146085   6.268   1.414   4.978 -2.5641  1.0680 -1.3754
 8198TIP3    H246086   6.340   1.514   5.065 -0.5111  0.9235 -2.8728
 8199TIP3   OH246087   5.357   5.833  13.958 -0.3241 -0.1505  0.0957
 8199TIP3    H146088   5.408   5.774  14.012  0.3030  0.0804 -0.2437
 8199TIP3    H246089   5.394   5.823  13.870 -1.9272 -1.2170 -0.4807
 8200TIP3   OH246090   5.374   2.636   1.781 -0.1172  0.4384 -0.4472
 8200TIP3    H146091   5.373   2.563   1.719 -0.1775 -0.0701  0.1531
 8200TIP3    H246092   5.300   2.620   1.839  0.3905  0.5152  0.2235
 8201TIP3   OH246093   5.412   1.347   1.691  0.6930 -0.1548  0.0375
 8201TIP3    H146094   5.417   1.442   1.690  3.8565 -0.2566  0.5324
 8201TIP3    H246095   5.368   1.326   1.774  0.4009  0.8507  0.1413
 8202TIP3   OH246096   0.682   2.911   6.378 -0.4865  0.6046  0.0966
 8202TIP3    H146097   0.607   2.895   6.435 -1.4091 -0.3951 -1.3619
 8202TIP3    H246098   0.756   2.872   6.425 -0.9223  1.3478  1.4193
 8203TIP3   OH246099   6.547   4.769  10.926  0.6096  0.0286  0.2553
 8203TIP3    H146100   6.467   4.782  10.977  1.3965  0.8577  1.3127
 8203TIP3    H246101   6.611   4.737  10.989  1.1130 -0.6366 -0.5836
 8204TIP3   OH246102   0.410   1.531  13.241 -0.2033  0.5934  1.0310
 8204TIP3    H146103   0.449   1.582  13.312 -0.9373  1.0558  1.1061
 8204TIP3    H246104   0.323   1.570  13.228 -0.2793  0.1713  0.2385
 8205TIP3   OH246105   6.397   4.582  11.170  0.2025 -0.3419 -0.2814
 8205TIP3    H146106   6.397   4.599  11.264 -0.5933  0.7309 -0.4589
 8205TIP3    H246107   6.305   4.590  11.144  0.6028  0.8587 -1.4000
 8206TIP3   OH246108   3.907   4.398  14.428  0.1941  0.2025  0.1756
 8206TIP3    H146109   3.957   4.368  14.351 -0.1766  0.9882 -0.3771
 8206TIP3    H246110   3.898   4.492  14.416 -0.3521  0.2512  0.9065
 8207TIP3   OH246111   1.562   2.693  15.857  0.4630 -0.0425  0.0168
 8207TIP3    H146112   1.489   2.738  15.901 -1.0146 -3.0823  0.7690
 8207TIP3    H246113   1.635   2.756  15.863 -0.6438  1.0442  3.7909
 8208TIP3   OH246114   6.820   5.416  14.611  0.1051  0.3852 -0.0281
 8208TIP3    H146115   6.833   5.450  14.523  1.4548 -2.2504 -0.9125
 8208TIP3    H246116   6.861   5.480  14.668  2.2839  0.4497 -1.6090
 8209TIP3   OH246117   0.833   4.164   0.058 -0.4469  0.1747  0.6283
 8209TIP3    H146118   0.885   4.146   0.136  0.8973  0.9611 -0.0669
 8209TIP3    H246119   0.892   4.212   0.000 -1.6527  0.2450 -0.5766
 8210TIP3   OH246120   2.932   1.994   5.160  0.2713  0.0279 -0.4181
 8210TIP3    H146121   2.890   2.069   5.119  2.3118  0.9019 -0.9541
 8210TIP3    H246122   3.001   1.969   5.100  0.4384 -1.4832  0.3773
 8211TIP3   OH246123   1.062   3.653   2.969  0.2613  0.2393  0.0165
 8211TIP3    H146124   1.052   3.748   2.978 -1.6390 -0.0980  1.9682
 8211TIP3    H246125   1.139   3.631   3.022  0.0655  0.5675  0.4386
 8212TIP3   OH246126   1.936   3.979   4.613 -0.0198  0.0334  0.4242
 8212TIP3    H146127   1.903   3.893   4.637  0.7696 -0.0393  1.2803
 8212TIP3    H246128   1.954   3.973   4.519  3.5034 -1.9298  1.1243
 8213TIP3   OH246129   4.613   2.517   0.765  0.1758 -0.5694  0.1009
 8213TIP3    H146130   4.639   2.428   0.742  0.3376 -0.5478  0.1964
 8213TIP3    H246131   4.673   2.541   0.837 -2.3773 -1.8236  2.7639
 8214TIP3   OH246132   6.168   6.442  16.703  0.0903  0.2592  0.3648
 8214TIP3    H146133   6.192   6.378  16.636  1.8697  0.4833  0.7586
 8214TIP3    H246134   6.072   6.442  16.703  0.0567 -0.2902 -1.6481
 8215TIP3   OH246135   3.177   1.791  10.734  0.0779 -0.1894 -0.2246
 8215TIP3    H146136   3.261   1.781  10.778  0.9861 -1.2901 -2.1483
 8215TIP3    H246137   3.141   1.873  10.769  1.1836 -0.5700  1.8274
 8216TIP3   OH246138   6.136   3.424  13.233 -0.0566  0.3489  0.1340
 8216TIP3    H146139   6.194   3.407  13.158  0.0137 -2.6079  0.8106
 8216TIP3    H246140   6.182   3.492  13.283  1.8234 -0.4461 -0.4571
 8217TIP3   OH246141   5.801   4.130  13.119  0.4762 -0.3828  0.2573
 8217TIP3    H146142   5.726   4.168  13.074  0.5910 -1.5483 -0.9290
 8217TIP3    H246143   5.791   4.158  13.210  0.5883  2.5427 -0.5844
 8218TIP3   OH246144   1.724   3.801  14.461 -0.4902  0.1566 -0.1255
 8218TIP3    H146145   1.751   3.882  14.504 -1.6126 -0.1406  1.1778
 8218TIP3    H246146   1.784   3.791  14.387  1.1602  0.9461  1.0907
 8219TIP3   OH246147   2.010   5.131   1.127  0.0378 -0.0471 -0.1609
 8219TIP3    H146148   1.988   5.186   1.202  0.5920  0.3841 -0.3145
 8219TIP3    H246149   1.944   5.154   1.061  0.3884  0.5855 -0.2965
 8220TIP3   OH246150   3.485   5.199  11.692  0.2464  0.2769 -0.2942
 8220TIP3    H146151   3.478   5.107  11.664  2.8985 -0.6926  2.0686
 8220TIP3    H246152   3.555   5.235  11.637 -0.4390  0.7671 -0.8549
 8221TIP3   OH246153   1.637   6.494   2.860  0.2598  0.3333  0.2949
 8221TIP3    H146154   1.566   6.440   2.893 -0.4126  1.5890  0.9097
 8221TIP3    H246155   1.709   6.432   2.845 -0.9232 -0.9267 -0.2726
 8222TIP3   OH246156   0.975   0.010  14.239  0.4175 -0.1756  0.1814
 8222TIP3    H146157   1.031  -0.026  14.170  1.6525  2.0272  0.0016
 8222TIP3    H246158   0.887  -0.022  14.218  1.2194 -1.7474 -0.8611
 8223TIP3   OH246159   1.005   2.391   5.559  0.1775  0.0360 -0.5296
 8223TIP3    H146160   0.917   2.422   5.580 -0.3018 -1.2117 -0.6669
 8223TIP3    H246161   1.018   2.316   5.616  1.3178  0.4712 -0.2149
 8224TIP3   OH246162   0.557   1.533  11.502 -0.6612  0.1441  0.3868
 8224TIP3    H146163   0.529   1.616  11.463 -3.2898 -0.9614 -0.1144
 8224TIP3    H246164   0.593   1.558  11.588 -1.7210  1.7728  0.3786
 8225TIP3   OH246165   1.400   5.903   0.016 -0.1916 -0.4107  0.1758
 8225TIP3    H146166   1.359   5.965   0.077 -2.0140 -1.4720  0.0669
 8225TIP3    H246167   1.444   5.839   0.072 -1.4202 -1.0881  0.3751
 8226TIP3   OH246168   2.074   1.930   5.278  0.0331  0.4824  0.5721
 8226TIP3    H146169   2.017   2.005   5.259  0.3398  1.1464  2.1697
 8226TIP3    H246170   2.153   1.947   5.227  0.2545  1.4651  1.2186
 8227TIP3   OH246171   2.673   1.747  14.485  0.5039  0.5011  0.5101
 8227TIP3    H146172   2.622   1.667  14.480  1.2306  0.1780 -2.8812
 8227TIP3    H246173   2.640   1.792  14.562 -1.6218 -1.8914  1.0426
 8228TIP3   OH246174   6.119   6.439  13.379 -0.4372  0.6039 -0.8438
 8228TIP3    H146175   6.142   6.461  13.289 -0.6746  1.0575 -0.7939
 8228TIP3    H246176   6.199   6.399  13.414 -0.4750  0.0538 -1.3719
 8229TIP3   OH246177   0.227   1.885   0.429 -0.4297 -0.6853  0.4746
 8229TIP3    H146178   0.220   1.959   0.490  0.7155 -0.9520  0.9380
 8229TIP3    H246179   0.284   1.916   0.360  1.0812 -1.5444  1.3085
 8230TIP3   OH246180   3.543   5.785  11.417 -0.2237  0.1884 -0.4434
 8230TIP3    H146181   3.507   5.872  11.434  1.1695  0.4116  1.5187
 8230TIP3    H246182   3.531   5.737  11.500  1.6691 -0.5308 -0.5550
 8231TIP3   OH246183   4.714   3.890   0.281  0.4957 -0.8689 -0.1544
 8231TIP3    H146184   4.800   3.928   0.266  0.5261 -1.9726 -3.0465
 8231TIP3    H246185   4.727   3.795   0.275 -0.9056 -1.0477 -0.6052
 8232TIP3   OH246186   6.790   3.694  15.130  0.2313 -0.2904  0.3634
 8232TIP3    H146187   6.864   3.698  15.070  0.2943 -1.8324  0.3150
 8232TIP3    H246188   6.774   3.785  15.155  3.1264 -0.0535  1.5630
 8233TIP3   OH246189   1.810   1.661   5.515  0.4878  0.8520  0.1589
 8233TIP3    H146190   1.826   1.650   5.608  1.6088  0.6017 -0.0565
 8233TIP3    H246191   1.735   1.720   5.510 -2.7069 -2.8658  1.3011
 8234TIP3   OH246192   2.144   0.145  13.165  0.0567  0.4768  0.6117
 8234TIP3    H146193   2.172   0.111  13.249 -3.0932  1.1662  2.0184
 8234TIP3    H246194   2.185   0.231  13.158  0.0777  0.5512  1.6178
 8235TIP3   OH246195   6.467   6.596  16.935 -0.1974 -0.4744 -0.3532
 8235TIP3    H146196   6.541   6.589  16.994 -2.4412 -1.7249  2.4563
 8235TIP3    H246197   6.427   6.681  16.955 -0.4744 -0.5229 -0.6829
 8236TIP3   OH246198   2.029   0.944   1.154 -0.2674  0.3781  0.2692
 8236TIP3    H146199   1.944   0.915   1.119  0.7712 -0.4103 -1.6661
 8236TIP3    H246200   2.006   1.002   1.227 -2.5679  3.1870 -2.5605
 8237TIP3   OH246201   3.722   4.094   1.669 -0.3827  0.2223  0.1253
 8237TIP3    H146202   3.641   4.145   1.671 -0.0976  0.6463  2.2403
 8237TIP3    H246203   3.787   4.154   1.632 -0.4571  0.7721  0.8805
 8238TIP3   OH246204   1.147   1.274  12.990  0.3059  0.0521 -0.0335
 8238TIP3    H146205   1.102   1.353  12.963  1.0952  0.4822 -0.1184
 8238TIP3    H246206   1.225   1.271  12.935  1.5862  0.5714  1.6891
 8239TIP3   OH246207   0.785   1.813   6.048  0.1306  0.1484  0.1544
 8239TIP3    H146208   0.833   1.796   5.968  2.3253  1.3008  1.1658
 8239TIP3    H246209   0.852   1.817   6.116 -1.4014  1.5831  1.6500
 8240TIP3   OH246210   2.211   1.587   4.167 -0.3509  0.3671 -0.3456
 8240TIP3    H146211   2.169   1.672   4.178  0.2133  0.5963  0.0588
 8240TIP3    H246212   2.300   1.608   4.140 -0.1159 -0.0852  0.0768
 8241TIP3   OH246213   4.178   3.574   4.922 -0.0425  0.4988  0.2155
 8241TIP3    H146214   4.250   3.553   4.862 -0.2434 -0.5076  0.3323
 8241TIP3    H246215   4.122   3.633   4.872 -0.9067 -1.3764 -1.0556
 8242TIP3   OH246216   3.618   4.566  14.346  0.0607  0.0112 -0.5474
 8242TIP3    H146217   3.607   4.476  14.379 -1.5710  0.6447  0.7053
 8242TIP3    H246218   3.575   4.564  14.260 -0.8096 -0.1885 -0.1210
 8243TIP3   OH246219   1.670   2.851  13.766  0.0749  0.0334 -0.5069
 8243TIP3    H146220   1.726   2.804  13.827  1.0890  2.1270  0.2000
 8243TIP3    H246221   1.727   2.874  13.693 -0.5510 -0.2739 -1.1091
 8244TIP3   OH246222   1.487   0.669   6.549 -0.2779  0.1472  0.5545
 8244TIP3    H146223   1.454   0.754   6.579 -1.0131 -0.0933  0.4469
 8244TIP3    H246224   1.436   0.650   6.471 -0.8021 -0.8400  1.1287
 8245TIP3   OH246225   4.690   4.438   2.958 -0.2422 -0.0973 -0.0344
 8245TIP3    H146226   4.606   4.465   2.994  0.0204 -0.5633  0.9355
 8245TIP3    H246227   4.679   4.344   2.940  0.1358 -0.2091  0.3023
 8246TIP3   OH246228   3.846   5.747  12.835 -0.4835 -0.2297 -0.1672
 8246TIP3    H146229   3.832   5.752  12.930 -1.8764  0.6329 -0.4001
 8246TIP3    H246230   3.939   5.728  12.826 -0.3087 -0.2221  1.3709
 8247TIP3   OH246231   1.846   2.098  15.537 -0.3638  0.4570 -0.4638
 8247TIP3    H146232   1.766   2.060  15.574 -0.2082  0.0666 -0.5240
 8247TIP3    H246233   1.899   2.022  15.512 -0.2157  0.7163 -0.9396
 8248TIP3   OH246234   1.126   0.262   5.725 -0.4982 -0.4046 -0.3420
 8248TIP3    H146235   1.071   0.335   5.752  2.2438  1.9767 -0.9180
 8248TIP3    H246236   1.190   0.301   5.665  0.1982 -3.5395 -1.7334
 8249TIP3   OH246237   3.982   5.564   4.121 -0.3358  0.2629 -0.7064
 8249TIP3    H146238   4.054   5.611   4.079 -0.1983  0.1954 -0.5477
 8249TIP3    H246239   4.000   5.472   4.105  0.5172  0.1518  0.7468
 8250TIP3   OH246240   0.375   0.486  16.800 -0.4168  0.2746  0.3601
 8250TIP3    H146241   0.388   0.396  16.832 -0.0892  0.1090 -0.2306
 8250TIP3    H246242   0.460   0.528  16.812 -0.7077  0.6551  1.1025
 8251TIP3   OH246243   1.583   0.384  13.153 -0.6611  0.0755  0.0636
 8251TIP3    H146244   1.603   0.316  13.218 -0.9253  0.1510  0.2247
 8251TIP3    H246245   1.612   0.465  13.194  0.8356 -0.0858 -0.6411
 8252TIP3   OH246246   0.951   1.726   3.757 -0.4105 -0.2379 -0.0642
 8252TIP3    H146247   0.953   1.766   3.844 -0.8678 -0.3068 -0.0248
 8252TIP3    H246248   0.970   1.799   3.697  2.2497 -0.6096  0.2373
 8253TIP3   OH246249   2.175   0.908   0.627 -0.3165 -0.4604 -0.1891
 8253TIP3    H146250   2.255   0.960   0.640 -1.2183  0.5201  1.6524
 8253TIP3    H246251   2.205   0.830   0.580  1.8232 -0.4020  1.0097
 8254TIP3   OH246252   4.368   2.627   1.098 -0.1606  0.0559  0.1822
 8254TIP3    H146253   4.280   2.647   1.129 -1.0658  0.1460 -2.2627
 8254TIP3    H246254   4.411   2.712   1.089  0.6597 -0.0706  2.6287
 8255TIP3   OH246255   1.173   0.252   2.052  0.2582  0.2556  0.0138
 8255TIP3    H146256   1.139   0.249   2.142  3.6574  0.5427  1.3777
 8255TIP3    H246257   1.207   0.340   2.042 -1.5731  0.7602 -2.1964
 8256TIP3   OH246258   0.193   5.068   1.434 -0.5067  0.7564 -0.4020
 8256TIP3    H146259   0.127   5.063   1.503 -0.9826  2.8364 -0.6605
 8256TIP3    H246260   0.231   5.156   1.444  2.2479 -0.3943 -0.2428
 8257TIP3   OH246261   0.686   5.957   1.202 -0.4128 -0.1227 -0.1379
 8257TIP3    H146262   0.780   5.938   1.198 -0.3140  0.6016 -1.3205
 8257TIP3    H246263   0.653   5.936   1.115 -1.2586  0.0651  0.1331
 8258TIP3   OH246264   2.546   0.322   3.122  0.0729 -0.2739 -0.4973
 8258TIP3    H146265   2.539   0.414   3.147 -1.1081 -0.3257 -0.6143
 8258TIP3    H246266   2.623   0.290   3.169  0.3945  0.7301 -0.3351
 8259TIP3   OH246267   6.035   1.677  12.911 -0.4156 -0.6271  0.3796
 8259TIP3    H146268   6.095   1.608  12.883 -0.9384 -1.2950  0.8716
 8259TIP3    H246269   5.988   1.702  12.832 -1.2450 -1.8666  0.4625
 8260TIP3   OH246270   6.670   4.300   3.119  0.4063 -0.1054 -0.6874
 8260TIP3    H146271   6.726   4.289   3.042  1.5288 -0.0859  0.1270
 8260TIP3    H246272   6.622   4.217   3.125 -0.1710  0.1374 -1.7842
 8261TIP3   OH246273   5.733   3.316  11.710  0.0575 -0.0728 -0.3081
 8261TIP3    H146274   5.722   3.365  11.792  0.1733 -1.1175  0.3392
 8261TIP3    H246275   5.700   3.375  11.642  0.1811  0.8982  0.4650
 8262TIP3   OH246276   5.732   4.332   5.414  0.1270  0.0412  0.2891
 8262TIP3    H146277   5.734   4.352   5.508 -0.2295  0.2294  0.2580
 8262TIP3    H246278   5.781   4.250   5.406  0.4807  0.2226  0.5877
 8263TIP3   OH246279   5.293   6.299  15.330  0.2951 -0.1052 -0.3939
 8263TIP3    H146280   5.250   6.370  15.377 -0.0866  0.8718 -2.1743
 8263TIP3    H246281   5.319   6.237  15.398 -1.5268  0.5772  0.9618
 8264TIP3   OH246282   3.610   3.918  12.807 -0.0241 -0.5022 -0.8434
 8264TIP3    H146283   3.626   3.932  12.900  1.5504 -0.6988 -1.0706
 8264TIP3    H246284   3.646   3.995  12.764  0.3382 -0.9558 -1.3689
 8265TIP3   OH246285   1.928   4.430   1.094 -0.3148  0.1445 -0.4133
 8265TIP3    H146286   1.933   4.376   1.014  0.4949 -1.3532  0.6103
 8265TIP3    H246287   1.856   4.392   1.144 -0.5709  0.8333 -0.2586
 8266TIP3   OH246288   1.090   5.398   5.526  0.0271  0.2411  0.0379
 8266TIP3    H146289   1.185   5.399   5.533  0.0342 -3.3256  1.1004
 8266TIP3    H246290   1.059   5.386   5.616 -1.3382 -0.7629 -0.5464
 8267TIP3   OH246291   1.758   6.633  12.014  0.6199  0.4113 -0.3760
 8267TIP3    H146292   1.709   6.708  12.048  0.0815 -1.3711  2.9958
 8267TIP3    H246293   1.843   6.638  12.057  0.8204 -0.5211 -0.6428
 8268TIP3   OH246294   4.233   6.106  17.265  0.1555 -0.2711  0.0205
 8268TIP3    H146295   4.210   6.153  17.185  0.8809  1.7051  0.9432
 8268TIP3    H246296   4.158   6.118  17.322  0.6406  0.4189  0.5273
 8269TIP3   OH246297   3.975   0.031  16.465 -0.3425  0.3333  0.0166
 8269TIP3    H146298   3.912  -0.037  16.441  1.3609 -0.9477 -0.9571
 8269TIP3    H246299   3.933   0.078  16.537 -2.1900 -0.7910 -0.2838
 8270TIP3   OH246300   4.248   2.832  14.139 -0.3481  0.5375  0.2038
 8270TIP3    H146301   4.190   2.764  14.104  0.6244 -0.3210  0.2167
 8270TIP3    H246302   4.330   2.820  14.091  0.3755  0.6010  1.3905
 8271TIP3   OH246303   1.600   5.789  12.273 -0.1550  0.6643  0.0288
 8271TIP3    H146304   1.674   5.796  12.213  0.9851  0.1074  1.3559
 8271TIP3    H246305   1.639   5.788  12.360 -1.6305 -1.0568  0.6961
 8272TIP3   OH246306   3.760   4.028  14.091 -0.7227  0.3412 -0.1348
 8272TIP3    H146307   3.752   3.934  14.073 -1.5061  0.6526 -1.4534
 8272TIP3    H246308   3.852   4.048  14.071 -0.6188 -0.0814 -0.0884
 8273TIP3   OH246309   4.562   5.628  12.184 -0.0043 -0.0851 -0.1162
 8273TIP3    H146310   4.651   5.660  12.170  0.4250 -0.9958  0.5057
 8273TIP3    H246311   4.546   5.643  12.278 -0.6806  0.5074 -0.3228
 8274TIP3   OH246312   0.528   4.291   0.999  0.9732 -0.0906 -0.6865
 8274TIP3    H146313   0.492   4.380   1.003  3.1024  0.7720  0.5564
 8274TIP3    H246314   0.491   4.254   0.920 -3.2182  0.4267  0.8925
 8275TIP3   OH246315   2.144   5.772   1.931 -0.4391  0.1135  0.0436
 8275TIP3    H146316   2.128   5.865   1.951  0.1006  0.2529 -0.1599
 8275TIP3    H246317   2.154   5.730   2.016  2.2985  0.7833  0.0991
 8276TIP3   OH246318   3.992   4.891   3.388  0.0976  0.5034  0.1499
 8276TIP3    H146319   3.955   4.975   3.412  2.4908  1.0372  2.1372
 8276TIP3    H246320   3.997   4.893   3.292  0.5103  2.7728  0.2056
 8277TIP3   OH246321   6.303   5.522  15.216 -0.2538 -0.1386  0.5527
 8277TIP3    H146322   6.325   5.526  15.309  1.9749 -0.6795  0.0706
 8277TIP3    H246323   6.349   5.596  15.176 -1.4544  0.2898 -0.0941
 8278TIP3   OH246324   5.368   1.499  15.253 -0.2718  0.0327  0.2003
 8278TIP3    H146325   5.400   1.503  15.163 -2.2744  3.0969 -0.4390
 8278TIP3    H246326   5.291   1.441  15.249 -1.4224  1.5785 -0.4397
 8279TIP3   OH246327   1.262   3.610  11.244 -0.0775  0.6552  0.5165
 8279TIP3    H146328   1.340   3.664  11.256 -0.8223  1.5649  1.4720
 8279TIP3    H246329   1.266   3.580  11.153  1.9135 -0.1824  0.8759
 8280TIP3   OH246330   6.389   5.506  12.072  0.5673  0.6196 -0.3150
 8280TIP3    H146331   6.442   5.449  12.127  0.8849  0.6854 -0.5539
 8280TIP3    H246332   6.310   5.523  12.125 -0.1494 -1.1132 -0.7886
 8281TIP3   OH246333   2.757   6.153  15.548 -0.1920  0.1308 -0.0747
 8281TIP3    H146334   2.793   6.143  15.459  1.1054 -0.0389  0.4492
 8281TIP3    H246335   2.672   6.111  15.544 -0.3291  0.4858 -1.3538
 8282TIP3   OH246336   3.781   5.331  14.066  0.1754 -0.0290 -0.5544
 8282TIP3    H146337   3.782   5.393  14.139 -1.3214 -1.7987  1.0225
 8282TIP3    H246338   3.777   5.386  13.988 -1.7841  1.8574  0.8235
 8283TIP3   OH246339   4.585   1.131  11.340 -0.2638 -0.6338 -0.2944
 8283TIP3    H146340   4.596   1.206  11.281  0.7732  0.0536  0.7538
 8283TIP3    H246341   4.667   1.084  11.334 -1.0621 -1.9390 -1.2572
 8284TIP3   OH246342   5.483   3.239  11.350 -0.0638  0.2112 -0.0943
 8284TIP3    H146343   5.407   3.295  11.361 -2.0720 -2.4202 -0.2593
 8284TIP3    H246344   5.494   3.195  11.434  0.7869 -0.0194 -0.3168
 8285TIP3   OH246345   5.811   4.174   0.184  0.0124 -0.2774 -0.0374
 8285TIP3    H146346   5.871   4.182   0.258 -0.9639  0.8112  0.6644
 8285TIP3    H246347   5.777   4.263   0.172  0.7285 -0.2762 -2.2916
 8286TIP3   OH246348   4.113   5.136   5.299  0.1388 -0.6967 -0.1270
 8286TIP3    H146349   4.206   5.140   5.277 -0.0418  1.9115 -0.5998
 8286TIP3    H246350   4.110   5.135   5.394  0.6598 -1.2904 -0.1147
 8287TIP3   OH246351   2.194   0.451  11.321 -0.9252 -0.1368 -0.0565
 8287TIP3    H146352   2.171   0.503  11.244  0.2849  0.5557  0.0483
 8287TIP3    H246353   2.264   0.393  11.291 -0.3351  0.2488  0.5646
 8288TIP3   OH246354   4.895   3.191  11.995 -0.1519 -0.3161  0.2591
 8288TIP3    H146355   4.947   3.252  11.943 -1.1266 -0.0081 -0.3726
 8288TIP3    H246356   4.828   3.158  11.935 -0.8549 -0.5001  1.1171
 8289TIP3   OH246357   4.469   0.548   0.216  0.4597 -0.1254 -0.0757
 8289TIP3    H146358   4.426   0.557   0.131  2.6897 -3.2752 -1.6141
 8289TIP3    H246359   4.562   0.535   0.195  0.8328 -2.4637  2.7541
 8290TIP3   OH246360   6.376   1.053   5.091  0.4644  0.7087  0.6406
 8290TIP3    H146361   6.313   1.110   5.048 -2.2164 -2.1687  0.5891
 8290TIP3    H246362   6.337   1.033   5.176  1.5837 -0.6363  0.8552
 8291TIP3   OH246363   5.533   4.485  12.072 -0.3284 -0.4179  0.4601
 8291TIP3    H146364   5.456   4.526  12.033 -0.1031 -2.0058 -1.7543
 8291TIP3    H246365   5.594   4.557  12.087 -2.2293  0.8744  2.2842
 8292TIP3   OH246366   6.756   6.148   3.336 -0.0688  1.1711 -0.3548
 8292TIP3    H146367   6.820   6.202   3.381 -0.4990  0.2593  1.3950
 8292TIP3    H246368   6.786   6.146   3.245  0.6508  3.2721 -0.1771
 8293TIP3   OH246369   2.389   5.423   0.912 -0.3638  0.0695 -0.3728
 8293TIP3    H146370   2.464   5.483   0.908  0.0178 -0.3932 -0.1845
 8293TIP3    H246371   2.324   5.470   0.965  0.0880  0.1485  0.1144
 8294TIP3   OH246372   2.571   5.375  13.386 -0.1526 -0.2952  0.1710
 8294TIP3    H146373   2.609   5.292  13.358  1.5766 -0.6119  3.3075
 8294TIP3    H246374   2.501   5.350  13.446 -1.4063  0.4824 -0.9304
 8295TIP3   OH246375   4.983   6.785   6.103  0.3335  0.4401 -0.2202
 8295TIP3    H146376   5.078   6.785   6.089  0.2737  2.3428 -0.7054
 8295TIP3    H246377   4.948   6.833   6.028 -1.0574 -0.6372 -0.2677
 8296TIP3   OH246378   5.152   3.981   3.345  0.3694 -0.1914  0.2221
 8296TIP3    H146379   5.175   3.972   3.253 -1.7836  0.7005 -0.4300
 8296TIP3    H246380   5.076   4.040   3.345  0.0602 -0.5527  2.5203
 8297TIP3   OH246381   4.768   6.484   3.628  0.2346 -0.1901 -0.0895
 8297TIP3    H146382   4.777   6.463   3.721  0.7173  1.2828  0.2153
 8297TIP3    H246383   4.836   6.433   3.585  1.5619  0.8953  0.6689
 8298TIP3   OH246384   0.274   2.926   3.682  0.1774 -0.1932 -0.2248
 8298TIP3    H146385   0.252   3.012   3.647 -1.9955 -0.6434 -0.0745
 8298TIP3    H246386   0.216   2.866   3.634  0.4857 -1.3693  0.8483
 8299TIP3   OH246387   4.428   2.715   3.797  0.2680  0.1323  0.0040
 8299TIP3    H146388   4.379   2.690   3.719 -0.4623 -0.7697  0.7302
 8299TIP3    H246389   4.432   2.810   3.793  1.1028  0.0432 -1.6382
 8300TIP3   OH246390   6.166   2.227   3.272  0.2461  0.4111  0.6025
 8300TIP3    H146391   6.164   2.213   3.177  1.5354  2.0731  0.3168
 8300TIP3    H246392   6.206   2.148   3.307  0.4887  0.1231 -0.3122
 8301TIP3   OH246393   5.607   5.192  10.978 -0.1426  0.2791 -0.2324
 8301TIP3    H146394   5.671   5.123  10.996  0.5049  0.6795 -0.9752
 8301TIP3    H246395   5.589   5.231  11.064  1.7942  1.1942 -0.2234
 8302TIP3   OH246396   3.381   4.067   3.535  0.2736 -0.1430 -0.4317
 8302TIP3    H146397   3.438   3.994   3.557  0.3613 -0.5732 -2.0176
 8302TIP3    H246398   3.437   4.129   3.489  0.0938  0.7141  0.4824
 8303TIP3   OH246399   5.813   0.137  17.282 -0.0418  1.0872 -0.1741
 8303TIP3    H146400   5.725   0.159  17.253 -0.6091 -0.0435  0.6524
 8303TIP3    H246401   5.829   0.193  17.358 -0.8611 -0.1834  0.9458
 8304TIP3   OH246402   4.238   3.313   0.117  0.1800 -0.3603 -0.0499
 8304TIP3    H146403   4.214   3.235   0.067 -1.6199  0.6107 -0.7619
 8304TIP3    H246404   4.281   3.370   0.052  1.6648 -0.8231  0.5103
 8305TIP3   OH246405   4.767   0.714  14.881  0.2996 -0.2963  0.2935
 8305TIP3    H146406   4.764   0.618  14.886  1.2627 -0.4025 -0.9218
 8305TIP3    H246407   4.792   0.742  14.969 -0.7240 -1.1168  0.8562
 8306TIP3   OH246408   3.073   5.166  12.234 -0.2774  0.1976 -0.4033
 8306TIP3    H146409   3.013   5.116  12.290  0.2541  0.2420  0.2203
 8306TIP3    H246410   3.019   5.197  12.162 -0.8374 -0.4011 -0.2435
 8307TIP3   OH246411   4.068   0.149  16.197 -0.7672  0.0484 -0.0069
 8307TIP3    H146412   4.053   0.150  16.291  2.1560  2.5410  0.5256
 8307TIP3    H246413   4.148   0.099  16.186  0.9275  2.8021 -0.7257
 8308TIP3   OH246414   1.971   1.915  14.838  0.1189  0.3294  0.1846
 8308TIP3    H146415   1.991   1.822  14.825 -2.9287 -0.3533 -0.0551
 8308TIP3    H246416   2.034   1.961  14.783  0.7218 -1.6508 -0.8282
 8309TIP3   OH246417   5.027   3.098  15.481 -0.2767  0.2200 -0.1267
 8309TIP3    H146418   4.941   3.108  15.439 -0.9617  0.7220  1.3391
 8309TIP3    H246419   5.057   3.187  15.495  1.6450  0.0549 -2.8560
 8310TIP3   OH246420   2.431   1.446  16.315 -0.2425 -0.0328  0.5285
 8310TIP3    H146421   2.481   1.522  16.285 -0.2583 -0.6399 -1.0797
 8310TIP3    H246422   2.354   1.444  16.257  1.3797 -3.1772 -1.6249
 8311TIP3   OH246423   2.264   3.876  15.925 -0.5915  0.4208 -0.9772
 8311TIP3    H146424   2.188   3.934  15.928 -1.1711 -0.4055  1.4456
 8311TIP3    H246425   2.331   3.923  15.974 -0.3675  0.0155 -0.8958
 8312TIP3   OH246426   3.987   6.196  16.445  0.6971 -0.3782  0.4526
 8312TIP3    H146427   3.984   6.132  16.516 -2.9466  0.0268  0.7750
 8312TIP3    H246428   3.945   6.151  16.371 -1.8740  1.5620  0.6715
 8313TIP3   OH246429   6.153   2.728   6.317 -0.4430  0.2120 -0.1659
 8313TIP3    H146430   6.107   2.647   6.297  2.5412 -1.5860 -0.1495
 8313TIP3    H246431   6.213   2.704   6.388 -0.5195  2.8146  0.8249
 8314TIP3   OH246432   5.935   2.194   5.744  0.1351 -0.2747 -0.3736
 8314TIP3    H146433   5.885   2.124   5.702  0.4706 -1.3760  1.0699
 8314TIP3    H246434   5.976   2.154   5.820  1.1040  1.2574 -0.0556
 8315TIP3   OH246435   0.847   1.466   3.304 -0.5849 -0.1711 -0.0607
 8315TIP3    H146436   0.790   1.401   3.263 -0.4907  0.4107 -1.1573
 8315TIP3    H246437   0.787   1.533   3.337 -0.5416  0.5942 -1.4888
 8316TIP3   OH246438   1.570   5.033  15.828 -0.3419  0.0481  0.7859
 8316TIP3    H146439   1.550   4.939  15.832  0.1490 -0.0193  1.8665
 8316TIP3    H246440   1.516   5.071  15.898 -1.5593  0.7607 -0.5325
 8317TIP3   OH246441   4.413   6.109   0.979  0.2008 -0.1023 -0.1519
 8317TIP3    H146442   4.451   6.197   0.981 -1.0587  0.4603 -0.4312
 8317TIP3    H246443   4.330   6.118   1.026  0.6627 -1.4487  0.9904
 8318TIP3   OH246444   3.952   2.915   4.288  0.9192  0.1296 -0.5016
 8318TIP3    H146445   3.860   2.909   4.262  0.8995  2.2608 -1.0472
 8318TIP3    H246446   3.986   2.827   4.277 -0.9199 -0.5600 -0.8552
 8319TIP3   OH246447   2.749   0.569  14.029 -0.0281  0.3635 -0.0046
 8319TIP3    H146448   2.816   0.622  13.986 -0.8505  2.1080  0.8538
 8319TIP3    H246449   2.715   0.513  13.959  0.4128  1.4003 -1.0563
 8320TIP3   OH246450   4.624   0.353  11.777 -0.0386 -0.7345  0.8543
 8320TIP3    H146451   4.573   0.344  11.697  0.6446 -2.7163  0.6159
 8320TIP3    H246452   4.561   0.336  11.848 -0.5852  0.7779  0.7433
 8321TIP3   OH246453   5.912   5.679  14.508 -0.3066 -0.1155  0.3788
 8321TIP3    H146454   5.831   5.631  14.491 -0.1531  0.8566 -3.3803
 8321TIP3    H246455   5.884   5.759  14.551 -1.2558 -0.1979 -0.0766
 8322TIP3   OH246456   2.824   0.212  15.660 -0.0439 -0.2954  0.7118
 8322TIP3    H146457   2.845   0.137  15.605  0.0339 -0.6870  1.2755
 8322TIP3    H246458   2.735   0.194  15.692  0.7535 -1.1470  2.4971
 8323TIP3   OH246459   4.264   3.079   6.546 -0.2758 -0.0683 -0.1620
 8323TIP3    H146460   4.246   3.139   6.474 -1.1830  0.9955  0.9230
 8323TIP3    H246461   4.333   3.022   6.513  0.6347  1.5988 -1.2182
 8324TIP3   OH246462   3.786   2.997  11.554 -0.8009  0.2838 -0.2291
 8324TIP3    H146463   3.746   2.949  11.626  1.5173  1.5522  2.0044
 8324TIP3    H246464   3.791   2.934  11.482 -1.3658 -1.5939  1.3453
 8325TIP3   OH246465   6.436   6.594   0.050 -0.5031 -0.2169 -0.2159
 8325TIP3    H146466   6.344   6.611   0.030 -1.1728  0.2582  3.0285
 8325TIP3    H246467   6.444   6.499   0.048 -0.6021 -0.2232 -2.1738
 8326TIP3   OH246468   6.663   2.697   0.144 -0.4360  0.4246  0.6677
 8326TIP3    H146469   6.752   2.668   0.163 -0.5784 -0.4061  0.0880
 8326TIP3    H246470   6.608   2.621   0.162 -1.1259  1.1617  1.7672
 8327TIP3   OH246471   2.604   1.136   1.531 -0.1615 -0.4011 -1.3848
 8327TIP3    H146472   2.668   1.065   1.522  0.1192 -0.2671 -0.4319
 8327TIP3    H246473   2.628   1.181   1.612 -1.9440 -0.8307 -0.5862
 8328TIP3   OH246474   1.454   5.939   3.482 -0.5836  0.2917  0.2550
 8328TIP3    H146475   1.519   5.875   3.456  0.4040  1.6679 -0.6961
 8328TIP3    H246476   1.408   5.898   3.556  2.2071 -0.1684  1.8053
 8329TIP3   OH246477   4.721   6.380  16.567 -0.5088 -0.3897 -0.2814
 8329TIP3    H146478   4.660   6.431  16.619 -1.8347 -2.4924  0.2837
 8329TIP3    H246479   4.798   6.367  16.623 -0.2789  0.7125 -0.3332
 8330TIP3   OH246480   3.733   5.199  12.739  0.6097 -0.2474  0.0368
 8330TIP3    H146481   3.679   5.272  12.769  0.6411 -0.2103  0.0019
 8330TIP3    H246482   3.787   5.236  12.669  0.1265 -0.4809 -0.4653
 8331TIP3   OH246483   6.131   1.917  13.038 -0.2117 -0.0938 -0.4556
 8331TIP3    H146484   6.104   1.860  12.966 -0.5652 -0.5030 -0.0022
 8331TIP3    H246485   6.215   1.954  13.009 -0.7387  0.3559 -1.4037
 8332TIP3   OH246486   1.824   1.594  10.985  0.6830 -0.1384  0.0278
 8332TIP3    H146487   1.754   1.622  10.925  0.4180  0.4281  0.5946
 8332TIP3    H246488   1.815   1.499  10.989 -0.0140 -0.0789  0.0451
 8333TIP3   OH246489   6.149   4.383   1.763 -0.0368  0.0200  0.4089
 8333TIP3    H146490   6.178   4.474   1.773  0.1337  0.0315 -0.1533
 8333TIP3    H246491   6.141   4.371   1.668  0.3744 -0.6814  0.4571
 8334TIP3   OH246492   4.564   2.040   3.499 -0.2360  0.8629 -0.6422
 8334TIP3    H146493   4.498   2.055   3.567  0.2737  1.6758 -0.3167
 8334TIP3    H246494   4.641   2.010   3.547 -0.8120 -1.6296 -1.1557
 8335TIP3   OH246495   1.730   2.075   6.421  0.2113  0.3271 -0.2634
 8335TIP3    H146496   1.709   2.037   6.506  0.8176  0.2528 -0.1442
 8335TIP3    H246497   1.817   2.041   6.400 -0.6942 -1.1228 -1.7699
 8336TIP3   OH246498   5.964   5.022   2.937  0.3739  0.7804 -0.4798
 8336TIP3    H146499   6.027   4.950   2.933  1.0998  1.5001 -2.4763
 8336TIP3    H246500   6.011   5.094   2.979 -0.3799  0.1109  1.5998
 8337TIP3   OH246501   3.245   4.936  17.123 -0.0469  0.6744  0.5120
 8337TIP3    H146502   3.184   4.880  17.172 -0.4284  0.1112 -0.5844
 8337TIP3    H246503   3.299   4.875  17.072  0.1444  1.2530  0.0101
 8338TIP3   OH246504   5.854   3.983  12.457  0.0657 -0.3496  0.4229
 8338TIP3    H146505   5.772   4.024  12.432 -0.3866 -1.4980  0.0124
 8338TIP3    H246506   5.881   3.933  12.380  0.7520 -0.6139  0.8286
 8339TIP3   OH246507   6.288   1.419  16.735  0.3574 -0.6223 -0.2758
 8339TIP3    H146508   6.325   1.505  16.716 -0.8110 -0.0944 -0.2538
 8339TIP3    H246509   6.304   1.406  16.828  0.7301 -0.5258 -0.3258
 8340TIP3   OH246510   4.765   0.632  13.857  0.0891  0.7977 -0.0377
 8340TIP3    H146511   4.825   0.702  13.884  0.6585 -0.1240  1.1315
 8340TIP3    H246512   4.808   0.593  13.781  1.0578  0.0593  0.8687
 8341TIP3   OH246513   6.133   3.926  13.319 -0.0597  0.4286  0.5777
 8341TIP3    H146514   6.075   3.972  13.379 -1.8839  0.1320 -0.8948
 8341TIP3    H246515   6.197   3.991  13.291 -1.2042  1.4482  0.3070
 8342TIP3   OH246516   2.481   2.958   1.209  0.3732  0.3899  0.3431
 8342TIP3    H146517   2.524   2.906   1.141  0.0431  0.1670  0.3038
 8342TIP3    H246518   2.541   3.031   1.224  0.5105  0.3688 -0.0921
 8343TIP3   OH246519   3.740   6.463   1.872  0.0014 -0.2688  0.6301
 8343TIP3    H146520   3.775   6.470   1.783 -2.3138 -0.5428 -0.3278
 8343TIP3    H246521   3.698   6.378   1.875  1.1977 -0.8328  2.4454
 8344TIP3   OH246522   5.399   6.807  14.694 -0.4635 -0.2908 -0.3110
 8344TIP3    H146523   5.409   6.752  14.616  0.9701 -0.4781 -0.0109
 8344TIP3    H246524   5.462   6.878  14.682  2.3538 -2.2029  2.2591
 8345TIP3   OH246525   2.807   1.352  13.102  0.0213  0.0854  0.2090
 8345TIP3    H146526   2.801   1.416  13.031  1.2723 -0.0719 -0.0596
 8345TIP3    H246527   2.717   1.326  13.119 -0.2803 -0.0003 -1.4591
 8346TIP3   OH246528   1.969   5.589  15.089 -0.3120  0.3461  0.3023
 8346TIP3    H146529   1.898   5.605  15.151 -0.6699 -2.1798  0.5653
 8346TIP3    H246530   2.046   5.575  15.144 -0.5435 -1.4582  0.1965
 8347TIP3   OH246531   5.129   0.265   5.500  0.7718  0.0015 -0.6856
 8347TIP3    H146532   5.041   0.228   5.495  0.1389  1.6845 -2.5672
 8347TIP3    H246533   5.181   0.196   5.542 -1.1250 -1.6116 -0.8944
 8348TIP3   OH246534   6.375   0.300   5.498 -0.1861 -0.1961 -0.6035
 8348TIP3    H146535   6.307   0.234   5.486 -0.7304  0.5025 -1.4719
 8348TIP3    H246536   6.380   0.345   5.413 -0.7971  1.7751  0.3649
 8349TIP3   OH246537   0.542   2.893   1.564 -0.4066 -0.4510  0.6595
 8349TIP3    H146538   0.612   2.862   1.507 -0.9602  0.9674 -0.8402
 8349TIP3    H246539   0.563   2.985   1.580 -1.3998 -0.2708  0.9866
 8350TIP3   OH246540   2.581   4.659  15.988  0.9069 -0.0022 -0.0389
 8350TIP3    H146541   2.505   4.653  15.930 -0.2096 -2.3525  1.5851
 8350TIP3    H246542   2.545   4.674  16.075  2.2641 -1.1667  0.7636
 8351TIP3   OH246543   6.128   1.724   3.268  0.5815  0.6440  0.1022
 8351TIP3    H146544   6.033   1.726   3.273  0.6582  1.4786  1.4455
 8351TIP3    H246545   6.147   1.661   3.199 -0.9606  1.3043 -0.9593
 8352TIP3   OH246546   1.592   0.539   2.657  0.1186  0.1565 -0.4268
 8352TIP3    H146547   1.626   0.629   2.652  1.5574 -0.3786 -0.4692
 8352TIP3    H246548   1.507   0.544   2.612  0.0330  1.5566 -0.1593
 8353TIP3   OH246549   0.080   5.706   3.716  0.1908 -0.2167 -0.1575
 8353TIP3    H146550   0.168   5.684   3.744  0.1237 -0.2037  0.0658
 8353TIP3    H246551   0.030   5.625   3.728  0.1927 -0.2517 -0.3713
 8354TIP3   OH246552   4.963   4.288  13.220  0.7047 -0.5170  0.1552
 8354TIP3    H146553   5.004   4.218  13.168  1.9055 -0.3157  0.8043
 8354TIP3    H246554   5.030   4.356  13.224 -0.6330  0.8974 -0.8780
 8355TIP3   OH246555   3.508   3.174  12.930  0.2577 -1.1041  0.3705
 8355TIP3    H146556   3.505   3.094  12.981 -0.8167 -2.9780 -2.5267
 8355TIP3    H246557   3.556   3.151  12.851  3.0787  2.0894  1.0248
 8356TIP3   OH246558   1.477   5.575  11.604  0.0956  0.2277 -0.0394
 8356TIP3    H146559   1.491   5.483  11.628  0.6638  0.4083  0.3313
 8356TIP3    H246560   1.543   5.591  11.536 -0.1951  0.2805 -0.3074
 8357TIP3   OH246561   5.123   1.401  11.568 -0.2396 -0.0365  0.0682
 8357TIP3    H146562   5.116   1.496  11.583  1.6070  0.2534 -0.8014
 8357TIP3    H246563   5.177   1.370  11.640  1.1991 -0.0353 -0.9944
 8358TIP3   OH246564   6.811   4.442  14.776  0.3668  0.5512 -0.0854
 8358TIP3    H146565   6.832   4.527  14.815  0.9241  0.4129 -0.0791
 8358TIP3    H246566   6.738   4.460  14.716  0.3846  1.0040  0.0306
 8359TIP3   OH246567   1.342   5.412  13.310 -0.0666 -0.0754  0.3112
 8359TIP3    H146568   1.355   5.460  13.392  0.4817  0.1323  0.1047
 8359TIP3    H246569   1.252   5.435  13.283 -0.6044 -0.9218  1.3550
 8360TIP3   OH246570   1.367   1.614   6.400 -0.4358  0.8184 -0.2516
 8360TIP3    H146571   1.439   1.643   6.455  0.2851  0.5367 -1.0186
 8360TIP3    H246572   1.406   1.609   6.312 -1.6125  1.4694 -0.8164
 8361TIP3   OH246573   5.260   2.489   5.279  0.5703  0.1159 -0.2116
 8361TIP3    H146574   5.249   2.394   5.280 -0.0813  0.1949  0.9823
 8361TIP3    H246575   5.222   2.516   5.196  0.4617 -0.6311 -0.4136
 8362TIP3   OH246576   1.345   1.932  14.092  0.1986 -0.1207  0.1482
 8362TIP3    H146577   1.283   1.979  14.149 -0.1209 -0.9933  0.5207
 8362TIP3    H246578   1.364   1.851  14.138  1.2805 -0.0623 -0.1843
 8363TIP3   OH246579   2.811   0.895   4.763  0.1401 -0.6488  0.0904
 8363TIP3    H146580   2.807   0.967   4.825  1.2800 -0.6711  0.1949
 8363TIP3    H246581   2.850   0.822   4.812  1.0036 -0.6817 -0.6197
 8364TIP3   OH246582   0.571   1.056   2.151 -0.5350  0.5853 -0.1481
 8364TIP3    H146583   0.511   1.121   2.187 -0.5980  1.7671 -2.3353
 8364TIP3    H246584   0.514   0.998   2.099 -0.4956 -1.3020  1.8208
 8365TIP3   OH246585   6.193   5.623  12.243  0.3688  0.3798 -0.6252
 8365TIP3    H146586   6.232   5.686  12.302  2.5850 -0.2538 -1.3394
 8365TIP3    H246587   6.109   5.599  12.283  1.7389  0.0933  2.1409
 8366TIP3   OH246588   1.603   0.173  13.647 -0.2383  0.2728  0.4205
 8366TIP3    H146589   1.563   0.087  13.662 -0.3783  0.3482  0.4720
 8366TIP3    H246590   1.691   0.164  13.684 -0.5347  0.4132  1.1698
 8367TIP3   OH246591   1.153   4.173   4.301  0.4593 -0.8186  0.0284
 8367TIP3    H146592   1.134   4.106   4.235 -1.1717 -0.1793 -0.1733
 8367TIP3    H246593   1.109   4.141   4.380  0.8550 -0.6711  0.3072
 8368TIP3   OH246594   3.796   3.636   4.994 -0.4555 -0.1306  0.0479
 8368TIP3    H146595   3.787   3.578   4.918 -0.0484 -0.3019  0.1275
 8368TIP3    H246596   3.842   3.582   5.059 -1.0909 -0.0877  0.5297
 8369TIP3   OH246597   0.416   5.111  14.985  0.6871  0.4406  0.1322
 8369TIP3    H146598   0.456   5.179  14.930  1.5197 -1.7021 -2.0222
 8369TIP3    H246599   0.475   5.036  14.976 -0.6066 -0.8169  1.8589
 8370TIP3   OH246600   4.271   5.343  12.381 -0.2363  0.2040  0.1654
 8370TIP3    H146601   4.248   5.255  12.352  0.2411  0.3867 -0.8128
 8370TIP3    H246602   4.231   5.401  12.316  0.2212  0.6594  0.2844
 8371TIP3   OH246603   5.047   6.341  14.360  0.1814  0.7329  0.0039
 8371TIP3    H146604   5.013   6.285  14.289 -0.2914  2.4220 -1.1387
 8371TIP3    H246605   5.001   6.311  14.438 -0.7827  0.1453 -0.7769
 8372TIP3   OH246606   1.071   5.785  16.729  0.0592 -1.1007 -0.6775
 8372TIP3    H146607   1.159   5.770  16.765 -0.2979  1.0434  1.2193
 8372TIP3    H246608   1.087   5.831  16.647  0.7351  3.3650  1.7530
 8373TIP3   OH246609   3.844   4.666  11.142  0.3436  0.4422 -0.2411
 8373TIP3    H146610   3.831   4.755  11.173  0.1565  1.1024 -2.1593
 8373TIP3    H246611   3.833   4.672  11.047 -0.0900 -1.6921 -0.3455
 8374TIP3   OH246612   1.741   4.130  11.566  0.2128  0.3068  0.2800
 8374TIP3    H146613   1.721   4.217  11.532  1.4919  0.5703  0.1889
 8374TIP3    H246614   1.811   4.098  11.509 -3.0663 -2.5159 -2.4514
 8375TIP3   OH246615   0.259   5.189   1.784  0.7038  0.9539  0.0031
 8375TIP3    H146616   0.269   5.225   1.872 -1.5530  3.6091 -0.7565
 8375TIP3    H246617   0.286   5.260   1.726  0.6653 -0.2255 -1.4850
 8376TIP3   OH246618   6.408   3.415   2.396 -0.8472  0.0699 -0.7985
 8376TIP3    H146619   6.398   3.321   2.413 -0.1151  0.3427  1.2054
 8376TIP3    H246620   6.334   3.456   2.440 -1.0904  0.4666 -1.5557
 8377TIP3   OH246621   6.661   2.640   0.932 -0.1346  0.5403 -0.0198
 8377TIP3    H146622   6.648   2.583   0.856 -2.5464 -1.2007  1.6170
 8377TIP3    H246623   6.698   2.582   0.999 -0.3493  1.4712  0.9093
 8378TIP3   OH246624   6.814   4.299   2.870 -0.2148  0.2609  0.4847
 8378TIP3    H146625   6.851   4.238   2.806  1.8336  0.2617  1.6348
 8378TIP3    H246626   6.875   4.373   2.869  0.2736 -0.0825  2.9881
 8379TIP3   OH246627   0.475   2.225  13.933 -0.3289  0.1205  0.1383
 8379TIP3    H146628   0.510   2.137  13.944 -2.2683 -0.8030 -0.7961
 8379TIP3    H246629   0.543   2.273  13.886  1.3853 -0.4175  2.0058
 8380TIP3   OH246630   2.809   5.814   0.956 -0.0670 -0.1452 -0.2219
 8380TIP3    H146631   2.733   5.835   0.902  0.6893 -0.0110 -1.2702
 8380TIP3    H246632   2.860   5.895   0.958  0.2697 -0.3605  0.1018
 8381TIP3   OH246633   4.270   6.415   0.923  0.1410  0.5038 -0.1601
 8381TIP3    H146634   4.282   6.492   0.867  0.9744  1.2788  1.0721
 8381TIP3    H246635   4.353   6.406   0.970 -0.1804 -0.7734  0.1817
 8382TIP3   OH246636   0.213   5.415   5.524  0.1704 -0.1240 -0.3812
 8382TIP3    H146637   0.252   5.501   5.542  1.2566 -0.5962 -0.4292
 8382TIP3    H246638   0.136   5.411   5.581  0.6305  0.5123  0.2918
 8383TIP3   OH246639   3.751   1.515   5.451 -0.2364 -0.0310 -0.0547
 8383TIP3    H146640   3.747   1.468   5.368 -0.6952 -0.6577  0.3217
 8383TIP3    H246641   3.836   1.491   5.489  0.2330  0.7293 -0.6204
 8384TIP3   OH246642   2.056   1.180   1.962  0.5440 -0.1690 -0.4614
 8384TIP3    H146643   2.075   1.158   2.053  1.8633 -2.2915 -1.2178
 8384TIP3    H246644   2.072   1.099   1.914 -1.3620  0.5713 -2.4379
 8385TIP3   OH246645   1.005   2.182   2.929  0.1390  0.1158 -0.0224
 8385TIP3    H146646   0.994   2.148   2.840  0.3142  0.4417 -0.1672
 8385TIP3    H246647   1.058   2.116   2.973  1.9082  1.0032 -0.7842
 8386TIP3   OH246648   1.659   5.103  11.725  0.3433  0.0344 -0.1106
 8386TIP3    H146649   1.586   5.138  11.674  0.7728  0.1591 -0.6408
 8386TIP3    H246650   1.621   5.085  11.811 -0.6202 -1.1154 -0.7584
 8387TIP3   OH246651   1.394   5.542  11.048  0.3299 -0.7288 -0.0333
 8387TIP3    H146652   1.415   5.630  11.080  1.1873 -0.9225 -0.0584
 8387TIP3    H246653   1.430   5.540  10.959 -0.8319 -0.6663 -0.5159
 8388TIP3   OH246654   1.992   1.967  13.385  0.1439 -0.2206  0.1663
 8388TIP3    H146655   2.066   2.004  13.336 -0.4983  1.3004  0.3287
 8388TIP3    H246656   2.031   1.894  13.434  0.8836 -1.4733 -2.2001
 8389TIP3   OH246657   3.324   5.099   1.596 -0.2147  0.3699  0.0304
 8389TIP3    H146658   3.320   5.027   1.659 -1.4794  0.2633 -0.1640
 8389TIP3    H246659   3.259   5.076   1.529  2.1505 -0.3081 -2.1440
 8390TIP3   OH246660   3.195   2.585  15.122  0.1829  0.2559  0.4760
 8390TIP3    H146661   3.148   2.558  15.201 -0.2428  1.0871  0.5163
 8390TIP3    H246662   3.287   2.568  15.142  0.0930  0.5885  1.2114
 8391TIP3   OH246663   4.407   1.674  15.525 -0.0650 -0.5317  0.1557
 8391TIP3    H146664   4.415   1.713  15.438 -1.0939 -0.9684 -0.1387
 8391TIP3    H246665   4.497   1.668  15.557  0.2287  0.7049 -0.4027
 8392TIP3   OH246666   2.542   2.279  13.863 -0.0517  0.3452  0.2978
 8392TIP3    H146667   2.477   2.257  13.930 -0.1534 -0.6058 -0.1135
 8392TIP3    H246668   2.625   2.281  13.911 -0.2425  0.5304  0.6230
 8393TIP3   OH246669   1.405   5.418  13.920  0.6227  0.2179  0.4607
 8393TIP3    H146670   1.376   5.371  13.842  1.5558  0.1587  0.1393
 8393TIP3    H246671   1.386   5.510  13.901  2.3592  0.3796 -0.5294
 8394TIP3   OH246672   0.502   3.538   0.450  0.4724  0.0824  0.0323
 8394TIP3    H146673   0.511   3.603   0.381  2.8885 -0.5677 -0.2979
 8394TIP3    H246674   0.586   3.539   0.496 -0.9475  0.2320  2.7489
 8395TIP3   OH246675   6.146   3.533  15.156  0.5342 -0.1518  0.4191
 8395TIP3    H146676   6.123   3.457  15.209  0.6565 -1.8499 -1.8932
 8395TIP3    H246677   6.242   3.530  15.151  0.4589 -0.6546 -0.8145
 8396TIP3   OH246678   5.359   4.171  16.642  0.2903  0.1085 -0.3854
 8396TIP3    H146679   5.293   4.229  16.681  0.5835 -0.0515  0.3525
 8396TIP3    H246680   5.329   4.083  16.664  0.5318  0.0217 -0.4046
 8397TIP3   OH246681   4.449   2.759  13.233 -0.1841  0.1845 -0.0557
 8397TIP3    H146682   4.365   2.714  13.217 -0.1613  0.1680 -0.1311
 8397TIP3    H246683   4.504   2.692  13.274  0.0655 -0.0458 -0.7636
 8398TIP3   OH246684   0.235   6.002   4.398  0.7743  0.1376 -0.1067
 8398TIP3    H146685   0.159   6.034   4.349  0.2377 -2.0875 -0.7831
 8398TIP3    H246686   0.213   6.020   4.490 -1.0838 -1.4775 -0.2100
 8399TIP3   OH246687   1.555   4.331  14.417 -0.3891 -0.0055 -0.3681
 8399TIP3    H146688   1.565   4.240  14.389 -1.6581 -0.8078  1.6339
 8399TIP3    H246689   1.562   4.382  14.337  0.1043 -1.8810 -1.5539
 8400TIP3   OH246690   5.244   6.244   1.738  0.1337 -0.1683  0.0976
 8400TIP3    H146691   5.165   6.216   1.692 -0.0811  1.6859 -0.7440
 8400TIP3    H246692   5.256   6.335   1.711  2.8535 -0.5627 -0.2272
 8401TIP3   OH246693   3.708   1.221   1.446  0.2411  0.2805  0.0246
 8401TIP3    H146694   3.666   1.244   1.362 -1.3087  2.6745  1.3866
 8401TIP3    H246695   3.644   1.164   1.489  0.4208  0.1849  0.1616
 8402TIP3   OH246696   3.486   5.509   2.012 -0.0044 -0.1816  0.3016
 8402TIP3    H146697   3.483   5.586   2.069 -1.4824  1.7370 -2.3105
 8402TIP3    H246698   3.440   5.442   2.062  0.4478  0.8633  2.1987
 8403TIP3   OH246699   5.339   2.760   2.844 -0.1072 -1.0685 -0.2179
 8403TIP3    H146700   5.251   2.736   2.873  0.7495 -1.4167  2.2083
 8403TIP3    H246701   5.390   2.768   2.925  1.2519  2.6316 -1.3285
 8404TIP3   OH246702   4.128   5.141   2.757 -0.4468  0.3269  0.1982
 8404TIP3    H146703   4.042   5.116   2.725 -0.1540  0.9762 -1.1367
 8404TIP3    H246704   4.110   5.205   2.826 -1.1050 -1.7072  1.9319
 8405TIP3   OH246705   2.280   1.878  10.964 -0.2612 -0.0564  0.5498
 8405TIP3    H146706   2.305   1.861  10.873  0.0678 -1.0431  0.8233
 8405TIP3    H246707   2.197   1.925  10.958  0.7939  1.7379 -0.3250
 8406TIP3   OH246708   5.988   5.536   3.000 -0.0109 -0.0767  0.1092
 8406TIP3    H146709   5.995   5.482   3.079  1.1863 -0.5019 -0.2867
 8406TIP3    H246710   5.894   5.540   2.982 -0.2115 -0.7872  0.9984
 8407TIP3   OH246711   2.026   1.416  14.534  0.2073  0.4944  0.4418
 8407TIP3    H146712   1.991   1.504  14.520 -0.6592  0.2096  0.7697
 8407TIP3    H246713   1.960   1.358  14.495  0.1658 -0.0638  1.3307
 8408TIP3   OH246714   6.415   1.176  15.030  0.8333 -0.1056  0.8741
 8408TIP3    H146715   6.451   1.180  14.941  1.4944  0.6139  1.1732
 8408TIP3    H246716   6.342   1.115  15.023  2.4675 -2.0548  0.4035
 8409TIP3   OH246717   3.243   6.648   5.193 -0.0199 -0.3621  0.3678
 8409TIP3    H146718   3.248   6.716   5.126  0.4376  0.7834  1.5443
 8409TIP3    H246719   3.319   6.592   5.175 -0.2701 -0.4382 -0.4739
 8410TIP3   OH246720   0.021   3.535  17.114 -0.2942 -0.1514  0.7715
 8410TIP3    H146721   0.006   3.628  17.093  0.6080 -0.3471 -0.8329
 8410TIP3    H246722  -0.040   3.488  17.057  0.9528 -0.6326 -0.1768
 8411TIP3   OH246723   6.621   3.923   0.429  0.2545  0.0078 -0.4430
 8411TIP3    H146724   6.540   3.973   0.416  0.1910 -0.6321 -2.7388
 8411TIP3    H246725   6.597   3.833   0.410  1.2571 -0.3478 -0.0590
 8412TIP3   OH246726   5.450   6.455   5.667 -0.7741  0.1456  0.4240
 8412TIP3    H146727   5.386   6.411   5.611 -0.3741 -1.4999  1.2271
 8412TIP3    H246728   5.535   6.427   5.633 -0.4890  1.1992  0.2469
 8413TIP3   OH246729   3.412   6.206  13.733  0.1579 -0.5829  0.3831
 8413TIP3    H146730   3.493   6.248  13.702 -1.1159  1.4900 -0.2210
 8413TIP3    H246731   3.402   6.237  13.823  0.7281 -1.9258  0.9258
 8414TIP3   OH246732   1.660   0.626  13.493  0.4968 -0.0096 -0.4620
 8414TIP3    H146733   1.591   0.633  13.559  0.4346  0.9247 -0.6236
 8414TIP3    H246734   1.613   0.619  13.410  0.5890  0.0327 -0.5172
 8415TIP3   OH246735   3.163   1.845  15.521  0.4194  0.7153  0.0297
 8415TIP3    H146736   3.251   1.811  15.532 -0.3486 -0.7516  1.8913
 8415TIP3    H246737   3.108   1.767  15.513 -0.7433  1.6092 -0.8191
 8416TIP3   OH246738   1.382   0.796   4.124 -0.8696 -0.1853  0.1037
 8416TIP3    H146739   1.449   0.754   4.179 -0.4166 -0.4553 -0.6428
 8416TIP3    H246740   1.351   0.870   4.176  1.6952  1.3610 -0.4580
 8417TIP3   OH246741   4.109   6.711   0.004  0.0270  0.2313  0.2683
 8417TIP3    H146742   4.085   6.768   0.078 -2.0201  1.1635 -1.0574
 8417TIP3    H246743   4.137   6.771  -0.064  1.4680 -0.6052  0.1117
 8418TIP3   OH246744   1.323   2.447   6.483 -0.8053 -0.8564 -0.0636
 8418TIP3    H146745   1.398   2.398   6.515 -0.4410  0.2513  0.8208
 8418TIP3    H246746   1.263   2.381   6.449 -0.4081 -1.9092  1.2909
 8419TIP3   OH246747   5.880   5.817  13.875  0.1528 -0.3256  0.1165
 8419TIP3    H146748   5.934   5.773  13.810  1.4011  0.0546  0.8843
 8419TIP3    H246749   5.934   5.890  13.905 -1.1061  0.5496  0.3039
 8420TIP3   OH246750   5.624   5.681  11.780  0.3026  0.2437  0.0069
 8420TIP3    H146751   5.687   5.744  11.744  1.1220  0.5044  1.8500
 8420TIP3    H246752   5.552   5.734  11.812 -0.3502  0.0252 -1.0966
 8421TIP3   OH246753   0.170   0.571   2.307  0.3108  0.1881 -0.0525
 8421TIP3    H146754   0.189   0.509   2.378  0.6496 -1.1177 -1.2643
 8421TIP3    H246755   0.217   0.651   2.331  1.8371 -0.8126  0.3318
 8422TIP3   OH246756   0.398   2.531   6.261 -0.5063  0.3235 -0.3206
 8422TIP3    H146757   0.444   2.543   6.344 -0.1262 -0.5549 -0.4013
 8422TIP3    H246758   0.463   2.550   6.194  0.1714 -2.2531 -0.4573
 8423TIP3   OH246759   6.555   5.042   3.582  0.6715 -0.3216  0.2507
 8423TIP3    H146760   6.575   4.953   3.556 -0.0439 -0.7959  1.2934
 8423TIP3    H246761   6.639   5.088   3.578  0.9733 -0.9388 -0.6637
 8424TIP3   OH246762   0.937   3.379  15.346  0.2233 -0.2327 -0.3705
 8424TIP3    H146763   0.899   3.443  15.407 -0.8517 -1.2752  0.0714
 8424TIP3    H246764   0.930   3.295  15.391  1.8558 -0.6447 -0.8467
 8425TIP3   OH246765   5.736   0.013  11.689 -0.4853  0.1693  0.9885
 8425TIP3    H146766   5.642   0.023  11.706 -0.7500 -0.9240  0.2072
 8425TIP3    H246767   5.763  -0.060  11.744  0.3218  1.7019  2.6525
 8426TIP3   OH246768   6.819   1.840  16.221 -0.1961  0.0430 -0.0991
 8426TIP3    H146769   6.790   1.869  16.308 -2.5167  1.8016 -1.3966
 8426TIP3    H246770   6.833   1.921  16.172  1.6322 -0.9248 -1.2126
 8427TIP3   OH246771   4.121   5.553  13.842  0.4629 -0.2885 -0.2661
 8427TIP3    H146772   4.201   5.567  13.791  0.4408  0.5881 -0.0630
 8427TIP3    H246773   4.075   5.636  13.839  0.7537 -0.0206  1.6605
 8428TIP3   OH246774   5.139   3.679  12.548 -0.4511 -0.1761  0.0109
 8428TIP3    H146775   5.045   3.689  12.564 -0.4768  1.1031 -0.9493
 8428TIP3    H246776   5.180   3.710  12.629 -0.9192 -4.5179  2.1133
 8429TIP3   OH246777   4.406   1.070   4.717 -0.5670 -0.1399 -0.3416
 8429TIP3    H146778   4.313   1.086   4.704 -0.9821  0.0235  2.4771
 8429TIP3    H246779   4.444   1.157   4.729 -0.4044 -0.3389  0.6098
 8430TIP3   OH246780   3.057   1.321   3.507 -0.2015  0.4705 -0.1060
 8430TIP3    H146781   2.973   1.367   3.517  0.0913  0.7108  1.3478
 8430TIP3    H246782   3.036   1.229   3.525  0.3894  0.9479  3.3628
 8431TIP3   OH246783   4.797   4.967   5.828 -0.6420 -0.1935 -0.4995
 8431TIP3    H146784   4.781   4.990   5.920  0.9154 -1.3523  0.0823
 8431TIP3    H246785   4.842   4.883   5.832  2.8485  1.4942 -2.1851
 8432TIP3   OH246786   0.314   5.679  11.456 -0.0241  0.0063  0.1064
 8432TIP3    H146787   0.273   5.733  11.524 -0.4185 -0.1894  0.0241
 8432TIP3    H246788   0.316   5.591  11.494  0.5578  0.0619  0.2142
 8433TIP3   OH246789   4.255   1.571  14.472  0.5503  0.2479  0.1244
 8433TIP3    H146790   4.163   1.547  14.485  0.4174 -0.0333 -1.2217
 8433TIP3    H246791   4.264   1.577  14.377  2.8175 -3.3387  0.0438
 8434TIP3   OH246792   6.181   0.994   4.569 -0.0995 -0.0413 -0.7173
 8434TIP3    H146793   6.149   0.981   4.479 -1.2739 -1.0076 -0.1752
 8434TIP3    H246794   6.202   0.906   4.600  1.3898  0.4074 -0.4309
 8435TIP3   OH246795   1.203   2.093  11.055  0.1293  0.8569 -0.5083
 8435TIP3    H146796   1.214   2.165  11.117 -1.3786 -0.0327  0.8194
 8435TIP3    H246797   1.242   2.126  10.974 -0.7710  3.2950 -0.0036
 8436TIP3   OH246798   4.955   3.720   2.480  0.2978 -0.1049  0.0923
 8436TIP3    H146799   5.024   3.772   2.521 -1.5268  0.9924  1.9121
 8436TIP3    H246800   4.918   3.777   2.413  1.2766 -0.7764 -1.0408
 8437TIP3   OH246801   0.360   6.364   2.818  0.2406 -0.5563 -0.1484
 8437TIP3    H146802   0.402   6.294   2.868 -0.6704  0.1436  1.6331
 8437TIP3    H246803   0.355   6.438   2.879 -2.7976 -0.3531 -0.5394
 8438TIP3   OH246804   2.287   4.903   1.405 -0.0810  0.2917  0.0877
 8438TIP3    H146805   2.344   4.957   1.351 -0.4060 -0.8177 -1.4164
 8438TIP3    H246806   2.244   4.964   1.464  1.4661  1.3371  0.1635
 8439TIP3   OH246807   2.033   5.363   5.080 -0.0754  0.7885  0.1673
 8439TIP3    H146808   1.962   5.300   5.091 -0.4323  1.4171  1.6481
 8439TIP3    H246809   2.024   5.394   4.990 -1.9462  1.1749  0.4630
 8440TIP3   OH246810   5.633   6.681   1.586  0.1231 -0.2142  0.1540
 8440TIP3    H146811   5.725   6.708   1.596 -0.4863  3.6214 -3.2595
 8440TIP3    H246812   5.596   6.690   1.674  2.4539  0.4113  1.1307
 8441TIP3   OH246813   0.484   0.131  13.431  0.4527 -0.1728 -0.2839
 8441TIP3    H146814   0.556   0.155  13.373  0.0502 -0.3119 -0.8404
 8441TIP3    H246815   0.494   0.189  13.507  0.7991  0.2190 -0.6295
 8442TIP3   OH246816   3.588   5.636   0.221 -0.1447  0.1121 -0.0458
 8442TIP3    H146817   3.516   5.659   0.280 -0.4330  0.3691 -0.4888
 8442TIP3    H246818   3.638   5.570   0.268 -1.5291 -1.1862 -0.3428
 8443TIP3   OH246819   1.025   5.085  11.962  0.1894  0.6801  0.0642
 8443TIP3    H146820   1.000   5.177  11.961 -1.0209  0.3611 -0.5354
 8443TIP3    H246821   0.998   5.052  11.876  0.4858 -0.2577  0.3271
 8444TIP3   OH246822   6.603   6.465  15.918 -0.3598  0.3699 -0.1680
 8444TIP3    H146823   6.679   6.408  15.932 -0.6899  0.1207  0.6012
 8444TIP3    H246824   6.530   6.405  15.904 -0.4886  0.6098 -0.5183
 8445TIP3   OH246825   0.453   3.405   0.850 -0.3061 -0.7035  0.2138
 8445TIP3    H146826   0.548   3.404   0.864 -0.1294 -0.3234 -0.9376
 8445TIP3    H246827   0.436   3.488   0.806 -1.2826 -0.4281  1.0986
 8446TIP3   OH246828   5.141   0.845  16.657 -0.0625 -0.0236 -0.6287
 8446TIP3    H146829   5.077   0.912  16.679  0.5884  0.5580 -0.4870
 8446TIP3    H246830   5.100   0.794  16.588 -1.5725 -1.0073  0.9594
 8447TIP3   OH246831   5.171   4.701   0.627 -0.9210  0.3240 -0.4361
 8447TIP3    H146832   5.218   4.781   0.605  0.4749 -0.1401  0.8222
 8447TIP3    H246833   5.223   4.661   0.696 -0.7933 -2.4509 -2.0831
 8448TIP3   OH246834   1.686   1.420   5.687  0.3337  0.0250  0.1608
 8448TIP3    H146835   1.602   1.382   5.661 -0.3693  0.7700  1.2632
 8448TIP3    H246836   1.663   1.503   5.729  1.7048  0.7610 -0.5087
 8449TIP3   OH246837   1.620   3.685  12.290 -0.1169 -0.6304  0.6271
 8449TIP3    H146838   1.660   3.601  12.266  0.3321  0.2824 -1.8783
 8449TIP3    H246839   1.684   3.725  12.349  1.9738  0.0779 -2.0258
 8450TIP3   OH246840   4.643   3.022  14.362  0.1802  0.1413 -0.1447
 8450TIP3    H146841   4.719   3.033  14.305 -1.1847  0.3101 -1.9847
 8450TIP3    H246842   4.648   3.095  14.425  1.4934  0.1712 -0.2850
 8451TIP3   OH246843   3.523   4.136  14.115 -0.1289  0.4286 -0.0304
 8451TIP3    H146844   3.515   4.188  14.034  0.7234  1.9008  0.8183
 8451TIP3    H246845   3.612   4.102  14.113 -0.7504 -1.2498 -0.6957
 8452TIP3   OH246846   6.406   0.674   0.171 -0.8798  0.4265  0.6291
 8452TIP3    H146847   6.354   0.654   0.249 -3.5503 -0.0334 -1.2158
 8452TIP3    H246848   6.368   0.755   0.138 -1.0080 -0.3869 -1.2470
 8453TIP3   OH246849   4.114   1.237   4.059  0.0041 -0.7512  0.1028
 8453TIP3    H146850   4.055   1.313   4.059  0.1596 -0.6314  0.1526
 8453TIP3    H246851   4.059   1.165   4.027  0.0804 -0.4415 -0.7533
 8454TIP3   OH246852   1.341   5.189  12.074  0.0209  0.2776  0.0616
 8454TIP3    H146853   1.253   5.151  12.068 -0.1042  0.4155  1.0207
 8454TIP3    H246854   1.337   5.248  12.148  1.0431 -0.0302  0.3667
 8455TIP3   OH246855   0.032   5.522   1.385  0.3646  0.0662 -0.1405
 8455TIP3    H146856  -0.047   5.506   1.333 -0.4109 -1.0894  1.3389
 8455TIP3    H246857   0.085   5.443   1.372 -0.3399 -0.7363  1.6732
 8456TIP3   OH246858   4.910   1.413  16.114  0.0741 -0.1553 -0.0729
 8456TIP3    H146859   4.960   1.332  16.128  1.6044  0.9157  0.8083
 8456TIP3    H246860   4.914   1.458  16.199  0.1403  1.3493 -0.8676
 8457TIP3   OH246861   4.712   2.210  13.387 -0.1907 -0.6596 -0.1386
 8457TIP3    H146862   4.796   2.256  13.394 -0.5939  0.2356 -1.0853
 8457TIP3    H246863   4.664   2.236  13.465  0.1215 -0.5669  0.0239
 8458TIP3   OH246864   6.539   6.700  14.346 -0.0496  0.3471  0.3655
 8458TIP3    H146865   6.603   6.759  14.307  0.6186 -0.6753 -0.1224
 8458TIP3    H246866   6.564   6.695  14.438  1.3603 -1.0201 -0.0701
 8459TIP3   OH246867   5.345   4.234  12.983  0.0368 -0.0708 -0.3346
 8459TIP3    H146868   5.289   4.156  12.986  1.1599 -0.8653 -0.0087
 8459TIP3    H246869   5.302   4.291  12.919 -2.3270  0.2295  1.4537
 8460TIP3   OH246870   0.007   1.006   0.922 -0.0317  0.1767 -0.1871
 8460TIP3    H146871   0.010   1.101   0.931  1.1725 -0.0077  1.4775
 8460TIP3    H246872  -0.012   0.974   1.010 -1.1513 -1.1053 -0.8761
 8461TIP3   OH246873   6.569   6.041  11.361  0.2068 -0.1287 -0.2482
 8461TIP3    H146874   6.563   5.974  11.429  3.4991 -1.3833 -1.0890
 8461TIP3    H246875   6.581   5.992  11.280  2.0551  1.4303 -0.9544
 8462TIP3   OH246876   4.230   2.965  13.668 -0.1844  0.2680  0.5773
 8462TIP3    H146877   4.177   3.031  13.624 -0.4367  0.9667  1.9126
 8462TIP3    H246878   4.171   2.890  13.678 -0.8768  0.9707  1.8787
 8463TIP3   OH246879   3.542   5.677  11.663 -0.2862  0.0737  0.3292
 8463TIP3    H146880   3.499   5.592  11.656  0.5237 -0.2948 -0.2081
 8463TIP3    H246881   3.618   5.661  11.719  0.0041  0.3948  0.0272
 8464TIP3   OH246882   2.562   2.814   0.968 -0.0047 -0.2551  0.0840
 8464TIP3    H146883   2.508   2.755   1.020 -0.3044 -0.0499  0.0057
 8464TIP3    H246884   2.631   2.758   0.932 -0.6934 -0.6970 -0.5643
 8465TIP3   OH246885   0.502   1.392  12.557 -0.4561 -0.5290  0.2515
 8465TIP3    H146886   0.414   1.397  12.592 -0.0952 -2.3231  1.5170
 8465TIP3    H246887   0.511   1.301  12.528  0.8337 -0.2580 -0.2370
 8466TIP3   OH246888   4.826   3.004   1.145  0.3003  0.2720 -0.0256
 8466TIP3    H146889   4.849   3.046   1.228 -1.0250  1.8105 -0.4060
 8466TIP3    H246890   4.731   2.992   1.150  0.5053 -1.7354 -0.3860
 8467TIP3   OH246891   1.301   3.976  13.858  0.1995  0.3133 -0.9284
 8467TIP3    H146892   1.275   3.943  13.944  0.0063 -0.7637 -1.4002
 8467TIP3    H246893   1.229   3.950  13.800  0.9508 -0.1131 -1.6689
 8468TIP3   OH246894   1.741   0.956  12.824  0.3029 -0.2269  0.5644
 8468TIP3    H146895   1.676   1.023  12.802 -0.9430 -1.4451  0.4222
 8468TIP3    H246896   1.742   0.898  12.748 -0.0294 -1.4196  1.4480
 8469TIP3   OH246897   0.360   3.568  15.777 -0.6542 -0.3214 -0.2701
 8469TIP3    H146898   0.413   3.612  15.844 -3.3028  0.7581  1.2122
 8469TIP3    H246899   0.296   3.634  15.750 -0.0318 -0.9661 -3.4327
 8470TIP3   OH246900   0.505   6.571   5.377 -0.0881 -0.5877 -0.2178
 8470TIP3    H146901   0.543   6.586   5.290  0.8450 -0.6887  0.1681
 8470TIP3    H246902   0.486   6.477   5.378  1.3013 -0.8744  0.2340
 8471TIP3   OH246903   1.687   0.947   0.058  0.8071  0.2488  0.3067
 8471TIP3    H146904   1.608   0.974   0.011  0.7642  0.2770  0.3947
 8471TIP3    H246905   1.680   0.990   0.143 -0.1001 -1.3818  1.0869
 8472TIP3   OH246906   6.381   3.644   1.160  0.1983  0.3274 -0.7017
 8472TIP3    H146907   6.379   3.548   1.154  4.0527  0.1225  0.1931
 8472TIP3    H246908   6.341   3.673   1.078 -0.3196 -2.0650 -1.3445
 8473TIP3   OH246909   0.145   2.309   3.188 -0.2337 -0.2668 -0.5444
 8473TIP3    H146910   0.219   2.369   3.187 -2.0992  2.2351  2.0543
 8473TIP3    H246911   0.150   2.266   3.273 -1.2574 -0.6994 -0.6926
 8474TIP3   OH246912   6.619   0.012  16.434 -0.2121  0.3269  0.3980
 8474TIP3    H146913   6.693   0.072  16.434 -0.3802  0.5412 -0.5989
 8474TIP3    H246914   6.578   0.024  16.348 -0.4044 -1.0200  0.2850
 8475TIP3   OH246915   4.925   6.389  17.035 -0.3043  0.1705 -0.3995
 8475TIP3    H146916   4.951   6.427  17.119 -0.9947  0.5802 -0.3630
 8475TIP3    H246917   4.895   6.301  17.056 -1.3107  0.5793 -0.0791
 8476TIP3   OH246918   6.489   6.426  11.196  0.1828 -0.4613 -0.2729
 8476TIP3    H146919   6.459   6.513  11.170  0.2511 -0.5713 -0.7252
 8476TIP3    H246920   6.561   6.443  11.257  0.6642 -0.1975 -0.9102
 8477TIP3   OH246921   4.775   0.782  17.207  0.1639 -0.2777  0.1919
 8477TIP3    H146922   4.761   0.823  17.122 -0.6533 -1.6325 -0.3371
 8477TIP3    H246923   4.849   0.723  17.193  0.5821  0.1258  0.6577
 8478TIP3   OH246924   0.032   3.469  15.454  0.4870  0.1434  0.3491
 8478TIP3    H146925   0.005   3.480  15.545  0.4535 -0.7370  0.4505
 8478TIP3    H246926   0.122   3.436  15.459 -0.0376 -1.3698  0.1011
 8479TIP3   OH246927   5.850   1.507  16.396  0.1011  0.3720  0.5635
 8479TIP3    H146928   5.882   1.553  16.318 -1.1053  0.4568  0.1075
 8479TIP3    H246929   5.767   1.468  16.368  0.2161 -0.5507  1.4783
 8480TIP3   OH246930   6.057   4.091  17.137  0.5112 -0.2260  0.3177
 8480TIP3    H146931   6.125   4.115  17.200  0.0706 -0.0391  0.7233
 8480TIP3    H246932   6.002   4.168  17.130 -0.2829 -0.7388  0.8035
 8481TIP3   OH246933   2.685   3.615   4.511 -0.0611 -0.2207  0.0094
 8481TIP3    H146934   2.699   3.624   4.417  1.3336 -0.1298  0.2246
 8481TIP3    H246935   2.593   3.587   4.519 -0.3221  0.2378 -1.3405
 8482TIP3   OH246936   0.944   1.553  13.563 -0.1514 -0.7118  0.3977
 8482TIP3    H146937   0.858   1.594  13.562  0.8683  1.5096  0.6614
 8482TIP3    H246938   0.996   1.604  13.501  2.3488  1.1659  3.8981
 8483TIP3   OH246939   6.411   4.139  12.021 -0.5668 -0.5961 -0.6672
 8483TIP3    H146940   6.342   4.142  12.087  1.5861  0.4684  1.6057
 8483TIP3    H246941   6.445   4.050  12.027  0.4146 -0.1495  0.5136
 8484TIP3   OH246942   5.478   5.564   3.765 -0.2703 -0.1705  0.2023
 8484TIP3    H146943   5.420   5.639   3.774 -0.6080 -0.3069 -0.7592
 8484TIP3    H246944   5.421   5.488   3.774 -0.1807 -0.3055 -0.3304
 8485TIP3   OH246945   0.390   1.596   5.338  0.2078  0.5981  0.9966
 8485TIP3    H146946   0.457   1.658   5.310 -0.7530  1.5044  0.6476
 8485TIP3    H246947   0.328   1.649   5.389 -0.9028  0.0494  0.2448
 8486TIP3   OH246948   0.240   6.467  17.047  0.0212  0.2502  0.1869
 8486TIP3    H146949   0.315   6.503  17.001  0.5188  0.3639  1.0740
 8486TIP3    H246950   0.207   6.398  16.990  1.3144 -0.3598  0.1789
 8487TIP3   OH246951   5.923   3.201  14.083  0.0717 -0.0421  0.1515
 8487TIP3    H146952   5.932   3.289  14.046  0.8874 -0.5692 -0.9236
 8487TIP3    H246953   5.973   3.203  14.164 -1.1887  0.9352  0.9251
 8488TIP3   OH246954   3.176   4.464   2.025 -0.0019 -0.3869 -0.0922
 8488TIP3    H146955   3.225   4.540   2.056 -1.4208  1.5120 -2.3652
 8488TIP3    H246956   3.093   4.469   2.071 -0.3734 -0.1558 -0.7920
 8489TIP3   OH246957   1.923   2.951   2.996 -0.2548  0.5606  0.2175
 8489TIP3    H146958   1.830   2.967   2.979 -0.7404 -1.1052  1.2248
 8489TIP3    H246959   1.925   2.869   3.045  1.7370  0.7171  0.4399
 8490TIP3   OH246960   6.766   4.323  15.014  0.1665 -0.2480  0.4604
 8490TIP3    H146961   6.783   4.358  14.927  0.2923 -0.8862  0.2238
 8490TIP3    H246962   6.807   4.237  15.013 -0.8133 -0.7225  0.7656
 8491TIP3   OH246963   1.040   0.604  13.061 -0.0541 -0.2191 -0.1490
 8491TIP3    H146964   0.992   0.612  13.143 -1.9490  1.5127 -1.3659
 8491TIP3    H246965   1.047   0.510  13.046 -3.1296 -0.5353  0.0846
 8492TIP3   OH246966   2.676   0.680  11.805  0.7501  0.1965  0.4761
 8492TIP3    H146967   2.724   0.759  11.830  1.3782 -0.2756  0.7432
 8492TIP3    H246968   2.584   0.704  11.818  0.8995  1.1318 -0.1443
 8493TIP3   OH246969   5.837   0.001   3.777  0.7285 -0.0403  0.0865
 8493TIP3    H146970   5.917   0.005   3.831  0.6783  2.7337  0.0117
 8493TIP3    H246971   5.773   0.051   3.827 -0.8166 -1.6822 -0.1964
 8494TIP3   OH246972   4.534   4.143  12.480  0.1221 -0.0411 -0.1318
 8494TIP3    H146973   4.477   4.199  12.533  1.2521 -0.7015  1.8147
 8494TIP3    H246974   4.477   4.072  12.451 -0.4805  0.2659  0.2834
 8495TIP3   OH246975   5.793   2.446  15.101 -0.0198  0.5959  0.1365
 8495TIP3    H146976   5.717   2.435  15.159  0.2452 -0.5496  0.2738
 8495TIP3    H246977   5.835   2.526  15.133 -0.9786  1.0557  0.2750
 8496TIP3   OH246978   3.090   0.993  15.230  0.1851 -0.3051  0.7012
 8496TIP3    H146979   3.014   1.052  15.223  1.9262  2.0764  1.4066
 8496TIP3    H246980   3.052   0.905  15.220 -2.5430  0.8689  0.1219
 8497TIP3   OH246981   6.517   5.567  14.686  0.2397 -0.6276  0.1290
 8497TIP3    H146982   6.607   5.594  14.668 -0.4750  0.3329 -2.1765
 8497TIP3    H246983   6.522   5.520  14.770  2.4380  1.6635  1.3296
 8498TIP3   OH246984   1.430   5.763   4.493  0.3705  0.2169  0.5327
 8498TIP3    H146985   1.367   5.695   4.470 -0.0246  0.9284 -0.5720
 8498TIP3    H246986   1.512   5.735   4.452  0.0377  0.7352 -0.5065
 8499TIP3   OH246987   3.517   5.949   3.751  0.3568  0.0495 -0.1626
 8499TIP3    H146988   3.440   5.915   3.706 -0.2762 -0.3096  1.1514
 8499TIP3    H246989   3.547   6.022   3.697  1.5627 -2.3642 -2.8666
 8500TIP3   OH246990   5.577   0.485  16.006  0.1707  0.5661 -0.4675
 8500TIP3    H146991   5.523   0.460  15.931  0.4061 -0.9072 -0.1524
 8500TIP3    H246992   5.589   0.404  16.055  2.4961  0.9225 -0.4169
 8501TIP3   OH246993   0.669   3.455  14.663  0.3175  0.1678 -0.2030
 8501TIP3    H146994   0.728   3.427  14.732  0.0153  2.0631  0.8737
 8501TIP3    H246995   0.687   3.396  14.590  2.2309 -0.4333  0.7277
 8502TIP3   OH246996   5.617   4.224   4.155  0.6360  0.1480  0.4653
 8502TIP3    H146997   5.604   4.299   4.213 -0.2013  0.3577  0.0145
 8502TIP3    H246998   5.621   4.148   4.214 -0.9229  0.2804  0.7673
 8503TIP3   OH246999   1.349   2.873  16.354 -0.2388  0.2051  0.2725
 8503TIP3    H147000   1.388   2.910  16.276  0.3182 -0.8611  0.0306
 8503TIP3    H247001   1.351   2.943  16.419  0.1638  0.7907 -0.3773
 8504TIP3   OH247002   1.533   5.909  13.894 -0.0455 -0.5819 -0.3399
 8504TIP3    H147003   1.623   5.907  13.861 -0.5769 -1.1336 -1.8121
 8504TIP3    H247004   1.536   5.863  13.977  0.9791 -0.8377 -0.5166
 8505TIP3   OH247005   1.145   3.627  13.775  0.1774 -0.0411 -0.3712
 8505TIP3    H147006   1.112   3.691  13.712  0.9133 -0.2570 -0.9883
 8505TIP3    H247007   1.092   3.642  13.854 -0.2414  0.7413 -0.7864
 8506TIP3   OH247008   0.631   1.397   3.996  0.0074 -0.2024 -0.9854
 8506TIP3    H147009   0.653   1.415   4.088 -0.4909 -1.8039 -0.5312
 8506TIP3    H247010   0.535   1.401   3.993  0.1149  1.9477 -1.9037
 8507TIP3   OH247011   3.735   2.787   1.315  0.1143  0.2488  0.3076
 8507TIP3    H147012   3.687   2.806   1.396 -1.0681 -2.6234  0.3418
 8507TIP3    H247013   3.824   2.817   1.332 -0.0916 -0.4421  2.7418
 8508TIP3   OH247014   1.279   4.632  14.437 -0.0191  0.1269 -0.0727
 8508TIP3    H147015   1.193   4.673  14.446  0.0655  0.6133 -1.4041
 8508TIP3    H247016   1.263   4.539  14.454 -0.3124  0.5870  2.3504
 8509TIP3   OH247017   2.427   6.330  11.418  0.3767 -0.7302 -0.8969
 8509TIP3    H147018   2.473   6.250  11.443  0.6381  0.1392  1.5439
 8509TIP3    H247019   2.497   6.394  11.403  0.0609  0.2553  1.6212
 8510TIP3   OH247020   0.560   1.915   4.188  0.2309 -0.5975  0.1694
 8510TIP3    H147021   0.547   1.946   4.278 -1.7414  1.6828 -0.8406
 8510TIP3    H247022   0.652   1.934   4.170  0.7557 -1.4329  1.8272
 8511TIP3   OH247023   0.947   2.324  15.407 -0.2280  0.2014  0.6940
 8511TIP3    H147024   0.954   2.228  15.404 -0.8473  0.1587  0.6163
 8511TIP3    H247025   0.864   2.341  15.451 -0.0886  0.7053  0.7601
 8512TIP3   OH247026   2.722   4.763  13.174 -0.2643 -0.3805  0.1343
 8512TIP3    H147027   2.785   4.835  13.167  1.3479 -1.8275 -0.2865
 8512TIP3    H247028   2.642   4.798  13.134  1.0624  0.5344 -1.7953
 8513TIP3   OH247029   2.379   5.923  15.249 -0.1055 -0.1014 -0.4853
 8513TIP3    H147030   2.361   5.992  15.185  1.9441  0.3607 -0.5954
 8513TIP3    H247031   2.439   5.864  15.204 -2.7848 -2.7064 -0.8371
 8514TIP3   OH247032   0.455   3.098  13.702 -0.6021 -0.4409 -0.2654
 8514TIP3    H147033   0.421   3.035  13.766 -1.5745 -0.1186 -0.4603
 8514TIP3    H247034   0.532   3.055  13.665 -1.2342 -1.4919 -0.3684
 8515TIP3   OH247035   4.436   1.108   2.961 -0.2610  0.6921 -0.1626
 8515TIP3    H147036   4.400   1.045   3.024  0.2375  2.0381  1.5144
 8515TIP3    H247037   4.517   1.067   2.931 -1.5035 -0.8656 -1.4685
 8516TIP3   OH247038   0.954   4.777   3.202  0.2929  0.4245  0.0979
 8516TIP3    H147039   0.926   4.790   3.292  0.0730 -1.0800  0.2645
 8516TIP3    H247040   1.047   4.802   3.202  1.0038 -2.0721  1.3643
 8517TIP3   OH247041   6.461   1.636  13.403  0.2586  0.1120 -0.2178
 8517TIP3    H147042   6.517   1.713  13.412  0.4530  0.0482 -0.8412
 8517TIP3    H247043   6.387   1.652  13.461  1.5101 -0.3374  1.5387
 8518TIP3   OH247044   4.120   1.773  16.845 -0.0401  0.3383 -0.4344
 8518TIP3    H147045   4.148   1.861  16.820 -0.6785  0.7645  0.2917
 8518TIP3    H247046   4.026   1.772  16.827 -0.2735  0.2320  0.7253
 8519TIP3   OH247047   3.732   0.534  13.224 -0.1830  0.4528  0.1411
 8519TIP3    H147048   3.720   0.447  13.186 -0.2662  0.6395 -0.2640
 8519TIP3    H247049   3.798   0.522  13.292 -0.9781 -0.1353  0.8098
 8520TIP3   OH247050   5.422   4.284  11.477 -0.6263  0.1952 -0.3897
 8520TIP3    H147051   5.447   4.286  11.384 -0.7704 -0.3127 -0.4411
 8520TIP3    H247052   5.466   4.360  11.515  1.1277 -0.7612 -0.4415
 8521TIP3   OH247053   1.430   1.625   4.723  0.0938  0.2547 -0.1834
 8521TIP3    H147054   1.437   1.529   4.722 -1.8435  0.0908  0.1396
 8521TIP3    H247055   1.504   1.655   4.671 -0.3734 -1.4951 -1.9001
 8522TIP3   OH247056   4.670   5.492  13.904  0.0127  0.2092  0.3049
 8522TIP3    H147057   4.657   5.443  13.985 -0.1457  0.0379  0.1775
 8522TIP3    H247058   4.744   5.450  13.862 -0.5451 -0.3479 -0.1263
 8523TIP3   OH247059   1.953   3.176   1.727 -0.0952 -0.3022  0.0026
 8523TIP3    H147060   2.003   3.104   1.766  2.4819  1.0248 -0.7559
 8523TIP3    H247061   1.924   3.141   1.642 -1.5523 -1.4929  0.9537
 8524TIP3   OH247062   2.588   5.287   1.467  0.3196 -0.8514  0.9300
 8524TIP3    H147063   2.550   5.307   1.382 -1.1887  0.4370  1.8777
 8524TIP3    H247064   2.672   5.245   1.447 -0.5157 -1.5687 -1.1823
 8525TIP3   OH247065   0.870   6.154  12.854  0.1016  0.0005 -0.3316
 8525TIP3    H147066   0.941   6.218  12.851 -0.2714  0.5080  1.0789
 8525TIP3    H247067   0.812   6.178  12.782 -0.5257  1.8560  0.7695
 8526TIP3   OH247068   1.742   6.551  17.225 -0.0592 -0.3756 -0.1836
 8526TIP3    H147069   1.743   6.617  17.295 -0.4201  1.7595 -2.1463
 8526TIP3    H247070   1.833   6.543  17.198 -0.1492  0.0788 -0.6286
 8527TIP3   OH247071   5.235   4.879   2.253  0.0742  0.6538 -0.0225
 8527TIP3    H147072   5.259   4.956   2.202  0.0627  0.2855 -0.5839
 8527TIP3    H247073   5.190   4.821   2.191  0.5378 -0.0337  0.2690
 8528TIP3   OH247074   2.934   0.651   2.938  0.1195  0.1935  0.8641
 8528TIP3    H147075   2.984   0.570   2.945 -0.9412 -0.5710 -0.2644
 8528TIP3    H247076   2.972   0.697   2.863 -0.9691 -0.4644 -0.0962
 8529TIP3   OH247077   3.223   5.042  13.142 -0.0061  0.3150 -0.1380
 8529TIP3    H147078   3.201   5.102  13.213  0.8822  1.9305 -1.2067
 8529TIP3    H247079   3.318   5.027  13.152 -0.1691 -0.7012 -0.0479
 8530TIP3   OH247080   5.242   1.329  12.211  0.2215 -0.3874  0.3612
 8530TIP3    H147081   5.287   1.371  12.138 -0.4515 -0.4958 -0.1184
 8530TIP3    H247082   5.303   1.338  12.285  1.7856 -2.0779 -0.6843
 8531TIP3   OH247083   0.413   4.392   5.565  0.0720 -0.6918  0.3914
 8531TIP3    H147084   0.433   4.353   5.650  0.9880  1.8030  1.3667
 8531TIP3    H247085   0.467   4.344   5.503  1.1860 -0.9591  1.5487
 8532TIP3   OH247086   6.198   0.640  11.075 -0.1874  0.6476  0.3845
 8532TIP3    H147087   6.222   0.549  11.060  0.1612  0.6445  0.9689
 8532TIP3    H247088   6.104   0.643  11.059 -0.2859  0.0821  0.8452
 8533TIP3   OH247089   5.276   3.579  13.022 -0.1541  0.2453 -0.2822
 8533TIP3    H147090   5.242   3.615  12.940 -0.5765  0.7004  0.0844
 8533TIP3    H247091   5.319   3.653  13.064  1.3180 -0.3307 -0.7434
 8534TIP3   OH247092   6.135   5.362  14.526  0.3730 -0.5349 -0.3606
 8534TIP3    H147093   6.194   5.435  14.509  2.1152 -1.7662  0.2632
 8534TIP3    H247094   6.132   5.355  14.622 -1.5917  0.1499 -0.3565
 8535TIP3   OH247095   0.318   3.535  12.381  0.0572  0.1116 -0.0222
 8535TIP3    H147096   0.406   3.501  12.365  0.0840  0.4659 -0.6756
 8535TIP3    H247097   0.329   3.630  12.381 -0.4895  0.1942 -1.2127
 8536TIP3   OH247098   3.553   5.169   3.601  0.5768  0.3599  0.3549
 8536TIP3    H147099   3.495   5.155   3.676  0.9995 -0.2418  0.5771
 8536TIP3    H247100   3.501   5.144   3.525  0.7418 -0.7925  0.6057
 8537TIP3   OH247101   6.756   1.144  10.612  0.2351 -0.0010 -0.0393
 8537TIP3    H147102   6.806   1.209  10.662  0.9512 -2.1506  2.1611
 8537TIP3    H247103   6.815   1.117  10.542  0.8474 -0.0184  0.4794
 8538TIP3   OH247104   5.227   6.445   5.104 -0.4776 -0.0429 -0.6274
 8538TIP3    H147105   5.169   6.482   5.038  1.3600  0.3264 -2.0772
 8538TIP3    H247106   5.184   6.364   5.132 -1.2618 -0.2169 -2.3097
 8539TIP3   OH247107   1.996   5.876   2.506  0.4500  0.5353  0.3585
 8539TIP3    H147108   2.034   5.812   2.567 -0.5382 -0.4282 -0.0335
 8539TIP3    H247109   2.071   5.929   2.478  0.9308  0.9510  2.3500
 8540TIP3   OH247110   5.498   6.160  16.657 -0.5080  0.4822 -0.2119
 8540TIP3    H147111   5.592   6.148  16.670 -0.3390 -1.0369 -2.4616
 8540TIP3    H247112   5.467   6.201  16.738  1.9399  0.2593  0.8788
 8541TIP3   OH247113   4.828   2.484  14.017  0.3155  1.1782 -0.4434
 8541TIP3    H147114   4.799   2.473  13.926 -1.0469  1.8915 -0.1151
 8541TIP3    H247115   4.870   2.402  14.039  3.2231  2.0183 -2.6297
 8542TIP3   OH247116   6.053   0.432  11.911 -0.4206  0.3247  0.1044
 8542TIP3    H147117   6.099   0.443  11.828  0.0336  1.9471  0.5511
 8542TIP3    H247118   5.983   0.370  11.891 -0.2649  0.6240 -1.4665
 8543TIP3   OH247119   3.163   2.635   5.990  0.4846  0.1141  0.0363
 8543TIP3    H147120   3.177   2.728   5.975  0.1879  0.4467  1.7810
 8543TIP3    H247121   3.077   2.617   5.953  0.1922  0.6991  0.4426
 8544TIP3   OH247122   3.892   5.734  16.318  0.1638  1.0170  0.2009
 8544TIP3    H147123   3.945   5.735  16.398  0.5223 -1.4110  0.0301
 8544TIP3    H247124   3.858   5.645  16.313 -1.1371  1.5856 -1.5434
 8545TIP3   OH247125   1.677   1.805  14.980 -0.4121  0.5097  0.4530
 8545TIP3    H147126   1.725   1.884  15.006  0.4088  1.1518 -2.7352
 8545TIP3    H247127   1.735   1.733  15.005  1.2856  1.1933 -1.3270
 8546TIP3   OH247128   6.143   3.201  15.969  0.0604 -0.6023 -0.0518
 8546TIP3    H147129   6.229   3.240  15.986 -0.5526  1.6947 -1.9294
 8546TIP3    H247130   6.082   3.256  16.019 -0.7083  0.1610 -1.8172
 8547TIP3   OH247131   4.761   5.467  14.377 -0.2342  0.5127 -0.5605
 8547TIP3    H147132   4.699   5.508  14.317  0.8204 -0.1920 -2.1679
 8547TIP3    H247133   4.843   5.463  14.327 -0.1145 -2.8967 -0.1747
 8548TIP3   OH247134   0.472   3.535   5.042  0.7711 -0.4716 -0.1876
 8548TIP3    H147135   0.435   3.485   5.114 -0.5063  1.3508  0.4758
 8548TIP3    H247136   0.408   3.605   5.027  2.7640  1.2854 -0.6911
 8549TIP3   OH247137   5.505   1.545   5.030  0.1580  0.1368 -0.2592
 8549TIP3    H147138   5.484   1.562   4.938 -1.5176 -2.5340 -0.4100
 8549TIP3    H247139   5.438   1.484   5.059  1.5400 -0.2015  2.3522
 8550TIP3   OH247140   4.418   5.389   1.985  0.1108  0.0119  0.1245
 8550TIP3    H147141   4.388   5.411   2.074 -0.8654 -0.6567 -0.0259
 8550TIP3    H247142   4.474   5.312   1.998 -0.2236 -0.2336  0.1496
 8551TIP3   OH247143   3.486   1.837  15.243 -0.2155  0.6048 -0.0322
 8551TIP3    H147144   3.481   1.886  15.325  1.9678 -1.5460  1.4652
 8551TIP3    H247145   3.446   1.894  15.178 -0.2295  3.1735  2.1681
 8552TIP3   OH247146   3.285   3.824  15.112  0.4163 -0.0502 -0.1426
 8552TIP3    H147147   3.215   3.889  15.113 -0.3920 -0.8949 -0.9983
 8552TIP3    H247148   3.308   3.811  15.204  0.8778  1.7412  0.0213
 8553TIP3   OH247149   2.263   4.079  11.785 -0.2150  0.8644  0.2307
 8553TIP3    H147150   2.310   4.150  11.743  2.9573 -0.5209  1.2591
 8553TIP3    H247151   2.260   4.103  11.878  0.4787 -0.1294  0.5152
 8554TIP3   OH247152   3.304   0.817   0.783 -0.3369  0.3453 -0.1889
 8554TIP3    H147153   3.256   0.893   0.750  0.2333  0.4040 -0.9107
 8554TIP3    H247154   3.349   0.848   0.861 -1.2241  0.3708  0.3170
 8555TIP3   OH247155   6.600   5.067   2.526  0.7627  0.9466 -0.1818
 8555TIP3    H147156   6.643   5.029   2.603  0.5984  0.4406 -0.3422
 8555TIP3    H247157   6.560   4.993   2.482 -0.5761  1.4613  0.1586
 8556TIP3   OH247158   5.457   1.113   6.011 -0.2717  0.0213  0.5201
 8556TIP3    H147159   5.509   1.184   6.049  0.3677 -0.2480  0.1484
 8556TIP3    H247160   5.464   1.126   5.916  0.6649 -1.1227  0.4230
 8557TIP3   OH247161   3.091   6.794   6.001 -0.0764 -0.5675 -0.4011
 8557TIP3    H147162   3.127   6.814   6.087  0.3627  0.2386 -0.7752
 8557TIP3    H247163   3.150   6.728   5.965  1.2044  0.9537 -1.1308
 8558TIP3   OH247164   3.829   5.016   0.079 -0.1667  0.5273 -0.3581
 8558TIP3    H147165   3.920   4.994   0.098 -0.1776  0.9477  0.2034
 8558TIP3    H247166   3.813   4.980  -0.009 -0.3845 -2.2368  0.7720
 8559TIP3   OH247167   1.503   6.228  15.827  0.2467 -0.6409 -0.1235
 8559TIP3    H147168   1.565   6.180  15.881  0.0619 -1.5102 -0.6677
 8559TIP3    H247169   1.441   6.266  15.889  0.4658 -1.0100  0.3232
 8560TIP3   OH247170   2.724   3.147  15.636 -0.1181  0.4007  0.0760
 8560TIP3    H147171   2.735   3.233  15.596 -1.0280  0.0818 -0.8699
 8560TIP3    H247172   2.630   3.137  15.646  0.0192 -0.2292  0.7612
 8561TIP3   OH247173   4.611   1.544  14.358  0.0845  0.1955 -0.0579
 8561TIP3    H147174   4.584   1.453  14.345  0.7771 -0.1196  0.6824
 8561TIP3    H247175   4.574   1.591  14.283  1.2226 -0.9986 -1.3961
 8562TIP3   OH247176   1.974   6.562   0.211 -0.4205  0.5165 -0.1747
 8562TIP3    H147177   1.893   6.613   0.220  0.2422  1.2350  1.9201
 8562TIP3    H247178   2.016   6.598   0.133 -0.7914  2.0392  0.3115
 8563TIP3   OH247179   5.570   2.614  15.548 -0.7035  0.4078  0.2348
 8563TIP3    H147180   5.524   2.583  15.626 -0.4224  0.9619  0.6252
 8563TIP3    H247181   5.535   2.702  15.534 -1.5059 -0.0629 -0.8683
 8564TIP3   OH247182   4.971   0.552  11.661  0.1445 -0.3207 -0.2924
 8564TIP3    H147183   4.902   0.614  11.683 -1.1200 -1.0173 -2.2276
 8564TIP3    H247184   5.007   0.526  11.746 -0.4144  1.7855  0.6232
 8565TIP3   OH247185   1.824   2.190  13.992  0.8691  0.0189 -0.2193
 8565TIP3    H147186   1.748   2.156  14.038 -0.2665  0.5993 -1.6433
 8565TIP3    H247187   1.882   2.115  13.982 -0.7388 -1.0548 -1.5792
 8566TIP3   OH247188   3.749   5.072  10.742  0.0756 -0.3512 -0.2006
 8566TIP3    H147189   3.660   5.099  10.718 -0.4460 -3.2940 -1.8784
 8566TIP3    H247190   3.806   5.119  10.682 -0.3713  0.9264  0.3495
 8567TIP3   OH247191   2.787   3.313   6.043 -0.2032  0.2001 -0.1034
 8567TIP3    H147192   2.793   3.218   6.028 -0.7432  0.2897 -0.9089
 8567TIP3    H247193   2.782   3.322   6.138 -0.8127 -0.6263 -0.0487
 8568TIP3   OH247194   4.880   4.834  11.429 -0.0727 -0.0104  0.1182
 8568TIP3    H147195   4.954   4.894  11.422  0.4960 -0.7330 -0.1345
 8568TIP3    H247196   4.842   4.832  11.341  0.5864 -0.8735 -0.1521
 8569TIP3   OH247197   4.167   6.008   2.327 -0.4647 -0.5149 -0.5829
 8569TIP3    H147198   4.226   6.073   2.290  0.0603  0.1702  1.4408
 8569TIP3    H247199   4.083   6.054   2.334  0.0000  0.1092  1.2132
 8570TIP3   OH247200   1.840   4.044   4.010  0.0866  0.2330  0.0109
 8570TIP3    H147201   1.812   4.112   4.072  1.0710 -1.4628  2.4032
 8570TIP3    H247202   1.920   4.078   3.971  1.7639 -0.3598  2.7718
 8571TIP3   OH247203   3.835   3.949  15.907 -0.5359 -0.3508 -0.1269
 8571TIP3    H147204   3.780   3.930  15.983 -0.6909  1.1009  0.1404
 8571TIP3    H247205   3.925   3.940  15.939 -0.5699  1.7647  0.6705
 8572TIP3   OH247206   5.065   3.119  17.199  0.2514 -0.5538 -0.2157
 8572TIP3    H147207   5.006   3.047  17.221  0.4888 -1.1592 -1.4916
 8572TIP3    H247208   5.116   3.086  17.124  0.1122  1.0585 -1.0477
 8573TIP3   OH247209   4.993   1.468  11.979  0.8179  0.2146 -0.1766
 8573TIP3    H147210   5.003   1.382  11.939  0.3717  1.0012 -1.9810
 8573TIP3    H247211   4.917   1.506  11.937  1.2685  1.6737  0.3031
 8574TIP3   OH247212   6.307   0.116   0.964  0.4974  0.1936  0.0927
 8574TIP3    H147213   6.282   0.104   0.873 -0.0940  0.2183  0.2492
 8574TIP3    H247214   6.392   0.072   0.972  0.3607 -0.1541 -0.3716
 8575TIP3   OH247215   4.580   4.889  13.781 -0.0927 -0.2122 -0.8661
 8575TIP3    H147216   4.515   4.848  13.723 -0.1488  0.1203 -1.0419
 8575TIP3    H247217   4.635   4.941  13.722 -0.7852  0.9555 -0.5037
 8576TIP3   OH247218   0.858   0.899   4.207 -0.7434  0.3517 -0.3642
 8576TIP3    H147219   0.865   0.859   4.293 -1.2518 -0.3825 -0.6523
 8576TIP3    H247220   0.933   0.958   4.201 -0.9099  0.6803  0.7140
 8577TIP3   OH247221   3.113   5.818   5.725 -0.1997 -0.2063  0.0643
 8577TIP3    H147222   3.030   5.817   5.677 -0.8139  0.2819  1.1058
 8577TIP3    H247223   3.114   5.734   5.771 -0.1450 -0.1734  0.1220
 8578TIP3   OH247224   5.737   1.789   2.566 -0.0524 -0.6501  0.0787
 8578TIP3    H147225   5.831   1.793   2.582 -0.0190  1.6715 -0.5462
 8578TIP3    H247226   5.697   1.799   2.653  0.2697 -0.4806  0.2068
 8579TIP3   OH247227   4.999   3.091  16.752  0.0175  0.2730 -0.0715
 8579TIP3    H147228   4.938   3.032  16.797  0.0562 -0.4297 -0.9284
 8579TIP3    H247229   4.957   3.177  16.758 -0.5371 -0.0180  0.2835
 8580TIP3   OH247230   0.642   2.789  13.911  0.0059  0.3948 -0.8301
 8580TIP3    H147231   0.567   2.780  13.970  1.2626  0.3282  0.8164
 8580TIP3    H247232   0.606   2.774  13.824 -1.9812  0.8331 -0.1232
 8581TIP3   OH247233   5.111   0.477  14.288 -0.2799  0.4634  0.2121
 8581TIP3    H147234   5.081   0.453  14.200  0.1392  0.2953  0.1159
 8581TIP3    H247235   5.203   0.451  14.290 -0.2512  0.6014  0.6524
 8582TIP3   OH247236   0.552   4.032   0.086  0.0682  0.0513 -0.5748
 8582TIP3    H147237   0.507   4.033   0.170 -2.6323  0.4637 -1.9856
 8582TIP3    H247238   0.644   4.045   0.108 -0.8028  1.8754  2.1680
 8583TIP3   OH247239   5.828   1.283  14.180 -0.4608  0.0828  0.6060
 8583TIP3    H147240   5.811   1.373  14.150  1.3875  1.0332  2.2990
 8583TIP3    H247241   5.758   1.266  14.243 -0.4851  0.5534  0.7095
 8584TIP3   OH247242   2.980   0.967   4.217 -0.3572  0.4322  0.4557
 8584TIP3    H147243   2.920   1.017   4.272  0.4001 -0.9725  2.6736
 8584TIP3    H247244   3.061   0.964   4.268  0.8975  0.4429 -1.4918
 8585TIP3   OH247245   2.485   2.739   5.067 -0.1427  0.1458 -0.2144
 8585TIP3    H147246   2.538   2.800   5.118 -0.1124 -0.0415 -0.0220
 8585TIP3    H247247   2.402   2.735   5.115  0.5935 -1.6132  0.9798
 8586TIP3   OH247248   3.303   0.102   3.366 -0.0752 -0.0699  0.6801
 8586TIP3    H147249   3.331   0.084   3.276 -1.1101  1.5063  0.0260
 8586TIP3    H247250   3.232   0.040   3.382 -0.9620  0.7046 -0.1652
 8587TIP3   OH247251   6.577   4.991  15.986 -0.4263 -0.2055  0.1848
 8587TIP3    H147252   6.590   4.998  16.081  0.6174 -2.7059  0.2560
 8587TIP3    H247253   6.622   5.067  15.950 -1.3496  1.1078  1.7233
 8588TIP3   OH247254   5.044   5.121  12.328 -0.2266 -0.0569 -0.6077
 8588TIP3    H147255   5.052   5.084  12.240  1.1968  2.8019 -1.7345
 8588TIP3    H247256   5.133   5.117  12.364 -0.3268  0.9692 -0.2324
 8589TIP3   OH247257   0.288   5.902   0.278 -0.0272 -0.4627  0.1574
 8589TIP3    H147258   0.246   5.823   0.311  1.3479 -1.0247  0.6366
 8589TIP3    H247259   0.307   5.884   0.186  0.9190 -0.9827  0.4451
 8590TIP3   OH247260   0.303   5.984   3.172 -0.9627  0.1947 -0.1733
 8590TIP3    H147261   0.348   5.964   3.254 -0.9776 -0.4575 -0.3257
 8590TIP3    H247262   0.219   5.938   3.179 -0.7127 -0.3607 -0.8161
 8591TIP3   OH247263   5.305   5.540  11.773 -0.2175  0.0144 -0.2669
 8591TIP3    H147264   5.326   5.449  11.757 -0.9175 -0.2019  0.0046
 8591TIP3    H247265   5.248   5.565  11.700 -1.1792 -0.1816  0.4086
 8592TIP3   OH247266   2.079   3.164  13.117  0.3649  0.6378 -0.1099
 8592TIP3    H147267   2.011   3.210  13.167  0.1392  0.1834  0.0001
 8592TIP3    H247268   2.039   3.150  13.030  1.2445  2.6265 -0.8653
 8593TIP3   OH247269   5.220   5.442   4.038 -0.2600 -0.3360  0.4789
 8593TIP3    H147270   5.257   5.378   3.977 -0.2976  0.1839 -0.0897
 8593TIP3    H247271   5.296   5.475   4.086 -0.0787  0.1218 -0.1122
 8594TIP3   OH247272   6.742   4.869  14.250 -0.0547  0.0154 -0.6585
 8594TIP3    H147273   6.723   4.798  14.312 -1.9063 -0.6854 -1.9568
 8594TIP3    H247274   6.783   4.825  14.175 -1.0914  0.3002 -1.4113
 8595TIP3   OH247275   1.944   1.013   4.195 -0.6494  0.0929  0.1813
 8595TIP3    H147276   2.011   1.022   4.263  0.5255 -1.1048 -0.7999
 8595TIP3    H247277   1.906   1.100   4.187  1.3299  0.9829  0.1822
 8596TIP3   OH247278   0.229   2.563   2.364  0.8566  0.2657  0.4017
 8596TIP3    H147279   0.138   2.542   2.388  0.0927  1.9463 -0.8924
 8596TIP3    H247280   0.268   2.596   2.445  0.2129 -0.1141  0.8750
 8597TIP3   OH247281   3.399   1.648   4.833 -0.0910  0.4930  0.2819
 8597TIP3    H147282   3.334   1.598   4.882  0.2531 -0.7167 -0.4777
 8597TIP3    H247283   3.465   1.583   4.806  0.4721  1.3829 -0.5331
 8598TIP3   OH247284   0.621   0.097  12.706  0.9641 -0.1932  0.3065
 8598TIP3    H147285   0.613   0.053  12.622  0.5578 -1.1437  0.8263
 8598TIP3    H247286   0.593   0.031  12.770  2.7625 -0.0063  1.3248
 8599TIP3   OH247287   0.061   4.297  13.115 -0.2372  0.3662  0.4557
 8599TIP3    H147288   0.088   4.388  13.126 -2.2918  1.1831 -0.9853
 8599TIP3    H247289  -0.032   4.296  13.138 -0.6828 -1.0056 -1.2751
 8600TIP3   OH247290   0.577   0.127   2.706 -0.0617  0.2689  0.1605
 8600TIP3    H147291   0.639   0.055   2.720  0.1751  0.6120  0.8788
 8600TIP3    H247292   0.630   0.196   2.666 -0.6243 -0.5218 -2.0147
 8601TIP3   OH247293   3.957   0.426  12.002 -0.8361 -0.6301 -0.7653
 8601TIP3    H147294   3.984   0.515  11.981  0.0030 -0.7763 -0.3408
 8601TIP3    H247295   3.945   0.427  12.097 -2.1259 -0.6251 -0.9225
 8602TIP3   OH247296   6.134   0.532   2.766 -0.4645 -0.0213 -0.5942
 8602TIP3    H147297   6.186   0.584   2.828  0.2938 -0.2773 -1.0165
 8602TIP3    H247298   6.171   0.444   2.772 -2.5562 -0.8379  1.0607
 8603TIP3   OH247299   0.612   5.187  11.487  0.1043  0.3853  0.5714
 8603TIP3    H147300   0.640   5.102  11.521  1.5347  1.6983  2.7942
 8603TIP3    H247301   0.523   5.198  11.520 -0.4041 -0.6184 -0.4441
 8604TIP3   OH247302   3.752   1.042  15.373  0.4754 -0.1498 -0.6552
 8604TIP3    H147303   3.768   0.950  15.398  3.3758  0.3235 -0.5659
 8604TIP3    H247304   3.786   1.049  15.284  0.2624  0.8262 -0.6614
 8605TIP3   OH247305   2.486   1.276   5.269  0.7092  0.1529  0.1102
 8605TIP3    H147306   2.453   1.222   5.197  0.8856 -3.1670  2.3919
 8605TIP3    H247307   2.416   1.338   5.287 -0.1900 -0.3494 -1.5406
 8606TIP3   OH247308   4.945   4.349  12.775 -0.2201  0.3698  0.4624
 8606TIP3    H147309   5.025   4.302  12.798  0.3347  0.9612 -0.2553
 8606TIP3    H247310   4.892   4.285  12.728  0.1865  0.2243  0.2027
 8607TIP3   OH247311   0.990   2.651  12.648  0.1874  0.1318  0.0697
 8607TIP3    H147312   1.057   2.593  12.613  0.1472  0.2588 -0.2176
 8607TIP3    H247313   0.908   2.605  12.632  0.1939  0.0468  0.2805
 8608TIP3   OH247314   1.793   3.174  12.796  0.0449 -0.3229 -0.0922
 8608TIP3    H147315   1.767   3.227  12.721  1.1742  1.6781  0.8985
 8608TIP3    H247316   1.714   3.166  12.849 -0.2076  0.1120 -0.3998
 8609TIP3   OH247317   2.265   1.119  10.744  0.0191 -0.6969 -0.2382
 8609TIP3    H147318   2.334   1.140  10.806 -0.8465  0.0917  0.4700
 8609TIP3    H247319   2.209   1.197  10.742  1.0732  0.0729 -3.4627
 8610TIP3   OH247320   5.736   1.731   1.105  0.0683 -0.0603 -0.1771
 8610TIP3    H147321   5.749   1.663   1.172  0.6591  0.6412  0.4387
 8610TIP3    H247322   5.671   1.694   1.046  0.6085 -1.2986 -0.0309
 8611TIP3   OH247323   2.600   2.260   6.470  0.6028  0.4740  0.2791
 8611TIP3    H147324   2.692   2.240   6.454  0.3566  0.3980 -1.1004
 8611TIP3    H247325   2.554   2.178   6.449  0.1711  0.6918  0.3704
 8612TIP3   OH247326   4.233   0.793  12.032 -0.3000 -0.0856 -0.2734
 8612TIP3    H147327   4.234   0.859  11.963 -0.4904 -0.6949 -0.8671
 8612TIP3    H247328   4.269   0.715  11.991 -0.0258 -0.3396  0.4397
 8613TIP3   OH247329   4.353   5.282  16.284  0.3577  0.1795 -0.0896
 8613TIP3    H147330   4.259   5.263  16.282  0.5122 -0.5886 -0.2935
 8613TIP3    H247331   4.393   5.207  16.239  1.1319  0.0832  0.7482
 8614TIP3   OH247332   3.862   6.405  15.355 -0.0565 -0.0438 -0.1115
 8614TIP3    H147333   3.938   6.447  15.395 -0.4782  0.5204  0.1063
 8614TIP3    H247334   3.880   6.311  15.362  0.4143  0.0767  0.3473
 8615TIP3   OH247335   3.962   1.155  15.189 -0.5188 -0.0948 -0.5614
 8615TIP3    H147336   3.953   1.085  15.123 -0.6410 -0.2080 -0.4265
 8615TIP3    H247337   4.016   1.116  15.258 -1.0786 -0.2586 -0.2102
 8616TIP3   OH247338   5.620   1.334   6.717  0.1660  0.1771 -0.4754
 8616TIP3    H147339   5.531   1.312   6.687  0.3512 -1.9124  0.4201
 8616TIP3    H247340   5.673   1.335   6.638 -0.3187 -0.2702 -0.8038
 8617TIP3   OH247341   0.145   1.092  15.680  0.4770  0.4514 -0.4813
 8617TIP3    H147342   0.129   1.137  15.597  1.4471  0.7610 -0.5054
 8617TIP3    H247343   0.239   1.071  15.678  0.8195  1.7126  1.1581
 8618TIP3   OH247344   6.496   2.336  15.962  0.1266  0.1740  1.0737
 8618TIP3    H147345   6.451   2.381  15.891  0.6610 -0.7085  0.1685
 8618TIP3    H247346   6.505   2.403  16.031  0.2793  1.2450  0.0249
 8619TIP3   OH247347   5.005   3.999  16.592 -0.5608  0.3413  0.5389
 8619TIP3    H147348   5.021   4.079  16.542  1.3500 -0.9601 -1.0283
 8619TIP3    H247349   5.033   4.020  16.681  0.0635  1.3527  0.1112
 8620TIP3   OH247350   4.477   6.053  14.237 -0.6640  0.0878 -0.3410
 8620TIP3    H147351   4.396   6.006  14.217 -0.4757  0.0530 -1.0406
 8620TIP3    H247352   4.546   6.003  14.193 -0.3524  0.5033 -0.3295
 8621TIP3   OH247353   2.552   2.056  13.650 -0.0743  0.7539  0.0448
 8621TIP3    H147354   2.491   2.086  13.717  0.5824  1.5652  0.2974
 8621TIP3    H247355   2.638   2.081  13.684  0.4940 -1.3582  0.2061
 8622TIP3   OH247356   2.064   3.503   0.527 -1.0800  0.0935 -0.3586
 8622TIP3    H147357   2.047   3.556   0.449  0.6341  3.3512  1.3637
 8622TIP3    H247358   2.014   3.547   0.597 -1.1640 -1.7021  0.7384
 8623TIP3   OH247359   3.968   5.392  14.285 -0.5380 -0.0681 -0.2534
 8623TIP3    H147360   3.875   5.395  14.308 -0.3055 -1.0910  0.8849
 8623TIP3    H247361   3.973   5.332  14.211 -0.9410  1.0117 -1.1661
 8624TIP3   OH247362   0.913   1.052  10.784  0.7468 -0.3778  0.4346
 8624TIP3    H147363   0.895   1.135  10.739  0.2731 -0.1501  1.0273
 8624TIP3    H247364   0.859   0.988  10.737 -0.1475 -0.0479  0.9868
 8625TIP3   OH247365   5.584   2.813   1.699 -0.1022  0.7194 -0.1644
 8625TIP3    H147366   5.540   2.899   1.701  0.4098  0.9818 -0.1305
 8625TIP3    H247367   5.512   2.750   1.699 -0.4808  1.1436  0.1642
 8626TIP3   OH247368   1.977   0.309  16.453 -0.1188 -0.6015  0.2045
 8626TIP3    H147369   2.044   0.359  16.500  1.3699 -2.2528 -0.1068
 8626TIP3    H247370   1.907   0.298  16.518  0.3695  0.2097  0.8890
 8627TIP3   OH247371   1.086   0.448   1.679 -0.0879  0.1427  0.4488
 8627TIP3    H147372   1.179   0.464   1.662  0.0550  0.5740  1.6426
 8627TIP3    H247373   1.083   0.358   1.711 -0.3484 -0.6420 -1.6803
 8628TIP3   OH247374   6.379   2.040  12.576 -0.1399  0.2732 -0.6633
 8628TIP3    H147375   6.366   2.055  12.482  0.1324  2.5150 -0.3749
 8628TIP3    H247376   6.296   2.063  12.616  0.7401  2.5727 -0.0582
 8629TIP3   OH247377   3.079   6.464   6.145 -0.0795 -0.3766 -0.0167
 8629TIP3    H147378   2.988   6.472   6.114 -0.5270 -1.5444  0.9567
 8629TIP3    H247379   3.114   6.390   6.096  0.0576 -0.5192  0.3002
 8630TIP3   OH247380   4.371   5.802   2.335 -0.2588  0.1931  0.3225
 8630TIP3    H147381   4.360   5.763   2.421  0.1170  0.0514  0.3111
 8630TIP3    H247382   4.304   5.869   2.329 -0.1666  0.3276  0.8008
 8631TIP3   OH247383   3.872   3.303   2.847  0.4665  0.3804 -0.2250
 8631TIP3    H147384   3.838   3.337   2.764  2.6925  2.1791 -0.4587
 8631TIP3    H247385   3.801   3.318   2.910 -1.1502 -0.8091 -1.7438
 8632TIP3   OH247386   4.426   0.203   4.604  0.4244  0.2828  0.1060
 8632TIP3    H147387   4.358   0.179   4.667  0.8826 -0.0619  0.4722
 8632TIP3    H247388   4.385   0.270   4.550  0.4794  1.5557  1.6210
 8633TIP3   OH247389   6.361   5.776   0.385  0.2678  0.0239  0.2601
 8633TIP3    H147390   6.359   5.754   0.478  1.8102  1.8242  0.7629
 8633TIP3    H247391   6.311   5.707   0.342 -2.8903  0.6771  2.7265
 8634TIP3   OH247392   2.234   2.029  15.880  0.2976  0.4813  0.1551
 8634TIP3    H147393   2.199   1.987  15.801  3.3781 -3.2761  0.6210
 8634TIP3    H247394   2.275   2.110  15.848 -1.4930  0.7623 -1.5443
 8635TIP3   OH247395   0.118   6.344  13.715  0.1928 -0.5041  0.5603
 8635TIP3    H147396   0.160   6.418  13.670 -1.4750  0.8224  1.1461
 8635TIP3    H247397   0.161   6.341  13.800 -0.5366  0.5389  0.9724
 8636TIP3   OH247398   0.974   4.023  14.947  0.1458  0.1255  0.4157
 8636TIP3    H147399   1.069   4.027  14.956  0.1653  0.6087  0.0243
 8636TIP3    H247400   0.948   4.113  14.930 -0.5023  0.1692  1.6465
 8637TIP3   OH247401   1.909   4.815  12.231  0.1852 -0.1876  0.1064
 8637TIP3    H147402   1.967   4.817  12.308 -1.1298 -0.1142  1.1119
 8637TIP3    H247403   1.847   4.886  12.247 -0.3866 -0.4790 -0.8148
 8638TIP3   OH247404   0.197   3.645   2.966  0.2344 -0.1002 -0.1163
 8638TIP3    H147405   0.245   3.577   2.920 -0.8644 -1.5456  0.8471
 8638TIP3    H247406   0.134   3.598   3.021 -0.1398  1.6571  1.0097
 8639TIP3   OH247407   5.946   0.730   1.537  0.2016 -0.2537  0.1807
 8639TIP3    H147408   5.874   0.667   1.537  0.0857 -0.1245 -0.1299
 8639TIP3    H247409   6.018   0.686   1.582 -0.1002 -0.3513  0.5619
 8640TIP3   OH247410   2.659   2.984  15.853 -0.2601 -0.7235  0.0961
 8640TIP3    H147411   2.564   2.986  15.866 -0.2427  1.2297 -0.0067
 8640TIP3    H247412   2.673   3.025  15.768  0.6853 -0.8674  0.1720
 8641TIP3   OH247413   5.840   6.658  11.883  0.0538  0.1628  0.0839
 8641TIP3    H147414   5.782   6.620  11.949 -0.4826 -1.7382 -1.3974
 8641TIP3    H247415   5.897   6.586  11.858 -1.1219  0.1925 -2.9814
 8642TIP3   OH247416   2.302   4.888   4.148 -0.8516  0.9791  0.2290
 8642TIP3    H147417   2.338   4.888   4.060 -0.7122  0.3927  0.2856
 8642TIP3    H247418   2.376   4.913   4.204 -0.3101 -1.0378  0.4318
 8643TIP3   OH247419   1.674   2.603  10.939  0.5444  0.3708 -0.2140
 8643TIP3    H147420   1.628   2.520  10.949  1.8136 -0.5093 -1.3715
 8643TIP3    H247421   1.605   2.668  10.931 -0.4874 -0.7006 -0.2630
 8644TIP3   OH247422   0.125   1.650   0.203  0.5885 -0.1493  0.7295
 8644TIP3    H147423   0.209   1.632   0.159  0.6166  1.5672  0.0732
 8644TIP3    H247424   0.140   1.731   0.252 -0.7353  0.2467  0.4916
 8645TIP3   OH247425   2.811   3.240   2.191 -0.0449 -0.3210 -0.1865
 8645TIP3    H147426   2.828   3.284   2.274  0.3780 -0.7239 -0.0606
 8645TIP3    H247427   2.897   3.218   2.157 -0.1622  0.7700 -1.2437
 8646TIP3   OH247428   0.834   1.911  17.274 -0.0713 -0.1798  0.2213
 8646TIP3    H147429   0.914   1.873  17.238  0.7581  1.1998  0.5906
 8646TIP3    H247430   0.861   1.951  17.356 -1.2319 -0.0981  0.5695
 8647TIP3   OH247431   1.038   6.206   1.211 -1.0062 -0.2075  0.0513
 8647TIP3    H147432   1.058   6.296   1.238  2.7163 -1.2342  0.9915
 8647TIP3    H247433   1.017   6.160   1.292 -1.8020 -0.4764 -0.3008
 8648TIP3   OH247434   5.134   3.299  14.432  0.4041  0.5423  0.1435
 8648TIP3    H147435   5.086   3.225  14.396 -1.6955  1.7470  0.3741
 8648TIP3    H247436   5.126   3.367  14.364  0.6318  1.1896  0.7556
 8649TIP3   OH247437   1.893   2.858  10.955  0.4661 -0.2597  0.3808
 8649TIP3    H147438   1.834   2.844  11.029 -0.0067  0.6983  0.1910
 8649TIP3    H247439   1.907   2.953  10.953 -1.7733  0.0456 -2.4814
 8650TIP3   OH247440   5.664   2.193  15.503  0.1104  0.2806  0.1766
 8650TIP3    H147441   5.664   2.271  15.446  0.0467 -0.2885 -0.6060
 8650TIP3    H247442   5.575   2.159  15.498 -0.0536  0.5663  1.0924
 8651TIP3   OH247443   3.119   3.389   6.069  0.3175  0.1349 -0.7905
 8651TIP3    H147444   3.211   3.407   6.049  0.7622 -2.0349 -0.7555
 8651TIP3    H247445   3.096   3.315   6.014 -1.8514  1.5500 -1.8366
 8652TIP3   OH247446   3.590   5.038   2.760  0.7796  0.1278 -0.3551
 8652TIP3    H147447   3.543   5.052   2.679 -0.1786 -2.4802 -0.2849
 8652TIP3    H247448   3.522   5.032   2.827  1.3466 -0.9378  0.1441
 8653TIP3   OH247449   3.156   2.944  16.420 -0.1383  0.1040 -0.4734
 8653TIP3    H147450   3.178   2.949  16.513  0.3498 -1.2683 -0.5052
 8653TIP3    H247451   3.084   2.881  16.416  0.8052 -0.9352 -1.1890
 8654TIP3   OH247452   3.370   3.525   3.150  0.6137  0.1491 -0.2170
 8654TIP3    H147453   3.421   3.605   3.162 -1.8771  1.8816 -0.9258
 8654TIP3    H247454   3.346   3.525   3.057  1.3030 -1.8934 -0.4354
 8655TIP3   OH247455   2.889   4.980   1.303  0.0844  0.2777  0.5643
 8655TIP3    H147456   2.818   4.980   1.368  1.0724  0.2937  1.6696
 8655TIP3    H247457   2.857   4.924   1.233 -1.4636  1.1378  0.5500
 8656TIP3   OH247458   0.486   5.543  12.172  0.0023 -0.3840  0.5994
 8656TIP3    H147459   0.453   5.594  12.097 -1.1299 -0.8227  0.7849
 8656TIP3    H247460   0.581   5.548  12.164 -0.0602  2.0920  0.8245
 8657TIP3   OH247461   1.638   3.311  14.219  0.5960 -0.1041  0.2127
 8657TIP3    H147462   1.732   3.313  14.201  0.5563  0.0815  0.0222
 8657TIP3    H247463   1.605   3.394  14.185  0.5145  0.2344  1.1277
 8658TIP3   OH247464   3.757   3.632   3.053 -0.1875  0.3610 -0.0882
 8658TIP3    H147465   3.680   3.660   3.004  0.3723  0.0008 -1.1937
 8658TIP3    H247466   3.752   3.537   3.055  0.6687  0.2930 -0.9069
 8659TIP3   OH247467   6.561   1.156   2.923 -0.1402  0.3681 -0.8407
 8659TIP3    H147468   6.489   1.108   2.882 -1.3103  0.3257  1.2233
 8659TIP3    H247469   6.602   1.092   2.981  0.5654  0.8553 -0.7987
 8660TIP3   OH247470   1.048   2.301   4.678  0.1700  0.1166  0.0424
 8660TIP3    H147471   1.120   2.340   4.727  1.0160 -0.0439 -1.0496
 8660TIP3    H247472   1.091   2.247   4.611 -0.9600 -1.5950  0.6432
 8661TIP3   OH247473   3.481   2.979  16.994 -0.2593 -0.3053  0.0093
 8661TIP3    H147474   3.402   2.989  17.048  0.5067  1.2491  0.8976
 8661TIP3    H247475   3.457   3.016  16.909 -0.6644 -0.3837  0.0900
 8662TIP3   OH247476   0.115   2.073  16.393 -0.5398  0.2555  0.3459
 8662TIP3    H147477   0.165   1.995  16.414 -1.5516 -1.0361 -1.8538
 8662TIP3    H247478   0.179   2.136  16.360  0.0224 -0.3313  0.3286
 8663TIP3   OH247479   3.173   3.687  11.033  0.3730  0.1631  0.6780
 8663TIP3    H147480   3.196   3.611  11.085  0.6581 -0.2467 -0.0376
 8663TIP3    H247481   3.241   3.752  11.052  1.8594 -0.8563 -1.0447
 8664TIP3   OH247482   4.840   0.296   0.337  0.3351 -0.3036 -0.0919
 8664TIP3    H147483   4.899   0.262   0.404 -0.3693 -0.8171  0.2768
 8664TIP3    H247484   4.762   0.240   0.342 -0.7473  1.2018  0.3616
 8665TIP3   OH247485   4.299   4.121  13.753 -0.0640 -0.0977 -0.0672
 8665TIP3    H147486   4.241   4.052  13.721 -0.3727 -0.1813  0.6602
 8665TIP3    H247487   4.387   4.089  13.737 -0.1957 -1.0212  1.0111
 8666TIP3   OH247488   3.594   3.945  15.749 -0.0572  0.0091 -0.3966
 8666TIP3    H147489   3.567   4.022  15.700 -1.0264  0.9944  1.6064
 8666TIP3    H247490   3.687   3.958  15.767 -0.7520  1.9683  2.0546
 8667TIP3   OH247491   0.023   2.077  16.056  0.6195 -0.5989  0.6327
 8667TIP3    H147492   0.050   2.152  16.109  0.3939 -1.5713  2.1419
 8667TIP3    H247493  -0.005   2.116  15.973  0.3950  1.0015  1.4320
 8668TIP3   OH247494   1.855   5.059   2.300 -0.5057  0.8547  0.2442
 8668TIP3    H147495   1.845   5.095   2.212 -0.2906  0.0090 -0.1291
 8668TIP3    H247496   1.930   5.000   2.293 -0.6469  0.5950  0.9342
 8669TIP3   OH247497   0.035   3.519  15.719  0.2787  0.8083  0.1862
 8669TIP3    H147498  -0.021   3.521  15.797  0.5410  0.4666  0.3885
 8669TIP3    H247499   0.099   3.589  15.733  0.1305  0.9549  0.1289
 8670TIP3   OH247500   4.604   6.353  11.881  0.7824 -0.3989 -0.3624
 8670TIP3    H147501   4.612   6.440  11.840  0.0680 -0.3141 -0.3344
 8670TIP3    H247502   4.635   6.366  11.971 -1.1552  0.2939  0.2281
 8671TIP3   OH247503   4.666   2.674   6.388  0.5667 -0.2235 -0.4526
 8671TIP3    H147504   4.580   2.632   6.383  1.0769 -1.2655 -0.6791
 8671TIP3    H247505   4.710   2.630   6.460  0.0606  1.9388  1.2409
 8672TIP3   OH247506   6.231   4.291  14.507  0.0936  0.5747 -0.0649
 8672TIP3    H147507   6.141   4.291  14.475  0.0881  3.0074 -0.0955
 8672TIP3    H247508   6.269   4.373  14.475  2.9463 -1.2725 -1.7266
 8673TIP3   OH247509   5.538   4.999  14.241 -0.3152 -0.2645 -0.8027
 8673TIP3    H147510   5.559   4.919  14.289 -0.1126 -0.8505 -1.8566
 8673TIP3    H247511   5.549   5.070  14.305  2.5495 -0.7685 -0.6797
 8674TIP3   OH247512   3.836   6.678   0.308 -0.4188 -0.0109 -0.4992
 8674TIP3    H147513   3.830   6.655   0.215  0.6683  0.9272 -0.8119
 8674TIP3    H247514   3.905   6.744   0.312 -1.7652  1.3751  0.7121
 8675TIP3   OH247515   5.789   2.087   0.671  0.3022 -0.0343 -0.5299
 8675TIP3    H147516   5.792   1.997   0.702  0.2661  0.5915  1.3713
 8675TIP3    H247517   5.836   2.137   0.739  0.0774  1.4036 -1.4202
 8676TIP3   OH247518   3.924   4.241   1.529  0.4872  0.0284  0.1250
 8676TIP3    H147519   3.982   4.190   1.473 -0.1258 -0.0580 -0.4398
 8676TIP3    H247520   3.878   4.299   1.469 -0.8815 -0.7396  0.4214
 8677TIP3   OH247521   5.481   1.561   4.571  0.3503 -1.2611 -0.4149
 8677TIP3    H147522   5.497   1.629   4.506 -0.8798  0.3417  0.9151
 8677TIP3    H247523   5.565   1.547   4.614  0.4577 -0.0841 -0.2344
 8678TIP3   OH247524   5.123   3.026  14.402  0.2983  0.1518  0.1118
 8678TIP3    H147525   5.143   2.936  14.378  1.7182  0.3902  0.3682
 8678TIP3    H247526   5.060   3.018  14.473 -1.1391 -0.6001 -1.2106
 8679TIP3   OH247527   1.121   5.781   2.955 -0.7131  0.1208 -0.0429
 8679TIP3    H147528   1.138   5.696   2.912  0.2917  0.0448  0.5002
 8679TIP3    H247529   1.191   5.789   3.020 -1.5615  0.7796  0.7864
 8680TIP3   OH247530   5.297   3.115   2.552  0.2528 -0.3129  0.5036
 8680TIP3    H147531   5.275   3.208   2.550 -0.6400 -0.5012  1.2031
 8680TIP3    H247532   5.289   3.090   2.644 -1.0327 -1.4318  0.1093
 8681TIP3   OH247533   1.985   2.874   5.200  0.0340 -0.2388  0.1266
 8681TIP3    H147534   1.915   2.879   5.134  0.3976 -1.1772 -0.3351
 8681TIP3    H247535   1.957   2.935   5.269 -1.6746 -1.2679  0.3664
 8682TIP3   OH247536   5.380   3.585   3.375  0.0410  0.0262 -0.0525
 8682TIP3    H147537   5.443   3.574   3.304 -0.8823  1.1515 -1.0749
 8682TIP3    H247538   5.418   3.654   3.430  0.8127 -0.9280  0.6067
 8683TIP3   OH247539   4.890   5.367  10.858 -0.2048 -0.2116  0.0826
 8683TIP3    H147540   4.818   5.332  10.806 -1.3549 -0.9461  2.0936
 8683TIP3    H247541   4.863   5.457  10.878 -0.0890 -0.1601  0.0085
 8684TIP3   OH247542   3.445   2.316  13.553 -0.3070 -0.7174 -0.0703
 8684TIP3    H147543   3.505   2.294  13.624 -0.5180  1.5031  0.8409
 8684TIP3    H247544   3.495   2.298  13.473  1.6772  1.2631  0.6716
 8685TIP3   OH247545   3.494   0.483  12.229 -0.5515  0.0908  0.0283
 8685TIP3    H147546   3.563   0.497  12.294  0.4646  1.3242 -1.2860
 8685TIP3    H247547   3.473   0.570  12.196 -1.0873 -0.5082 -1.2780
 8686TIP3   OH247548   0.062   0.147   0.541 -0.5323  0.0259  0.1499
 8686TIP3    H147549   0.040   0.112   0.455 -1.2538 -0.2929  0.4587
 8686TIP3    H247550   0.152   0.118   0.556 -1.6487 -3.2024  1.1094
 8687TIP3   OH247551   4.511   3.179  16.625  0.0028  0.2936 -0.2324
 8687TIP3    H147552   4.474   3.152  16.709 -1.1425  0.4000 -0.6895
 8687TIP3    H247553   4.441   3.229  16.583  1.6224  2.8886  0.0443
 8688TIP3   OH247554   5.813   4.722  14.825 -0.2034  0.4571 -0.9613
 8688TIP3    H147555   5.865   4.663  14.772 -0.5118  0.4397 -1.2452
 8688TIP3    H247556   5.872   4.749  14.896  0.1309  0.2939 -1.1744
 8689TIP3   OH247557   4.541   4.969   5.689 -0.9371 -0.4874  0.3584
 8689TIP3    H147558   4.617   4.969   5.746 -1.0341  1.1948  0.5236
 8689TIP3    H247559   4.576   4.996   5.603 -1.3690  0.4719  0.4799
 8690TIP3   OH247560   2.909   5.908  15.039  0.5649 -0.2533 -0.7499
 8690TIP3    H147561   2.836   5.869  15.087  0.3196  0.4796 -0.5250
 8690TIP3    H247562   2.985   5.893  15.096  0.2823  0.5684 -0.1601
 8691TIP3   OH247563   0.403   3.912  11.884  0.0324 -0.7893 -0.5013
 8691TIP3    H147564   0.463   3.880  11.816 -1.0456  1.4724 -2.5663
 8691TIP3    H247565   0.324   3.859  11.873 -0.7265  0.6417 -2.0868
 8692TIP3   OH247566   5.888   4.619   5.641  0.3213 -0.0144  0.0545
 8692TIP3    H147567   5.910   4.619   5.548 -0.3476  3.1363 -0.1690
 8692TIP3    H247568   5.857   4.530   5.658  1.1953 -0.8856 -2.5221
 8693TIP3   OH247569   0.736   0.684   0.945  0.1637 -0.0393 -0.2447
 8693TIP3    H147570   0.791   0.645   1.013 -0.2619 -1.9746 -0.9948
 8693TIP3    H247571   0.798   0.726   0.885  0.7901 -1.6155 -0.7113
 8694TIP3   OH247572   2.572   6.060   3.365 -0.3077 -0.9551 -0.4957
 8694TIP3    H147573   2.539   5.998   3.430  0.2025 -2.6815 -1.8432
 8694TIP3    H247574   2.507   6.130   3.363 -1.3435 -1.8856  0.4403
 8695TIP3   OH247575   3.808   5.659  11.384  0.2271  0.1087  0.3078
 8695TIP3    H147576   3.746   5.727  11.410 -2.1102 -1.8358  0.0105
 8695TIP3    H247577   3.827   5.677  11.292 -1.8737 -0.7378 -0.3017
 8696TIP3   OH247578   3.369   4.678   1.965 -0.5581  0.0269  0.5216
 8696TIP3    H147579   3.315   4.680   1.886 -0.2950 -1.5299  0.2789
 8696TIP3    H247580   3.450   4.723   1.941  0.1399 -1.7464 -0.5985
 8697TIP3   OH247581   5.989   0.304   3.958 -0.2448  0.0734  0.1530
 8697TIP3    H147582   6.073   0.270   3.926  0.6130  0.0627  2.3368
 8697TIP3    H247583   5.963   0.368   3.891  1.1382 -0.4515 -0.9205
 8698TIP3   OH247584   2.673   1.927   0.430 -0.2620  0.3923 -0.6594
 8698TIP3    H147585   2.602   1.959   0.374 -0.6283  1.0593  0.1704
 8698TIP3    H247586   2.704   2.005   0.476 -1.1152 -0.4035  1.3283
 8699TIP3   OH247587   6.139   3.611   3.872  0.1231 -0.4930 -0.2432
 8699TIP3    H147588   6.109   3.579   3.957  0.6335  3.7909  1.6924
 8699TIP3    H247589   6.229   3.580   3.865 -0.4652 -2.2908 -0.0330
 8700TIP3   OH247590   3.726   3.558  13.403  0.1907  0.0759 -0.1402
 8700TIP3    H147591   3.675   3.478  13.413 -1.3568  1.2382  1.7248
 8700TIP3    H247592   3.817   3.529  13.399 -0.3590 -1.7755  0.4181
 8701TIP3   OH247593   2.351   4.022   5.124 -0.6118  0.3328  0.0762
 8701TIP3    H147594   2.269   4.038   5.172  0.7943 -0.7139  2.9155
 8701TIP3    H247595   2.397   4.106   5.129 -0.1090 -0.0041  1.3185
 8702TIP3   OH247596   5.351   0.376  14.406 -0.0353  0.1404 -0.6079
 8702TIP3    H147597   5.316   0.405  14.490 -1.3678  2.0482 -1.7893
 8702TIP3    H247598   5.446   0.386  14.415 -0.2071  0.8710  0.4951
 8703TIP3   OH247599   0.133   4.368  13.988  0.1804 -0.4044  0.1991
 8703TIP3    H147600   0.049   4.401  14.021 -0.5250 -2.1031  0.1207
 8703TIP3    H247601   0.121   4.273  13.982  2.3664 -0.7444  0.9229
 8704TIP3   OH247602   0.328   3.137   1.444 -0.1098 -0.0238  0.2416
 8704TIP3    H147603   0.409   3.111   1.399 -0.6635 -0.6908 -0.3737
 8704TIP3    H247604   0.336   3.232   1.451  0.4438 -0.0113 -0.3926
 8705TIP3   OH247605   2.682   0.796   0.568 -0.9643  0.3034  0.2603
 8705TIP3    H147606   2.659   0.867   0.508  2.0553  0.8782 -0.3251
 8705TIP3    H247607   2.694   0.839   0.653 -0.5164  0.2743  0.2131
 8706TIP3   OH247608   6.333   4.767   2.559 -0.1378  0.0315  0.1170
 8706TIP3    H147609   6.258   4.811   2.599 -0.2438 -1.2129  1.3169
 8706TIP3    H247610   6.295   4.715   2.488 -0.3059  0.1204  0.1410
 8707TIP3   OH247611   5.263   4.063  13.587 -0.1364  0.4643  0.2537
 8707TIP3    H147612   5.348   4.027  13.614 -0.2388  0.5996  0.7631
 8707TIP3    H247613   5.199   4.013  13.638 -0.4367 -0.4343 -0.9786
 8708TIP3   OH247614   2.718   5.636  12.334  0.2913  0.3016  0.2926
 8708TIP3    H147615   2.679   5.549  12.331  0.5779  0.2042 -0.7232
 8708TIP3    H247616   2.694   5.670  12.420 -1.6098  0.0567 -0.1232
 8709TIP3   OH247617   3.251   5.114  15.918  0.4134 -0.5836 -0.2084
 8709TIP3    H147618   3.283   5.168  15.990  1.1034 -2.5511  0.9943
 8709TIP3    H247619   3.190   5.053  15.959 -0.6447 -0.4896 -1.6043
 8710TIP3   OH247620   6.699   3.122   2.435 -0.5685  0.0191  0.1527
 8710TIP3    H147621   6.762   3.190   2.410  0.8209 -1.4366 -0.3560
 8710TIP3    H247622   6.642   3.113   2.359  0.7894 -1.1178 -0.7604
 8711TIP3   OH247623   4.559   4.330  10.439  0.2787 -0.0467  0.1174
 8711TIP3    H147624   4.575   4.236  10.450  0.2578 -0.1444 -0.7067
 8711TIP3    H247625   4.646   4.369  10.431  0.1966 -0.3824 -2.7305
 8712TIP3   OH247626   0.256   4.948   0.378 -0.0061  0.0883  0.0116
 8712TIP3    H147627   0.244   4.914   0.467  1.7561  0.9275  0.5956
 8712TIP3    H247628   0.177   5.000   0.362 -0.8222 -0.9196  0.6703
 8713TIP3   OH247629   5.765   6.536   5.329  0.4410  0.0817 -0.4378
 8713TIP3    H147630   5.691   6.476   5.331  0.4937  0.0427  0.4065
 8713TIP3    H247631   5.838   6.486   5.364  0.5382  0.5693  0.0559
 8714TIP3   OH247632   1.695   2.762  12.514 -0.0483  0.0322 -0.4753
 8714TIP3    H147633   1.761   2.786  12.449  0.3366  0.8399  0.1970
 8714TIP3    H247634   1.617   2.811  12.488  0.0624  0.2396 -0.4225
 8715TIP3   OH247635   2.772   4.553  12.344 -0.1183 -0.6937 -0.4029
 8715TIP3    H147636   2.790   4.464  12.314 -1.3200 -0.9250 -0.4856
 8715TIP3    H247637   2.842   4.573  12.406  0.0644 -1.7665 -0.2603
 8716TIP3   OH247638   0.117   1.234  10.800 -0.2862  0.1181  0.8583
 8716TIP3    H147639   0.139   1.144  10.823 -0.8428 -0.0948  0.5675
 8716TIP3    H247640   0.195   1.285  10.822 -0.6483 -0.1363  2.8224
 8717TIP3   OH247641   6.308   1.021   2.795 -0.6678  0.2537  0.1978
 8717TIP3    H147642   6.223   0.998   2.757 -1.0254  0.5275  0.8308
 8717TIP3    H247643   6.304   1.116   2.805 -0.4460  0.2154  0.6287
 8718TIP3   OH247644   0.205   6.181  15.031  0.3894 -0.6596 -0.0464
 8718TIP3    H147645   0.110   6.178  15.021  0.0604 -1.3972  2.8528
 8718TIP3    H247646   0.230   6.268  14.999 -1.0105 -1.0801 -2.4338
 8719TIP3   OH247647   5.366   6.217   4.978 -0.4634 -0.7240 -0.0004
 8719TIP3    H147648   5.308   6.221   4.902 -0.6650  1.1289  0.2242
 8719TIP3    H247649   5.311   6.247   5.051  0.0894 -1.2891  0.6544
 8720TIP3   OH247650   1.920   3.292  14.096  0.1129 -0.2477  0.3484
 8720TIP3    H147651   1.991   3.252  14.146 -0.8699 -1.0524  1.1037
 8720TIP3    H247652   1.935   3.263  14.006 -0.9695 -2.8605  0.9905
 8721TIP3   OH247653   1.056   3.573  15.631  0.2599 -0.7678 -0.2381
 8721TIP3    H147654   1.076   3.511  15.701  0.4574  1.5893  1.8890
 8721TIP3    H247655   1.017   3.649  15.676 -0.7543  0.3275 -2.8202
 8722TIP3   OH247656   0.612   6.771  16.409  0.1288  0.2409  0.0626
 8722TIP3    H147657   0.704   6.768  16.384  0.2135  0.9984  0.2826
 8722TIP3    H247658   0.610   6.824  16.488 -0.5085  0.2909  0.0157
 8723TIP3   OH247659   5.653   4.671  13.766 -0.2751  0.1796 -0.0771
 8723TIP3    H147660   5.743   4.637  13.767  0.1398  1.1580 -1.6488
 8723TIP3    H247661   5.633   4.690  13.858  0.3703 -1.9689  0.5306
 8724TIP3   OH247662   5.436   6.565  12.715  0.2824 -0.0179 -0.0989
 8724TIP3    H147663   5.349   6.583  12.679  0.0006  0.3239  0.7434
 8724TIP3    H247664   5.426   6.483  12.762  0.5370 -0.2328 -0.4216
 8725TIP3   OH247665   3.528   5.862  14.099  0.4030  0.8456 -0.1570
 8725TIP3    H147666   3.602   5.816  14.141  1.3201  1.1742 -1.3873
 8725TIP3    H247667   3.452   5.839  14.153  1.0048 -1.3692 -0.2107
 8726TIP3   OH247668   6.749   0.453   2.479  0.1170 -0.1921 -0.3095
 8726TIP3    H147669   6.655   0.434   2.488  0.0060  0.7086  0.5493
 8726TIP3    H247670   6.780   0.388   2.416 -1.1745 -0.2095 -0.9530
 8727TIP3   OH247671   4.417   2.518  15.581  0.6394 -0.9913  0.5515
 8727TIP3    H147672   4.414   2.600  15.630  0.7652 -1.0141  0.5994
 8727TIP3    H247673   4.333   2.476  15.598 -0.0836 -0.1126 -0.7939
 8728TIP3   OH247674   2.294   6.638   2.664 -0.0740  0.0533 -0.6066
 8728TIP3    H147675   2.307   6.544   2.676 -0.5141  0.1456  0.7234
 8728TIP3    H247676   2.254   6.647   2.577 -1.0268 -1.0780 -0.2974
 8729TIP3   OH247677   6.793   3.571   0.426  0.4464  0.2640  0.3413
 8729TIP3    H147678   6.795   3.616   0.510  0.0277 -1.2959  1.2020
 8729TIP3    H247679   6.872   3.601   0.381  1.1180  0.4572  1.6269
 8730TIP3   OH247680   4.724   2.866   6.236  0.5308 -0.2029 -0.4451
 8730TIP3    H147681   4.731   2.809   6.313 -2.4098  1.1170  0.8673
 8730TIP3    H247682   4.695   2.950   6.270  1.1501  1.0247 -2.8055
 8731TIP3   OH247683   3.294   3.382  12.824  0.2150 -0.0161 -0.0458
 8731TIP3    H147684   3.250   3.315  12.772  1.9041 -1.2178  0.0135
 8731TIP3    H247685   3.370   3.407  12.772  0.3793  0.8350  0.5832
 8732TIP3   OH247686   1.735   1.329  11.033  0.6651  0.5619  0.4349
 8732TIP3    H147687   1.768   1.270  10.965  0.2461  0.5704  0.2226
 8732TIP3    H247688   1.655   1.288  11.064  1.3100  0.1183  1.5407
 8733TIP3   OH247689   5.008   0.150   2.028  0.0619  0.1562 -0.6267
 8733TIP3    H147690   5.060   0.084   2.074  1.1590  1.8930  0.6641
 8733TIP3    H247691   4.917   0.126   2.047  0.4780  0.3464  1.7945
 8734TIP3   OH247692   2.998   5.342   1.457  0.0771  0.5815 -0.6299
 8734TIP3    H147693   3.094   5.350   1.458  0.3231 -1.9298 -0.4094
 8734TIP3    H247694   2.973   5.360   1.366  0.6269  2.4169 -0.4305
 8735TIP3   OH247695   3.106   1.972  14.094 -0.1559  0.0718 -0.3518
 8735TIP3    H147696   3.043   1.925  14.039  0.2194  0.8608 -1.4871
 8735TIP3    H247697   3.143   2.038  14.036  0.4252  0.7749  0.8002
 8736TIP3   OH247698   6.261   6.049   5.378 -0.3210  0.4875 -0.0902
 8736TIP3    H147699   6.318   6.083   5.447 -0.4774 -0.6743  0.6240
 8736TIP3    H247700   6.304   5.968   5.350 -0.5832  0.6398 -0.9366
 8737TIP3   OH247701   1.209   4.461   0.814 -0.0360  0.3684  0.3308
 8737TIP3    H147702   1.210   4.453   0.719 -0.1041  0.6417  0.3082
 8737TIP3    H247703   1.123   4.498   0.834 -0.2261 -0.1643  0.5363
 8738TIP3   OH247704   6.065   5.473  13.225 -0.2476 -0.3118  0.1419
 8738TIP3    H147705   5.972   5.493  13.223 -0.2879 -0.5910 -1.0079
 8738TIP3    H247706   6.075   5.395  13.170  0.7260  0.0210 -0.1740
 8739TIP3   OH247707   4.382   2.375  15.120 -0.0485 -0.1308 -0.2486
 8739TIP3    H147708   4.450   2.425  15.165 -0.4918  2.0328 -1.8505
 8739TIP3    H247709   4.302   2.390  15.171  0.2679 -1.0105  0.5020
 8740TIP3   OH247710   5.938   3.331   4.334 -0.5995  0.0638 -0.4251
 8740TIP3    H147711   5.949   3.379   4.252 -0.1840  1.3236  0.3632
 8740TIP3    H247712   6.008   3.266   4.333  0.5353  1.2839 -0.2120
 8741TIP3   OH247713   6.504   3.626  17.172 -0.1747 -0.1272  0.2369
 8741TIP3    H147714   6.585   3.623  17.223  0.2650  0.3297 -0.4255
 8741TIP3    H247715   6.519   3.565  17.099 -0.6317 -0.4489  0.4086
 8742TIP3   OH247716   0.674   0.343   6.128  0.4659  0.5045  0.5790
 8742TIP3    H147717   0.727   0.291   6.068  1.0066  0.7151  0.8713
 8742TIP3    H247718   0.738   0.393   6.179 -0.0215  0.8915  0.8104
 8743TIP3   OH247719   0.525   4.580  10.710 -0.1845  0.4877 -0.1604
 8743TIP3    H147720   0.564   4.594  10.624 -0.8176 -1.6390 -0.8041
 8743TIP3    H247721   0.432   4.566  10.693 -0.4267  0.6995  0.9385
 8744TIP3   OH247722   0.753   2.278  17.146 -0.1968 -0.0272  0.7593
 8744TIP3    H147723   0.696   2.355  17.155  0.6324  1.0326 -2.3380
 8744TIP3    H247724   0.841   2.311  17.163  0.1164 -0.3565 -0.1882
 8745TIP3   OH247725   6.309   2.785  12.887  1.1729  0.5132  0.4089
 8745TIP3    H147726   6.240   2.803  12.951  2.4444  0.8682  1.7032
 8745TIP3    H247727   6.262   2.765  12.806 -0.4501  0.4971  1.3366
 8746TIP3   OH247728   2.190   2.925   2.867  0.2071  0.3550 -0.3889
 8746TIP3    H147729   2.262   2.921   2.930  1.8351  0.9846 -2.1278
 8746TIP3    H247730   2.112   2.941   2.919  1.3234 -0.3981  1.5629
 8747TIP3   OH247731   5.166   4.347  11.169  0.5394  0.2834  0.1917
 8747TIP3    H147732   5.242   4.291  11.187  0.6472  1.0983  2.3562
 8747TIP3    H247733   5.124   4.359  11.254 -1.1442  1.1175 -0.7380
 8748TIP3   OH247734   4.785   1.397  13.176 -0.5213  0.6469  0.1488
 8748TIP3    H147735   4.778   1.488  13.150  0.5896  0.9457  0.8534
 8748TIP3    H247736   4.813   1.351  13.097 -0.7439  0.9682 -0.1163
 8749TIP3   OH247737   3.888   0.534   1.608 -0.1457 -1.4509  0.5917
 8749TIP3    H147738   3.896   0.526   1.703  1.9002 -1.0795  0.4675
 8749TIP3    H247739   3.977   0.521   1.575 -0.5895 -0.1596 -1.1690
 8750TIP3   OH247740   2.232   6.737  11.277 -0.0186 -0.0732  0.3074
 8750TIP3    H147741   2.265   6.769  11.193 -0.7611 -0.7162 -0.2283
 8750TIP3    H247742   2.171   6.804  11.306 -0.9129 -0.5648 -0.4008
 8751TIP3   OH247743   6.242   0.674   2.418  0.0803  0.2145 -0.1687
 8751TIP3    H147744   6.226   0.650   2.327 -0.5322  2.0400 -0.5495
 8751TIP3    H247745   6.335   0.697   2.421  0.1981 -0.2405 -0.2285
 8752TIP3   OH247746   0.631   2.098  15.785  0.0124  0.0484  1.0177
 8752TIP3    H147747   0.581   2.027  15.825 -0.1638 -0.4854 -0.1265
 8752TIP3    H247748   0.630   2.168  15.850 -0.3688 -0.7629  1.8872
 8753TIP3   OH247749   6.369   1.784   4.541 -0.1895 -0.4033  0.1374
 8753TIP3    H147750   6.377   1.836   4.461 -0.8776 -1.8629 -0.9083
 8753TIP3    H247751   6.411   1.837   4.609  0.6100  0.7470 -1.2330
 8754TIP3   OH247752   3.943   2.800  16.093 -0.4191 -0.3088 -0.1200
 8754TIP3    H147753   4.029   2.820  16.129 -0.9163  0.8589  0.4599
 8754TIP3    H247754   3.935   2.705  16.099  0.9549 -0.4519 -0.4905
 8755TIP3   OH247755   6.536   1.518  14.105 -0.0571 -0.1203 -0.0777
 8755TIP3    H147756   6.461   1.459  14.107  1.2455 -1.7851  0.9231
 8755TIP3    H247757   6.521   1.579  14.177  0.1016 -1.1779  0.8704
 8756TIP3   OH247758   3.473   4.192   1.644  0.0062 -0.3339  0.1406
 8756TIP3    H147759   3.448   4.102   1.665 -3.0008  0.2804 -0.6160
 8756TIP3    H247760   3.413   4.246   1.694  1.3245  1.2716  0.0215
 8757TIP3   OH247761   6.160   2.084   4.925 -0.4166 -0.0336 -0.3505
 8757TIP3    H147762   6.178   2.068   4.832 -1.3265 -2.6005 -0.1117
 8757TIP3    H247763   6.244   2.071   4.969  0.0532  1.3476 -0.7974
 8758TIP3   OH247764   4.765   2.597  15.269  0.0549  0.2439  1.1507
 8758TIP3    H147765   4.747   2.683  15.306  0.6156  1.8921 -2.2744
 8758TIP3    H247766   4.852   2.604  15.230 -1.0347 -0.9458 -1.6680
 8759TIP3   OH247767   4.071   6.366  10.534  0.2789  0.4347  0.4976
 8759TIP3    H147768   4.063   6.273  10.558 -0.7342  0.7520  1.4195
 8759TIP3    H247769   4.041   6.370  10.444 -0.0404 -0.0703  0.5810
 8760TIP3   OH247770   3.718   0.596   5.639  0.0278  0.2933 -0.3868
 8760TIP3    H147771   3.738   0.689   5.623  2.2081 -0.1100 -0.1164
 8760TIP3    H247772   3.753   0.579   5.726  0.7746 -1.1266 -0.9686
 8761TIP3   OH247773   0.088   6.101  15.310  0.3905 -0.3476 -0.6561
 8761TIP3    H147774   0.080   6.033  15.377  0.3046  1.1307  0.8626
 8761TIP3    H247775   0.181   6.124  15.310  0.1147  0.7873  0.1041
 8762TIP3   OH247776   1.148   1.111  14.817 -0.2739  0.2119  0.2114
 8762TIP3    H147777   1.154   1.073  14.729  1.6336 -0.5097  0.6252
 8762TIP3    H247778   1.234   1.094  14.856 -1.2004  0.2575  2.3300
 8763TIP3   OH247779   1.850   0.122   4.152  0.2870  0.7697  0.2890
 8763TIP3    H147780   1.841   0.216   4.133 -0.3989  0.5898 -0.2729
 8763TIP3    H247781   1.907   0.119   4.229  0.2372  1.6556  0.3671
 8764TIP3   OH247782   5.769   2.970   0.680 -0.2503 -0.1451 -0.5921
 8764TIP3    H147783   5.779   3.047   0.736  0.2434  0.8968 -2.0637
 8764TIP3    H247784   5.778   3.004   0.591 -1.8306 -1.6238 -1.3486
 8765TIP3   OH247785   5.506   6.087  11.533 -0.4020  0.4309 -0.1497
 8765TIP3    H147786   5.565   6.013  11.520 -1.0658 -0.1234 -0.0354
 8765TIP3    H247787   5.553   6.162  11.497  0.3874  0.0020 -0.0207
 8766TIP3   OH247788   5.685   2.771  16.295  0.3296 -0.0724  0.0865
 8766TIP3    H147789   5.732   2.840  16.248 -1.1937 -0.0349 -1.4179
 8766TIP3    H247790   5.754   2.710  16.323  1.6436  1.7909  1.0370
 8767TIP3   OH247791   4.415   2.906   5.799 -0.1039 -0.1244 -0.0881
 8767TIP3    H147792   4.404   3.001   5.787 -2.2931 -0.3462  0.0054
 8767TIP3    H247793   4.504   2.889   5.768  0.8322  2.1720  1.2136
 8768TIP3   OH247794   5.759   1.846  13.400  0.2738  0.0512 -0.0256
 8768TIP3    H147795   5.724   1.806  13.480  0.3429 -2.2937 -1.1386
 8768TIP3    H247796   5.844   1.881  13.426  0.0368 -0.1549  1.0682
 8769TIP3   OH247797   5.921   3.926   0.051  0.6126 -0.1562  0.2283
 8769TIP3    H147798   5.917   3.929  -0.045  0.1676  2.0636  0.2981
 8769TIP3    H247799   5.882   4.009   0.080  1.3558 -0.4994  2.3157
 8770TIP3   OH247800   0.932   1.782  16.469  0.3432 -0.3974  0.1610
 8770TIP3    H147801   0.955   1.690  16.483  0.7567 -0.5728 -1.5526
 8770TIP3    H247802   0.865   1.779  16.400  1.9479  0.7023 -1.4912
 8771TIP3   OH247803   6.652   2.378  11.738 -0.1142  1.1590  0.0614
 8771TIP3    H147804   6.601   2.440  11.687 -1.1199  1.0012  0.8517
 8771TIP3    H247805   6.651   2.297  11.687 -1.1079  1.0045  0.3139
 8772TIP3   OH247806   4.249   3.091  15.350  0.0247 -0.4082  0.2707
 8772TIP3    H147807   4.264   2.997  15.359 -1.3853 -0.5010  1.9363
 8772TIP3    H247808   4.335   3.128  15.330  0.4686 -2.1236 -1.1112
 8773TIP3   OH247809   3.150   2.276  17.138 -0.4938  0.3843  0.8236
 8773TIP3    H147810   3.171   2.306  17.227 -0.8164 -0.6495  1.2526
 8773TIP3    H247811   3.055   2.279  17.133 -0.3984  2.1730 -0.1052
 8774TIP3   OH247812   1.417   3.837  17.244  0.4304  0.0269 -0.8893
 8774TIP3    H147813   1.433   3.914  17.297 -0.3752 -0.1823 -0.3205
 8774TIP3    H247814   1.471   3.769  17.283 -2.4497 -0.9432  1.6509
 8775TIP3   OH247815   0.966   0.268  11.537  0.3411 -0.1145 -0.3072
 8775TIP3    H147816   0.877   0.303  11.550  0.0376 -0.3571 -1.6433
 8775TIP3    H247817   1.013   0.291  11.618 -0.8490  0.2861  0.2855
 8776TIP3   OH247818   6.494   2.243  14.270  0.3412  0.0964 -0.1664
 8776TIP3    H147819   6.580   2.249  14.314  0.1244 -0.2427  0.3135
 8776TIP3    H247820   6.510   2.274  14.181  0.6079  1.5977  0.3968
 8777TIP3   OH247821   0.052   0.053   5.652 -0.2163 -0.4716 -0.0424
 8777TIP3    H147822  -0.026   0.108   5.659  0.8210  0.9120  0.9180
 8777TIP3    H247823   0.017  -0.037   5.645 -1.8975  0.2024 -0.6780
 8778TIP3   OH247824   5.702   6.632  12.136 -0.3487 -0.2533 -0.1678
 8778TIP3    H147825   5.788   6.611  12.172  0.5335  0.9109 -1.5135
 8778TIP3    H247826   5.644   6.564  12.170  0.8688 -0.4224  1.6536
 8779TIP3   OH247827   2.689   4.255   5.497  0.4067  0.2416  0.2583
 8779TIP3    H147828   2.679   4.210   5.581  0.3202  0.5767  0.4277
 8779TIP3    H247829   2.768   4.217   5.459  1.8540  1.8098  1.5962
 8780TIP3   OH247830   5.740   2.519  13.496 -0.0763 -0.0249 -1.0191
 8780TIP3    H147831   5.816   2.524  13.553 -1.2112 -0.5686  0.5829
 8780TIP3    H247832   5.710   2.610  13.489  0.3495  0.1063 -1.1387
 8781TIP3   OH247833   1.903   1.806   1.954 -0.1880 -0.7194  0.2268
 8781TIP3    H147834   1.935   1.723   1.919 -0.0748  0.1087 -1.7275
 8781TIP3    H247835   1.854   1.845   1.882 -2.3286 -0.1811  1.9226
 8782TIP3   OH247836   3.692   4.924   1.645  0.0672 -0.5599  0.0309
 8782TIP3    H147837   3.786   4.942   1.633 -0.2156 -0.9467 -3.2468
 8782TIP3    H247838   3.649   5.005   1.617 -0.6369 -0.5055  1.2210
 8783TIP3   OH247839   3.460   4.453   0.431 -0.2892  0.1431  0.5292
 8783TIP3    H147840   3.537   4.443   0.376 -0.5194 -0.6215  0.3402
 8783TIP3    H247841   3.419   4.366   0.432  1.4845 -0.7888  4.5309
 8784TIP3   OH247842   3.778   3.048   5.892  0.4967  0.6821  0.2039
 8784TIP3    H147843   3.841   2.980   5.916  0.8043  0.9408  0.1362
 8784TIP3    H247844   3.825   3.103   5.829  0.5570  1.4737  0.9290
 8785TIP3   OH247845   6.176   3.114  16.654  0.0910  0.0395 -0.3404
 8785TIP3    H147846   6.091   3.139  16.689  1.1500  1.1156  1.5716
 8785TIP3    H247847   6.172   3.019  16.645 -2.5423  0.3771 -3.7052
 8786TIP3   OH247848   1.249   0.622   3.171 -0.0471 -0.0204  0.2688
 8786TIP3    H147849   1.206   0.574   3.100  0.7233  0.2309 -0.3803
 8786TIP3    H247850   1.332   0.577   3.183  0.3055  0.6182  0.2566
 8787TIP3   OH247851   2.617   1.522   2.814 -0.2508  0.2542 -0.4209
 8787TIP3    H147852   2.675   1.588   2.775  0.5275  0.3954  0.9452
 8787TIP3    H247853   2.658   1.438   2.795  0.5611  0.3659  0.7466
 8788TIP3   OH247854   0.739   3.526  15.489 -0.4190  0.7689  0.3623
 8788TIP3    H147855   0.668   3.534  15.552  0.4001  1.2469  1.2308
 8788TIP3    H247856   0.795   3.602  15.506  1.0874 -0.4012  0.6736
 8789TIP3   OH247857   3.242   1.674  12.316 -0.2538 -0.6603 -0.2154
 8789TIP3    H147858   3.257   1.753  12.369  0.1386  0.0728 -1.4144
 8789TIP3    H247859   3.309   1.612  12.345  0.3807 -0.0222 -0.3227
 8790TIP3   OH247860   2.280   5.467   1.526  0.0422 -0.1839 -0.2683
 8790TIP3    H147861   2.234   5.392   1.487  2.3648 -0.5690 -2.4600
 8790TIP3    H247862   2.254   5.542   1.472  1.5264 -0.3172 -1.1970
 8791TIP3   OH247863   0.717   4.757  14.439  0.5115 -0.0105  0.5738
 8791TIP3    H147864   0.754   4.842  14.418 -1.7448  0.4810 -1.6843
 8791TIP3    H247865   0.769   4.695  14.389 -0.8152  0.5534 -1.5705
 8792TIP3   OH247866   5.443   3.287   4.112  0.8173 -0.4180  0.2457
 8792TIP3    H147867   5.497   3.257   4.039 -1.7660 -0.8957 -1.5625
 8792TIP3    H247868   5.442   3.213   4.173  2.9303 -0.0475  0.7587
 8793TIP3   OH247869   6.591   1.169  16.010 -0.8807 -0.5716  0.4498
 8793TIP3    H147870   6.597   1.076  16.029  0.8061 -0.3650  0.9660
 8793TIP3    H247871   6.647   1.182  15.934 -0.7144  0.1088  0.6841
 8794TIP3   OH247872   6.787   5.591   5.357  0.1129 -0.2562  0.2707
 8794TIP3    H147873   6.810   5.585   5.450 -0.4992 -0.7382  0.3871
 8794TIP3    H247874   6.814   5.507   5.320 -0.9216 -0.6010  0.2902
 8795TIP3   OH247875   5.324   5.055  12.408  0.1576  0.1612 -0.1474
 8795TIP3    H147876   5.404   5.047  12.459 -0.4366 -0.3264  0.7105
 8795TIP3    H247877   5.346   5.016  12.323  0.8622  0.1339  0.0425
 8796TIP3   OH247878   6.213   3.016  16.370 -0.3905  0.2393 -0.1414
 8796TIP3    H147879   6.282   2.972  16.420  0.8397  1.5693 -0.6107
 8796TIP3    H247880   6.136   3.011  16.426 -0.0951 -1.8784  0.0966
 8797TIP3   OH247881   6.169   0.181   2.065 -0.6956  0.5619 -0.0696
 8797TIP3    H147882   6.089   0.227   2.088 -0.5760  1.1673 -0.8316
 8797TIP3    H247883   6.194   0.217   1.979  1.4371  1.7846  1.0233
 8798TIP3   OH247884   5.876   0.324   6.241 -0.7349 -0.5345  0.0220
 8798TIP3    H147885   5.926   0.301   6.319 -1.1735  1.1237  0.8139
 8798TIP3    H247886   5.784   0.322   6.270 -0.8751  0.4524 -0.3488
 8799TIP3   OH247887   5.957   0.032   0.343 -0.3006 -0.7718  0.0763
 8799TIP3    H147888   6.038   0.079   0.326 -1.0905  0.5727 -0.0377
 8799TIP3    H247889   5.939  -0.016   0.262  0.1267 -0.7018 -0.0596
 8800TIP3   OH247890   2.597   5.974   1.674  0.2380 -0.9530 -0.3428
 8800TIP3    H147891   2.647   5.977   1.756 -0.2595  2.4391 -0.0949
 8800TIP3    H247892   2.506   5.989   1.702 -0.4071 -3.0661 -1.2143
 8801TIP3   OH247893   4.371   1.159   4.009  0.4845  0.4364 -0.0090
 8801TIP3    H147894   4.279   1.179   4.030  0.1550  0.5328 -1.4869
 8801TIP3    H247895   4.402   1.109   4.084 -0.5892  0.9708  0.8113
 8802TIP3   OH247896   1.862   3.496   1.324  0.2143  0.0168  0.2344
 8802TIP3    H147897   1.852   3.547   1.405  0.4255 -0.7567  0.7578
 8802TIP3    H247898   1.893   3.410   1.354 -1.2346 -0.7937 -0.5391
 8803TIP3   OH247899   5.451   0.591  13.006 -0.2562 -0.1074  0.2428
 8803TIP3    H147900   5.513   0.549  13.065 -0.8245 -0.1104  0.8576
 8803TIP3    H247901   5.467   0.685  13.017  1.6281 -0.1605 -1.8155
 8804TIP3   OH247902   2.117   3.696  11.867  0.1293  0.1528  1.1602
 8804TIP3    H147903   2.044   3.739  11.911 -0.6004 -1.4054  1.5330
 8804TIP3    H247904   2.120   3.735  11.780 -1.2453  0.1365  1.1030
 8805TIP3   OH247905   0.453   5.804   1.684 -0.2423  0.3996 -0.1933
 8805TIP3    H147906   0.503   5.858   1.624  1.8765 -1.0399  0.2432
 8805TIP3    H247907   0.504   5.803   1.765 -0.4819 -1.8358 -0.0266
 8806TIP3   OH247908   5.350   0.628   2.091 -0.0611  0.4772  0.3520
 8806TIP3    H147909   5.402   0.688   2.037  0.8358  1.0530  1.8395
 8806TIP3    H247910   5.302   0.685   2.151  0.1700 -0.2436  1.2301
 8807TIP3   OH247911   0.554   6.804  15.137  0.1640  0.0872 -0.0337
 8807TIP3    H147912   0.596   6.718  15.129  1.3556  0.5767  0.7792
 8807TIP3    H247913   0.516   6.804  15.225  0.7500  0.6389  0.2229
 8808TIP3   OH247914   2.335   0.992   1.994  0.1325 -0.0636 -0.6098
 8808TIP3    H147915   2.367   1.064   2.049  1.5888  0.2462 -1.8240
 8808TIP3    H247916   2.409   0.970   1.938 -1.4843  0.0215 -2.8527
 8809TIP3   OH247917   3.587   4.145   4.918 -0.1993  0.2137  0.2201
 8809TIP3    H147918   3.675   4.181   4.910  0.4614 -1.2533  0.6788
 8809TIP3    H247919   3.575   4.133   5.012 -1.2405  1.2449  0.2260
 8810TIP3   OH247920   6.815   6.184   1.897 -0.3986  0.0701  0.6649
 8810TIP3    H147921   6.828   6.203   1.804  0.7889 -2.0351  0.3732
 8810TIP3    H247922   6.744   6.121   1.900 -0.1826 -0.1586  1.1535
 8811TIP3   OH247923   5.959   2.700  16.338  0.5155 -0.1349 -0.4396
 8811TIP3    H147924   6.051   2.702  16.366  0.5174 -1.4924 -0.3054
 8811TIP3    H247925   5.963   2.678  16.245  0.2683 -2.3111  0.0362
 8812TIP3   OH247926   4.007   1.176  16.250 -0.1870 -0.4739 -0.2001
 8812TIP3    H147927   4.011   1.269  16.228  5.3322 -1.2720 -3.3693
 8812TIP3    H247928   3.981   1.132  16.169  0.2197 -1.9329  0.4330
 8813TIP3   OH247929   6.414   3.063   2.076 -0.7021  0.7528 -0.3077
 8813TIP3    H147930   6.486   3.104   2.028 -0.8417 -0.2717 -1.4280
 8813TIP3    H247931   6.343   3.128   2.074 -0.8145  0.6045 -1.7939
 8814TIP3   OH247932   2.104   4.124   5.193 -0.2203 -0.4940 -0.3155
 8814TIP3    H147933   2.080   4.070   5.118  0.5231  0.5830 -1.3349
 8814TIP3    H247934   2.060   4.082   5.267 -0.9946 -1.5375 -1.3456
 8815TIP3   OH247935   2.562   2.896  11.476 -0.8183  0.0443  0.5173
 8815TIP3    H147936   2.618   2.973  11.489  0.7200 -0.1077 -4.1690
 8815TIP3    H247937   2.603   2.827  11.527  0.4657  1.1781  1.0618
 8816TIP3   OH247938   5.224   1.490  15.982 -0.3341  1.1350 -0.0683
 8816TIP3    H147939   5.264   1.465  15.899  0.5286  1.6423  0.1841
 8816TIP3    H247940   5.218   1.585  15.978 -1.1254  1.0910  0.0742
 8817TIP3   OH247941   2.056   0.507  14.350  0.5150 -0.0246 -0.1252
 8817TIP3    H147942   2.040   0.592  14.391  2.2260 -0.4943  1.5671
 8817TIP3    H247943   2.044   0.523  14.257 -1.7742  1.4611  0.3684
 8818TIP3   OH247944   1.842   5.537   3.159  0.0346 -0.1986  0.7105
 8818TIP3    H147945   1.933   5.551   3.135  0.4917 -1.1106  1.8564
 8818TIP3    H247946   1.798   5.619   3.138  1.4143  0.7687  1.5775
 8819TIP3   OH247947   5.912   4.858   1.328 -0.0753  0.3692  0.2681
 8819TIP3    H147948   6.007   4.862   1.325 -0.0809  0.3475 -0.0427
 8819TIP3    H247949   5.892   4.765   1.316 -0.1648  0.5290 -0.9352
 8820TIP3   OH247950   4.302   4.359  16.912  0.1262 -0.3647 -0.1704
 8820TIP3    H147951   4.382   4.380  16.863 -0.8318  0.1696 -1.5279
 8820TIP3    H247952   4.316   4.269  16.942  0.9133 -0.5455 -1.0603
 8821TIP3   OH247953   5.894   1.897  15.991  0.1908 -0.0637 -0.0450
 8821TIP3    H147954   5.962   1.877  16.056 -1.0181 -1.0191  0.9377
 8821TIP3    H247955   5.937   1.881  15.906  1.3311 -0.2237  0.5541
 8822TIP3   OH247956   3.114   3.585  12.785 -0.4542  0.0475  0.1451
 8822TIP3    H147957   3.175   3.525  12.829 -0.7172 -0.7245 -0.5303
 8822TIP3    H247958   3.035   3.583  12.840 -0.0421  0.7060  0.7773
 8823TIP3   OH247959   5.337   4.608   4.994  0.1108 -0.0715 -0.0171
 8823TIP3    H147960   5.384   4.689   4.973 -0.1927  0.1806  0.2717
 8823TIP3    H247961   5.378   4.577   5.075  0.7811 -0.6506 -0.5602
 8824TIP3   OH247962   4.496   1.620  11.736  0.1094 -0.8967 -0.1751
 8824TIP3    H147963   4.452   1.601  11.653  0.4512  0.8363 -0.7760
 8824TIP3    H247964   4.480   1.714  11.750  1.4387 -0.8205  0.8798
 8825TIP3   OH247965   5.627   6.121  14.563 -0.1432 -0.4602 -0.1614
 8825TIP3    H147966   5.627   6.215  14.549  0.6083 -0.4917 -0.3631
 8825TIP3    H247967   5.626   6.111  14.658 -1.5982 -0.2568 -0.1310
 8826TIP3   OH247968   3.787   0.276   4.282 -0.3325  0.8249  0.5969
 8826TIP3    H147969   3.800   0.185   4.256  1.8669  0.1080  3.8668
 8826TIP3    H247970   3.729   0.313   4.215  0.2075 -2.4548 -1.7703
 8827TIP3   OH247971   5.389   1.640   5.895  0.0869 -0.0197 -0.0610
 8827TIP3    H147972   5.304   1.623   5.855 -0.1904  0.6855  0.2226
 8827TIP3    H247973   5.440   1.560   5.879 -1.0272 -0.9155  0.8258
 8828TIP3   OH247974   2.056   5.348  17.027 -0.3081  0.3583  0.2248
 8828TIP3    H147975   2.063   5.416  16.960  1.2939  1.0910  1.0831
 8828TIP3    H247976   1.970   5.310  17.015 -0.0026  0.4118 -2.3174
 8829TIP3   OH247977   0.730   4.622   0.574  0.2011 -0.2679 -0.2189
 8829TIP3    H147978   0.802   4.661   0.624  0.3372 -1.6676  0.6866
 8829TIP3    H247979   0.663   4.602   0.639 -0.6445  0.1714 -0.9371
 8830TIP3   OH247980   4.979   5.554   1.620  0.2938 -0.8744  0.0525
 8830TIP3    H147981   4.888   5.548   1.651  0.3290 -1.7117 -0.0115
 8830TIP3    H247982   4.971   5.563   1.525  0.2320  0.4288  0.1757
 8831TIP3   OH247983   1.305   5.301  16.825  0.4688  0.2017  0.0975
 8831TIP3    H147984   1.230   5.253  16.790  1.5094 -2.4600  1.3732
 8831TIP3    H247985   1.381   5.260  16.782  1.2776  2.2407 -0.4897
 8832TIP3   OH247986   6.187   4.586   1.247 -0.0549  0.4331  0.1175
 8832TIP3    H147987   6.093   4.576   1.264  0.1240  0.8491  1.3362
 8832TIP3    H247988   6.197   4.677   1.221 -0.1874  0.0354 -1.4112
 8833TIP3   OH247989   0.494   2.259   2.505  0.1788 -0.2492  0.8018
 8833TIP3    H147990   0.491   2.346   2.466 -1.4408  0.4889  2.4715
 8833TIP3    H247991   0.461   2.201   2.437  0.6404  0.5310 -0.0960
 8834TIP3   OH247992   4.449   5.289  15.484 -0.1517  0.3193 -0.1255
 8834TIP3    H147993   4.436   5.305  15.578  0.0307  2.3594 -0.4407
 8834TIP3    H247994   4.541   5.309  15.469 -0.7178  2.2582 -1.1780
 8835TIP3   OH247995   5.260   1.144  11.063 -0.2283 -0.0572 -0.0722
 8835TIP3    H147996   5.288   1.195  10.986  0.2060  1.3440  0.9790
 8835TIP3    H247997   5.337   1.146  11.121 -1.3740  1.0159  1.4402
 8836TIP3   OH247998   2.702   2.303  12.082 -1.0351  0.0325 -0.0476
 8836TIP3    H147999   2.696   2.257  12.166 -1.3950 -0.2313 -0.2178
 8836TIP3    H248000   2.786   2.350  12.087 -1.4235  0.6531  0.7777
 8837TIP3   OH248001   0.124   2.751  15.725  0.0872 -0.1087  0.1136
 8837TIP3    H148002   0.149   2.665  15.693  0.2439  0.4801 -1.3720
 8837TIP3    H248003   0.127   2.807  15.648 -0.2058  1.1851  1.0324
 8838TIP3   OH248004   3.814   5.505   2.924 -0.0766 -0.2852  0.6218
 8838TIP3    H148005   3.799   5.491   2.830 -0.7762 -0.1768  0.7164
 8838TIP3    H248006   3.770   5.588   2.943 -2.5855 -1.7861  1.6751
 8839TIP3   OH248007   0.166   4.168  11.612 -0.3775 -0.1972 -0.6130
 8839TIP3    H148008   0.128   4.122  11.537 -2.5208  1.5361 -0.6199
 8839TIP3    H248009   0.107   4.149  11.684  1.0414 -0.8905  0.3952
 8840TIP3   OH248010   2.568   5.292  10.782  0.0160 -0.2963  0.2474
 8840TIP3    H148011   2.578   5.342  10.702  1.2170  0.1538  0.6718
 8840TIP3    H248012   2.511   5.218  10.758  0.4468 -0.2109 -1.0274
 8841TIP3   OH248013   4.441   5.737  15.399  0.5611  0.8750  0.2263
 8841TIP3    H148014   4.476   5.670  15.341 -1.1102 -0.8558  1.1782
 8841TIP3    H248015   4.517   5.791  15.421  1.1066  2.1682 -4.2601
 8842TIP3   OH248016   2.663   3.034   0.664  0.1776 -0.4547  0.2261
 8842TIP3    H148017   2.658   3.035   0.760  0.6125 -0.4773  0.2514
 8842TIP3    H248018   2.630   3.120   0.637 -2.8508 -1.5936  0.2378
 8843TIP3   OH248019   2.104   3.881   5.770  0.4594 -0.1020  0.4616
 8843TIP3    H148020   2.110   3.976   5.774  1.7417 -0.1940  1.0471
 8843TIP3    H248021   2.091   3.854   5.861 -1.7129 -0.3891  0.0887
 8844TIP3   OH248022   2.621   1.536  10.697  0.2005  0.2277 -0.5217
 8844TIP3    H148023   2.713   1.510  10.686  0.8714  0.6642  3.4788
 8844TIP3    H248024   2.572   1.457  10.674  1.7317 -0.9011 -0.0488
 8845TIP3   OH248025   2.656   5.330   1.877 -0.0679  0.0271 -0.2176
 8845TIP3    H148026   2.710   5.388   1.822  1.3101 -2.1496 -1.2351
 8845TIP3    H248027   2.582   5.307   1.821  0.1266 -0.3275 -0.3302
 8846TIP3   OH248028   3.824   1.833  14.175  0.0760  0.0238 -0.2054
 8846TIP3    H148029   3.823   1.868  14.086  0.8649  0.9989  0.1532
 8846TIP3    H248030   3.810   1.910  14.231 -0.3500 -0.5710  0.5061
 8847TIP3   OH248031   5.296   0.335   3.913 -0.1627 -0.3722 -0.1814
 8847TIP3    H148032   5.232   0.312   3.846 -0.8071  0.0913  0.2649
 8847TIP3    H248033   5.379   0.340   3.867 -0.4160 -1.2098 -0.7244
 8848TIP3   OH248034   2.381   3.736   2.493 -0.3277  0.0595  0.7383
 8848TIP3    H148035   2.295   3.695   2.499 -0.0807 -0.5101  0.3555
 8848TIP3    H248036   2.425   3.713   2.575 -0.7935  0.9419  1.2497
 8849TIP3   OH248037   2.800   5.317  13.923  0.1025  0.0476 -0.5685
 8849TIP3    H148038   2.893   5.335  13.934  0.4728 -1.3233 -1.3902
 8849TIP3    H248039   2.796   5.250  13.856 -1.5630  1.0392 -1.5016
 8850TIP3   OH248040   2.193   6.392  11.340 -0.4542 -0.2959  0.3097
 8850TIP3    H148041   2.198   6.465  11.278 -0.6751  0.8673  1.6353
 8850TIP3    H248042   2.284   6.366  11.356 -0.3590 -0.0993  0.0797
 8851TIP3   OH248043   6.595   5.255  15.374 -0.4826 -0.6917  0.2930
 8851TIP3    H148044   6.601   5.349  15.355 -0.1057 -0.6462  0.6449
 8851TIP3    H248045   6.667   5.216  15.326 -0.6805 -0.8114  0.0918
 8852TIP3   OH248046   1.464   6.012   0.484 -0.3860 -0.2965 -0.3696
 8852TIP3    H148047   1.529   6.038   0.550 -1.9375  0.9608  0.6978
 8852TIP3    H248048   1.480   6.072   0.411 -0.4246  0.1005 -0.0568
 8853TIP3   OH248049   3.040   4.100  12.616 -0.4753 -0.0068  0.3323
 8853TIP3    H148050   3.113   4.157  12.637  0.6925 -0.9679 -0.9941
 8853TIP3    H248051   3.054   4.022  12.670 -0.7040 -0.0589  0.3169
 8854TIP3   OH248052   6.661   6.537   1.622 -0.1730 -0.4194  0.0575
 8854TIP3    H148053   6.637   6.628   1.640 -0.0837 -0.5089  0.6182
 8854TIP3    H248054   6.754   6.531   1.647 -0.4036 -0.8810  0.8153
 8855TIP3   OH248055   0.283   3.505   1.909 -0.3960  0.1558 -0.4449
 8855TIP3    H148056   0.359   3.543   1.867  0.5825 -1.2715 -0.0191
 8855TIP3    H248057   0.244   3.577   1.960  1.7463  0.4585  0.8219
 8856TIP3   OH248058   1.010   6.302   5.138  0.1341  0.3822  0.3749
 8856TIP3    H148059   1.097   6.309   5.176  0.9803  0.8473 -1.5521
 8856TIP3    H248060   1.017   6.349   5.055 -2.2706  1.4100  0.7137
 8857TIP3   OH248061   5.412   1.108  14.008 -1.0972 -0.3557  0.1900
 8857TIP3    H148062   5.396   1.131  14.100  0.7216  1.0429  0.1861
 8857TIP3    H248063   5.430   1.014  14.010  0.0651 -0.1245  1.4332
 8858TIP3   OH248064   4.014   3.303  17.134 -0.0477 -0.5996 -0.1751
 8858TIP3    H148065   3.937   3.319  17.080 -0.2186 -0.6852  0.0442
 8858TIP3    H248066   4.012   3.374  17.199 -0.9720 -1.6857  0.9902
 8859TIP3   OH248067   6.182   0.629  12.240  0.1473 -0.4045 -0.0271
 8859TIP3    H148068   6.128   0.582  12.304  0.8090 -0.9519  0.1333
 8859TIP3    H248069   6.231   0.561  12.194 -0.4373 -0.0228 -1.2345
 8860TIP3   OH248070   6.802   2.818  16.638  1.0190  0.2989 -0.6297
 8860TIP3    H148071   6.826   2.800  16.547  2.3271  0.7737 -0.3873
 8860TIP3    H248072   6.803   2.913  16.645  1.4454  0.2491  0.0165
 8861TIP3   OH248073   4.750   0.104  14.069  0.0783  0.0621  0.1222
 8861TIP3    H148074   4.682   0.166  14.095  1.2787  1.9348 -1.0325
 8861TIP3    H248075   4.823   0.123  14.128  0.0101 -1.1343  0.5926
 8862TIP3   OH248076   1.854   3.534  14.598 -0.1653  0.3374 -0.3209
 8862TIP3    H148077   1.810   3.589  14.533 -1.7129 -1.3823 -0.8017
 8862TIP3    H248078   1.866   3.591  14.674 -0.7410  1.6361 -1.1826
 8863TIP3   OH248079   0.329   3.595   3.516 -0.3159 -0.0236 -0.6256
 8863TIP3    H148080   0.283   3.545   3.583  0.7663 -0.5952 -0.2979
 8863TIP3    H248081   0.406   3.631   3.562  0.7778 -0.9438 -1.6980
 8864TIP3   OH248082   6.270   6.179   0.580 -0.4032  0.6068 -0.2312
 8864TIP3    H148083   6.281   6.179   0.675  1.8367 -1.3321 -0.4490
 8864TIP3    H248084   6.345   6.229   0.547 -0.6905  0.5262 -1.0213
 8865TIP3   OH248085   6.739   0.414   3.507 -0.4472  0.2935 -0.5848
 8865TIP3    H148086   6.768   0.327   3.478 -1.2854  0.3846 -1.7396
 8865TIP3    H248087   6.806   0.442   3.569  1.3485  0.0212 -2.3456
 8866TIP3   OH248088   4.652   4.325  14.470  0.4467  0.0077  0.3425
 8866TIP3    H148089   4.617   4.241  14.500 -2.4963  0.5477 -1.3977
 8866TIP3    H248090   4.662   4.376  14.551 -1.9716 -0.5353  1.0502
 8867TIP3   OH248091   4.798   5.023   2.183 -0.0843 -0.3594 -0.4632
 8867TIP3    H148092   4.807   4.931   2.158  0.1221 -0.7886  1.1583
 8867TIP3    H248093   4.744   5.061   2.114  0.0657 -1.6277 -1.2948
 8868TIP3   OH248094   4.509   6.066  11.698  0.7625  0.2670 -0.5171
 8868TIP3    H148095   4.421   6.050  11.662  1.1694 -0.2766 -1.3095
 8868TIP3    H248096   4.535   6.150  11.660  0.1039  1.0205  0.6846
 8869TIP3   OH248097   0.182   2.532   0.678  0.0652  0.0416  0.1583
 8869TIP3    H148098   0.230   2.595   0.733  0.2210 -0.0304  0.1061
 8869TIP3    H248099   0.175   2.453   0.732 -1.4159  0.5832  0.7858
 8870TIP3   OH248100   6.026   3.468   4.077  0.3165  0.2586  0.2666
 8870TIP3    H148101   6.084   3.406   4.032  0.1371  0.9909 -1.0090
 8870TIP3    H248102   6.082   3.509   4.143  1.4064  1.2833 -1.2425
 8871TIP3   OH248103   5.103   2.369  16.856  0.3050  0.6246 -0.1731
 8871TIP3    H148104   5.049   2.372  16.935  0.6934  0.0228  0.1118
 8871TIP3    H248105   5.163   2.296  16.870 -0.5434 -0.3788 -1.6041
 8872TIP3   OH248106   1.832   4.599  17.017  0.0003  0.2609  0.3340
 8872TIP3    H148107   1.826   4.549  16.936 -0.2520 -0.7877  0.9887
 8872TIP3    H248108   1.817   4.535  17.087  1.4533  0.9086  1.2695
 8873TIP3   OH248109   0.023   3.292   0.790  0.4892  0.2044 -0.2084
 8873TIP3    H148110   0.107   3.250   0.809 -0.4973 -2.2747 -1.1978
 8873TIP3    H248111   0.006   3.271   0.698 -2.4183 -1.4818  0.6654
 8874TIP3   OH248112   6.632   4.769   5.146 -0.0999  0.0537  0.5306
 8874TIP3    H148113   6.644   4.808   5.232 -0.9279  0.5886  0.4154
 8874TIP3    H248114   6.687   4.821   5.088  0.6425 -0.4586  0.7805
 8875TIP3   OH248115   1.594   2.489   1.126  0.0147 -0.0081 -0.4684
 8875TIP3    H148116   1.527   2.554   1.104  0.3037  0.2586 -0.5574
 8875TIP3    H248117   1.672   2.519   1.080  0.7645  0.8191  1.2997
 8876TIP3   OH248118   1.058   0.663   3.663 -0.3868  0.1867 -0.4478
 8876TIP3    H148119   1.131   0.607   3.637 -1.4675 -0.9252 -1.1448
 8876TIP3    H248120   1.047   0.723   3.589 -0.2189  0.2958 -0.3823
 8877TIP3   OH248121   0.936   5.349   2.469 -0.6331 -0.4210  0.4696
 8877TIP3    H148122   0.903   5.262   2.494 -1.3001 -0.3450 -0.1418
 8877TIP3    H248123   0.890   5.369   2.388  3.2536 -1.7151 -2.2104
 8878TIP3   OH248124   1.444   4.989   3.050 -0.4477  0.2557 -0.5849
 8878TIP3    H148125   1.352   4.964   3.059  0.3958 -2.8457  0.0397
 8878TIP3    H248126   1.482   4.972   3.137  0.8405  0.9845 -0.9871
 8879TIP3   OH248127   5.194   1.820  12.593 -0.5267 -0.0380 -0.1253
 8879TIP3    H148128   5.283   1.856  12.591 -0.8295  0.7318 -0.0461
 8879TIP3    H248129   5.170   1.824  12.686  0.1345 -2.2066  0.1700
 8880TIP3   OH248130   1.715   1.091   0.724  0.3005 -0.6005  0.1162
 8880TIP3    H148131   1.765   1.009   0.727 -0.5255 -1.2082 -1.6961
 8880TIP3    H248132   1.644   1.079   0.787 -0.0869 -1.4876 -0.4750
 8881TIP3   OH248133   4.989   5.310   2.542 -0.3337 -0.5001 -0.6997
 8881TIP3    H148134   5.015   5.375   2.478 -2.0489  1.3523  0.4116
 8881TIP3    H248135   4.924   5.256   2.497 -1.0643  0.3991 -0.7342
 8882TIP3   OH248136   6.455   0.705  14.352 -0.0757  0.6068 -0.8419
 8882TIP3    H148137   6.459   0.637  14.285  0.5991 -0.7618  0.5491
 8882TIP3    H248138   6.542   0.744  14.352 -0.2452  0.9798 -1.1541
 8883TIP3   OH248139   0.553   5.319  12.526 -0.0876  0.1999  0.3920
 8883TIP3    H148140   0.605   5.391  12.489 -0.3153  0.5950  0.8366
 8883TIP3    H248141   0.462   5.346  12.515 -0.1799 -0.1248  0.3506
 8884TIP3   OH248142   6.449   6.678  12.153 -0.0054  0.1749  0.1011
 8884TIP3    H148143   6.389   6.610  12.187  1.2444 -1.5224 -1.0363
 8884TIP3    H248144   6.475   6.727  12.231 -0.6272 -0.9044  1.0129
 8885TIP3   OH248145   3.136   5.012   1.394 -0.5179 -0.1567 -0.5515
 8885TIP3    H148146   3.067   5.025   1.328 -0.9419  0.6347  0.0298
 8885TIP3    H248147   3.155   4.918   1.391 -0.9209 -0.2184 -1.4159
 8886TIP3   OH248148   0.906   4.560   5.980  0.3467 -0.1468 -0.0607
 8886TIP3    H148149   0.826   4.513   6.003  0.1925  0.1275 -0.0322
 8886TIP3    H248150   0.953   4.501   5.920 -0.0145 -0.1817 -0.3073
 8887TIP3   OH248151   0.511   3.683  16.057 -0.5879  0.2013  0.0458
 8887TIP3    H148152   0.492   3.747  16.126  1.5066  0.2459  0.5973
 8887TIP3    H248153   0.486   3.599  16.096 -2.2743  0.5318 -0.2715
 8888TIP3   OH248154   6.370   6.206   2.974 -0.0494 -0.0776  0.4054
 8888TIP3    H148155   6.297   6.224   3.033 -0.6835 -3.0236  0.6343
 8888TIP3    H248156   6.332   6.209   2.887  0.0425  0.4863  0.3821
 8889TIP3   OH248157   2.497   1.759   1.104  0.0222  0.0414 -0.6101
 8889TIP3    H148158   2.541   1.818   1.042 -0.2398 -0.6304 -1.4433
 8889TIP3    H248159   2.406   1.759   1.075 -0.3219  0.5876  0.4579
 8890TIP3   OH248160   1.194   3.660   3.790  0.0581  0.1881 -0.0190
 8890TIP3    H148161   1.265   3.634   3.848 -1.9084 -1.0200  1.9502
 8890TIP3    H248162   1.187   3.588   3.727  0.2900  0.0930  0.0638
 8891TIP3   OH248163   0.382   3.453  16.157  0.1703 -0.1634 -0.7199
 8891TIP3    H148164   0.348   3.448  16.246  0.7228  2.4073 -0.3030
 8891TIP3    H248165   0.460   3.397  16.158 -0.1836 -0.6455  0.2457
 8892TIP3   OH248166   4.433   0.436   2.629 -0.6019 -0.2296  0.3568
 8892TIP3    H148167   4.474   0.510   2.675 -0.0824  0.5245 -1.3024
 8892TIP3    H248168   4.342   0.462   2.619 -0.0520  1.0048 -1.7982
 8893TIP3   OH248169   5.694   0.555  13.174  0.6689 -0.2453 -0.3616
 8893TIP3    H148170   5.692   0.491  13.244 -0.3823  0.6441  0.4388
 8893TIP3    H248171   5.755   0.519  13.109 -0.6129 -2.4773 -0.3538
 8894TIP3   OH248172   0.969   0.323  14.593  0.5160  0.1462  0.0140
 8894TIP3    H148173   1.044   0.334  14.535  0.3466 -1.2818 -0.4787
 8894TIP3    H248174   0.901   0.379  14.555  0.3802 -0.8378 -1.2130
 8895TIP3   OH248175   3.514   5.673   1.323  0.5845 -0.3012 -0.1743
 8895TIP3    H148176   3.481   5.637   1.241 -2.2084 -0.8010  1.1135
 8895TIP3    H248177   3.479   5.614   1.391  0.9690  1.3804  1.5318
 8896TIP3   OH248178   5.424   5.603   4.159 -0.0189  0.2940 -0.2833
 8896TIP3    H148179   5.455   5.594   4.249  0.4275  0.6535 -0.3975
 8896TIP3    H248180   5.417   5.697   4.146  0.4587  0.2583 -0.8062
 8897TIP3   OH248181   5.257   2.958  13.511  0.2142  0.1363 -0.0056
 8897TIP3    H148182   5.216   3.004  13.438  1.1422 -1.1806 -1.3794
 8897TIP3    H248183   5.344   2.996  13.517  0.0962  0.3336  0.5235
 8898TIP3   OH248184   1.057   0.941  15.319  0.1373  0.3561 -0.8880
 8898TIP3    H148185   1.106   1.014  15.283  0.5156  0.6281  0.1542
 8898TIP3    H248186   1.123   0.877  15.346  0.0056  1.2020  1.5399
 8899TIP3   OH248187   0.226   3.826  13.180  0.0274 -0.0678 -0.0580
 8899TIP3    H148188   0.283   3.777  13.240  0.3744  0.1515 -0.2034
 8899TIP3    H248189   0.270   3.819  13.095 -0.9451 -1.1558 -0.4816
 8900TIP3   OH248190   3.913   4.333  17.043  0.2938 -0.2215  0.1912
 8900TIP3    H148191   3.930   4.334  17.137  0.1335  2.5238  0.2168
 8900TIP3    H248192   3.819   4.350  17.036  0.0234 -1.8497 -0.4459
 8901TIP3   OH248193   0.230   3.643  16.005  0.6991  0.1385 -0.0481
 8901TIP3    H148194   0.193   3.726  16.037 -0.9243 -0.1141 -1.1948
 8901TIP3    H248195   0.301   3.624  16.065  1.1100  2.3849  0.2335
 8902TIP3   OH248196   2.688   1.983  11.547 -0.3687 -0.0605  0.5194
 8902TIP3    H148197   2.724   1.954  11.463  0.9514  2.7762  0.0275
 8902TIP3    H248198   2.631   1.912  11.575  1.1626 -2.1774 -1.5381
 8903TIP3   OH248199   6.386   4.411   2.318 -0.3383  0.0205 -0.1098
 8903TIP3    H148200   6.412   4.482   2.259  1.1114  0.0450  0.5409
 8903TIP3    H248201   6.313   4.448   2.368 -1.6133 -0.0251 -1.9023
 8904TIP3   OH248202   0.075   3.217   4.903 -0.6231 -0.7874  0.6011
 8904TIP3    H148203   0.147   3.227   4.965 -1.1661 -0.8850  1.2438
 8904TIP3    H248204   0.086   3.290   4.842 -1.0158  0.2406  1.7359
 8905TIP3   OH248205   1.217   0.090  11.798  0.8697  0.1658 -0.1505
 8905TIP3    H148206   1.209   0.184  11.784 -0.8651  0.0203 -0.2436
 8905TIP3    H248207   1.139   0.066  11.848  1.2683 -1.2340 -0.1689
 8906TIP3   OH248208   2.781   4.686  17.172  0.6493  0.0786  0.2634
 8906TIP3    H148209   2.705   4.733  17.206  0.9490  1.2659 -0.6898
 8906TIP3    H248210   2.782   4.604  17.221 -0.0277  0.9459  1.7612
 8907TIP3   OH248211   0.405   5.014   4.670  0.1737  0.0357 -0.3423
 8907TIP3    H148212   0.482   4.959   4.687  0.8933  1.1160 -0.0820
 8907TIP3    H248213   0.438   5.104   4.672 -0.6412  0.4317 -2.6327
 8908TIP3   OH248214   1.962   2.912  11.275 -0.2917 -0.0018 -0.5703
 8908TIP3    H148215   1.869   2.893  11.264 -0.5220  1.0016 -0.4603
 8908TIP3    H248216   1.972   3.001  11.240  0.1300  0.8629  1.6705
 8909TIP3   OH248217   6.176   2.368   4.558  0.0799  0.4939  0.0141
 8909TIP3    H148218   6.090   2.392   4.592  0.9176  0.4001  2.2820
 8909TIP3    H248219   6.228   2.347   4.636  1.1881 -2.7386 -1.4950
 8910TIP3   OH248220   3.264   0.478  14.042  0.2970 -0.1596 -0.1805
 8910TIP3    H148221   3.322   0.402  14.039  1.0038  0.4368 -2.9720
 8910TIP3    H248222   3.307   0.543  13.986 -1.5482  1.3784  0.1458
 8911TIP3   OH248223   4.281   4.815   0.197 -0.3361 -0.2062  0.3114
 8911TIP3    H148224   4.371   4.815   0.231  0.1937 -0.1189 -1.0538
 8911TIP3    H248225   4.227   4.834   0.273  0.8259 -0.0929  1.1234
 8912TIP3   OH248226   6.015   6.564  16.013 -0.4356 -0.4170 -0.1548
 8912TIP3    H148227   6.032   6.648  15.970  1.6608 -1.5853 -1.7338
 8912TIP3    H248228   6.078   6.561  16.085  0.1243 -1.0288 -0.6681
 8913TIP3   OH248229   3.419   0.523  16.090  0.1407 -0.3833 -0.5568
 8913TIP3    H148230   3.350   0.550  16.029 -0.0470 -2.8587 -1.4599
 8913TIP3    H248231   3.373   0.471  16.156  0.6977  0.4195  0.4747
 8914TIP3   OH248232   3.418   0.964   6.002  0.0649  0.3760  0.4815
 8914TIP3    H148233   3.460   0.879   5.991 -0.2794  0.3661 -0.8665
 8914TIP3    H248234   3.354   0.951   6.071 -0.5306 -0.6658 -0.2678
 8915TIP3   OH248235   5.918   4.565  12.653 -0.2852  0.1159  0.0066
 8915TIP3    H148236   6.000   4.576  12.702  0.0926 -0.7540 -0.4285
 8915TIP3    H248237   5.930   4.619  12.575 -0.2859  0.3146  0.1439
 8916TIP3   OH248238   5.578   5.343  14.938 -0.5624 -0.0382 -0.3586
 8916TIP3    H148239   5.608   5.360  15.028 -3.2225  4.4645 -0.1530
 8916TIP3    H248240   5.505   5.282  14.949 -1.0800  0.7349  0.5965
 8917TIP3   OH248241   5.696   1.769   4.946  0.0673  0.0891 -0.2049
 8917TIP3    H148242   5.784   1.763   4.985 -0.3567  1.3556  1.0187
 8917TIP3    H248243   5.637   1.754   5.019 -0.7441  1.0190 -0.6556
 8918TIP3   OH248244   4.679   4.048  16.741  0.1211  0.2371 -0.1804
 8918TIP3    H148245   4.701   4.089  16.824  0.3840  0.7685 -0.5100
 8918TIP3    H248246   4.763   4.016  16.707 -0.0949 -0.6595  0.1201
 8919TIP3   OH248247   0.308   5.661   0.121 -0.2812 -0.0022  0.2394
 8919TIP3    H148248   0.347   5.727   0.065  1.6998 -0.8118  0.6246
 8919TIP3    H248249   0.267   5.599   0.061  3.0320 -1.6220 -0.4706
 8920TIP3   OH248250   0.163   4.320   6.002 -0.0570 -0.8526  0.2893
 8920TIP3    H148251   0.172   4.374   6.081  0.6780 -0.1259 -0.2742
 8920TIP3    H248252   0.137   4.234   6.034 -2.7200  0.2121  1.1202
 8921TIP3   OH248253   2.765   0.868  10.828  0.5108  0.4454  0.2529
 8921TIP3    H148254   2.801   0.797  10.774  0.6494 -0.2813  1.2810
 8921TIP3    H248255   2.842   0.914  10.861  0.4645  0.0587  0.9124
 8922TIP3   OH248256   4.457   2.315  14.841  0.5398 -0.5155  0.3918
 8922TIP3    H148257   4.422   2.360  14.918  0.7327 -2.1099  1.4299
 8922TIP3    H248258   4.420   2.227  14.846  0.8854 -0.7581 -1.1231
 8923TIP3   OH248259   0.412   4.268   3.337  0.3740 -0.4235 -0.0693
 8923TIP3    H148260   0.386   4.293   3.248  2.1458 -0.3802 -0.5744
 8923TIP3    H248261   0.381   4.178   3.346 -1.7051  0.2719  0.0387
 8924TIP3   OH248262   2.304   4.333  16.492  0.3445  0.8182 -0.0911
 8924TIP3    H148263   2.384   4.311  16.540  0.6479 -0.2313 -1.0395
 8924TIP3    H248264   2.317   4.423  16.463  1.9659  0.0643 -1.7674
 8925TIP3   OH248265   4.365   6.152   3.257 -0.2846  0.2070 -0.5053
 8925TIP3    H148266   4.312   6.110   3.324  0.8100 -1.9379 -0.9376
 8925TIP3    H248267   4.309   6.223   3.223 -2.0817 -0.7385  0.4008
 8926TIP3   OH248268   6.635   1.997  14.451 -0.2710  0.3786 -0.8202
 8926TIP3    H148269   6.641   2.091  14.432 -1.1353  0.4828 -0.5932
 8926TIP3    H248270   6.546   1.985  14.483  0.2765 -0.2912  0.4747
 8927TIP3   OH248271   0.658   5.300  11.220  0.6834  0.2165  0.0934
 8927TIP3    H148272   0.658   5.256  11.305  1.2101 -0.6042 -0.3280
 8927TIP3    H248273   0.605   5.378  11.234  2.1476  0.9702  1.6380
 8928TIP3   OH248274   5.768   4.817   0.189  0.1884  0.3320 -0.3290
 8928TIP3    H148275   5.790   4.869   0.113  0.6463 -1.1473 -1.2342
 8928TIP3    H248276   5.693   4.862   0.229  1.2598  2.2579 -0.4571
 8929TIP3   OH248277   5.548   1.618   1.789  0.2755  0.0853 -0.0768
 8929TIP3    H148278   5.610   1.689   1.800  0.2915 -0.0253  0.5954
 8929TIP3    H248279   5.491   1.646   1.717 -0.1533  1.1007  0.6369
 8930TIP3   OH248280   0.159   4.155   2.697 -0.6221 -0.0140 -0.0064
 8930TIP3    H148281   0.206   4.218   2.642  0.5307 -0.1834  0.7690
 8930TIP3    H248282   0.228   4.112   2.748 -1.5165 -1.0630  0.3271
 8931TIP3   OH248283   4.963   6.635   0.766  0.5286 -0.0582  0.0871
 8931TIP3    H148284   4.951   6.556   0.817 -1.2141 -0.8464 -1.4968
 8931TIP3    H248285   4.971   6.605   0.676  1.9375  1.4310 -0.3213
 8932TIP3   OH248286   0.704   6.782  12.057 -0.6773 -0.6408 -0.3007
 8932TIP3    H148287   0.697   6.853  11.993  2.0800 -0.0279  0.0044
 8932TIP3    H248288   0.752   6.713  12.011 -1.7288 -1.5773  0.0036
 8933TIP3   OH248289   5.654   2.848   6.632 -0.1836  0.1922 -0.0743
 8933TIP3    H148290   5.623   2.928   6.674  0.1666  0.5894 -0.5550
 8933TIP3    H248291   5.598   2.779   6.666 -0.2548  0.5891  0.6195
 8934TIP3   OH248292   3.154   3.059   2.955  0.1065 -0.3035  0.5233
 8934TIP3    H148293   3.189   3.130   3.009 -0.9028  0.2016  0.5095
 8934TIP3    H248294   3.116   2.998   3.018 -4.1118  1.9010  0.2553
 8935TIP3   OH248295   0.380   0.603   3.733  0.8449 -0.1699 -0.0588
 8935TIP3    H148296   0.419   0.668   3.676  0.0820  0.6830  0.3804
 8935TIP3    H248297   0.373   0.645   3.819 -1.8008  0.0352 -0.3260
 8936TIP3   OH248298   0.628   5.852  17.048 -0.7310  0.3577  0.5813
 8936TIP3    H148299   0.603   5.944  17.039 -2.6838 -0.3151 -1.3009
 8936TIP3    H248300   0.618   5.816  16.960  1.1304 -1.4043  1.0494
 8937TIP3   OH248301   2.597   1.521   3.396 -0.5573 -0.1159  0.1133
 8937TIP3    H148302   2.643   1.535   3.313  0.0480 -0.2536  0.4225
 8937TIP3    H248303   2.577   1.609   3.428  1.9305  0.0761  1.3260
 8938TIP3   OH248304   1.360   3.445   0.467  0.4176 -0.6781  0.4901
 8938TIP3    H148305   1.373   3.377   0.402  0.6164  0.7778 -1.0167
 8938TIP3    H248306   1.362   3.527   0.418 -0.0169  0.4194  2.2359
 8939TIP3   OH248307   0.499   2.074   4.425  0.8492 -0.3541 -0.0528
 8939TIP3    H148308   0.564   2.078   4.496 -0.9437 -1.9966  1.7682
 8939TIP3    H248309   0.426   2.128   4.457  0.6330  0.1253 -1.3412
 8940TIP3   OH248310   3.395   2.011   0.387 -0.1989  0.0266  0.5020
 8940TIP3    H148311   3.353   1.956   0.454  0.1396 -0.6234  0.1930
 8940TIP3    H248312   3.368   2.100   0.408 -0.0025 -0.1564  1.5766
 8941TIP3   OH248313   1.550   3.735  16.097  0.5745 -0.2449 -0.3646
 8941TIP3    H148314   1.627   3.695  16.058  0.2861  0.0348 -1.2258
 8941TIP3    H248315   1.577   3.758  16.186  0.9402 -1.7398 -0.0875
 8942TIP3   OH248316   0.717   0.174  16.047  0.1335 -0.3619  0.7761
 8942TIP3    H148317   0.682   0.241  15.989 -0.4992 -2.7617 -1.7240
 8942TIP3    H248318   0.670   0.186  16.129 -0.3210  1.9011  0.2236
 8943TIP3   OH248319   4.195   5.832  16.886 -0.7382 -0.5513  0.0806
 8943TIP3    H148320   4.201   5.840  16.791 -1.9790  0.2665  0.0615
 8943TIP3    H248321   4.232   5.913  16.919 -0.5187 -0.7352  0.2820
 8944TIP3   OH248322   4.517   3.202   4.114  0.2646 -0.1966  0.5581
 8944TIP3    H148323   4.536   3.126   4.059  0.4430 -0.0110  0.3636
 8944TIP3    H248324   4.432   3.233   4.082  0.7195  0.3666 -0.1254
 8945TIP3   OH248325   4.933   2.765   5.708  0.4280 -0.3633  0.4891
 8945TIP3    H148326   4.893   2.681   5.733  1.7549 -1.3907 -0.6957
 8945TIP3    H248327   5.023   2.758   5.739  1.1469 -0.2856 -1.4979
 8946TIP3   OH248328   3.592   1.519   5.664 -0.9832  0.0755 -0.4298
 8946TIP3    H148329   3.653   1.540   5.594  0.6172 -0.3518  0.7949
 8946TIP3    H248330   3.604   1.588   5.729  0.3064 -1.5282  1.1080
 8947TIP3   OH248331   5.162   1.995  17.196 -0.5548 -0.5326  0.7398
 8947TIP3    H148332   5.108   1.921  17.223 -0.3663 -0.3355  1.6658
 8947TIP3    H248333   5.250   1.972  17.226 -0.3241 -0.3521  0.2100
 8948TIP3   OH248334   0.502   3.444   6.695 -0.2142 -0.0956  0.7459
 8948TIP3    H148335   0.452   3.366   6.719  1.0137 -0.9100  0.7077
 8948TIP3    H248336   0.470   3.513   6.754 -0.9564 -0.7456  1.1063
 8949TIP3   OH248337   0.720   5.434  12.038  0.1023 -0.2912 -0.0344
 8949TIP3    H148338   0.680   5.354  12.071 -2.0611  0.5592 -0.5634
 8949TIP3    H248339   0.767   5.407  11.959 -0.9832 -0.9477 -0.4551
 8950TIP3   OH248340   5.662   6.648  11.170  0.0497 -0.8663 -0.2787
 8950TIP3    H148341   5.597   6.707  11.209 -0.0049 -0.5859 -0.7842
 8950TIP3    H248342   5.624   6.624  11.086  0.4904 -0.9026 -0.4670
 8951TIP3   OH248343   5.481   1.602  14.316 -0.1525 -0.0897 -0.1528
 8951TIP3    H148344   5.482   1.683  14.366 -2.7693 -0.3211  0.3230
 8951TIP3    H248345   5.482   1.630  14.224 -0.1641  0.4657  0.0204
 8952TIP3   OH248346   4.549   2.590  14.416  0.0690  0.5653  0.1360
 8952TIP3    H148347   4.553   2.498  14.442  1.3932  0.5293 -0.1232
 8952TIP3    H248348   4.641   2.616  14.408 -0.2967  1.3726 -1.6536
 8953TIP3   OH248349   5.153   0.407  13.501  0.2939  0.3509  0.3038
 8953TIP3    H148350   5.176   0.315  13.489  0.7104  0.7152 -1.9182
 8953TIP3    H248351   5.235   0.449  13.527  0.7123  0.5475 -1.3142
 8954TIP3   OH248352   5.287   5.118   2.142  0.4901 -0.3219 -0.3330
 8954TIP3    H148353   5.293   5.098   2.049  0.2309  1.6699 -0.7918
 8954TIP3    H248354   5.201   5.158   2.152 -0.5401 -2.7956  1.2250
 8955TIP3   OH248355   0.448   5.766  11.978 -0.0083 -0.3754 -0.3429
 8955TIP3    H148356   0.468   5.841  12.033  0.4410  0.3937 -1.5389
 8955TIP3    H248357   0.453   5.800  11.889 -3.0323 -1.0170 -0.8125
 8956TIP3   OH248358   0.787   4.365  12.372 -0.3212 -0.4404 -0.1694
 8956TIP3    H148359   0.772   4.272  12.359  1.9882 -0.6268 -1.7071
 8956TIP3    H248360   0.750   4.406  12.294 -0.8836 -0.0904  0.2709
 8957TIP3   OH248361   0.670   4.237   4.952  0.5358  0.3870  0.3149
 8957TIP3    H148362   0.676   4.321   4.907  2.1118 -0.4290 -1.0638
 8957TIP3    H248363   0.756   4.197   4.939 -0.0181 -1.2114  1.4209
 8958TIP3   OH248364   2.676   5.988  15.909 -0.2952 -0.2881 -0.7899
 8958TIP3    H148365   2.670   5.938  15.990  1.0159 -1.2214 -1.2359
 8958TIP3    H248366   2.749   5.947  15.861 -0.6521  0.6317 -2.1589
 8959TIP3   OH248367   0.936   2.943  13.571 -0.5848 -0.2140 -0.2564
 8959TIP3    H148368   1.017   2.902  13.542 -1.0285 -0.1234 -1.6889
 8959TIP3    H248369   0.935   2.932  13.666  1.0316 -0.3268 -0.2457
 8960TIP3   OH248370   3.156   1.956   4.975 -0.4684 -0.7019  0.1746
 8960TIP3    H148371   3.130   1.895   4.905  0.5850 -1.8165  0.7355
 8960TIP3    H248372   3.240   1.992   4.945 -1.1869  0.6694 -0.2552
 8961TIP3   OH248373   6.521   3.888  12.049 -0.1097  0.1141 -0.1131
 8961TIP3    H148374   6.565   3.862  12.130  0.5861  1.7909  0.0763
 8961TIP3    H248375   6.556   3.828  11.983 -0.0018 -0.6787  0.6463
 8962TIP3   OH248376   3.731   0.295   2.981 -0.5863 -0.8508 -0.0941
 8962TIP3    H148377   3.689   0.211   2.963 -2.5663 -0.0908  0.8466
 8962TIP3    H248378   3.663   0.348   3.021  0.2861  1.6228 -1.7474
 8963TIP3   OH248379   2.374   1.022   2.621 -0.2881 -0.0423  0.0544
 8963TIP3    H148380   2.285   1.053   2.634  0.4006  1.4418  1.3714
 8963TIP3    H248381   2.382   0.945   2.677 -0.4675  0.3532  0.6250
 8964TIP3   OH248382   3.241   3.510  11.840 -0.4716 -0.9121 -0.0860
 8964TIP3    H148383   3.337   3.516  11.847 -0.6012  0.5755  0.5857
 8964TIP3    H248384   3.219   3.432  11.890  0.3149 -0.6953  0.6344
 8965TIP3   OH248385   6.244   5.248   5.446  0.2780  0.0567 -0.0097
 8965TIP3    H148386   6.265   5.339   5.426  1.2165 -0.3686 -0.9894
 8965TIP3    H248387   6.152   5.251   5.474  0.0766  1.2030 -0.7299
 8966TIP3   OH248388   1.361   4.932   1.664 -0.1975 -0.0278  0.5738
 8966TIP3    H148389   1.402   5.002   1.716  0.5226 -1.1880  1.6233
 8966TIP3    H248390   1.336   4.866   1.730 -1.9966 -0.1933 -0.2711
 8967TIP3   OH248391   3.595   0.122   3.780 -0.0752 -0.1592  0.7799
 8967TIP3    H148392   3.565   0.208   3.808  3.6253  1.2892  0.5706
 8967TIP3    H248393   3.605   0.072   3.861 -1.0823 -0.0276  0.9929
 8968TIP3   OH248394   5.568   0.049  14.075 -0.0582  0.7255 -0.3244
 8968TIP3    H148395   5.616  -0.030  14.099  0.6742  1.5885  1.1396
 8968TIP3    H248396   5.614   0.082  13.998 -0.3791 -0.2719 -0.9550
 8969TIP3   OH248397   0.213   4.478   2.886  0.3574 -0.5069 -0.4355
 8969TIP3    H148398   0.188   4.571   2.893  2.1089 -0.1877  2.0164
 8969TIP3    H248399   0.277   4.477   2.815  0.1105  0.1105 -0.6763
 8970TIP3   OH248400   3.893   1.115  16.003 -0.5646 -0.0300  0.1662
 8970TIP3    H148401   3.853   1.172  15.938 -0.5228  3.0234  2.7052
 8970TIP3    H248402   3.981   1.098  15.969 -0.6401  1.2679 -0.7251
 8971TIP3   OH248403   2.241   6.641   4.081 -0.7968 -0.0882  0.1168
 8971TIP3    H148404   2.191   6.691   4.017  0.0440 -0.3055 -0.7248
 8971TIP3    H248405   2.236   6.550   4.049  0.2315 -0.0925 -0.0511
 8972TIP3   OH248406   4.616   3.045  14.814 -0.2914  0.7801 -0.2552
 8972TIP3    H148407   4.610   3.139  14.795 -0.0044  1.0387  0.8943
 8972TIP3    H248408   4.698   3.036  14.861 -1.5964  0.3645  2.0051
 8973TIP3   OH248409   6.718   0.960   5.679  0.8030 -0.2832  0.0321
 8973TIP3    H148410   6.808   0.985   5.654 -0.0763  1.7475 -1.2682
 8973TIP3    H248411   6.694   1.024   5.746  0.4807 -1.1181  0.7230
 8974TIP3   OH248412   3.435   3.951  11.370 -0.2833  0.6135  0.0304
 8974TIP3    H148413   3.468   4.040  11.357 -0.1314  0.4614 -0.6827
 8974TIP3    H248414   3.370   3.959  11.439 -2.8095  1.9214 -2.3756
 8975TIP3   OH248415   5.771   1.197  15.756  0.7466 -0.2611  0.0658
 8975TIP3    H148416   5.762   1.120  15.700 -1.2652 -1.2119  1.6289
 8975TIP3    H248417   5.774   1.270  15.695 -1.3309 -1.2684 -1.3322
 8976TIP3   OH248418   0.913   1.808  12.063  0.0250  0.2469 -0.0798
 8976TIP3    H148419   0.977   1.806  11.992 -1.0635 -1.7078 -1.0175
 8976TIP3    H248420   0.829   1.790  12.021 -0.6599 -0.7377  1.6609
 8977TIP3   OH248421   3.338   3.863   3.827  0.3763 -0.2939  0.1237
 8977TIP3    H148422   3.421   3.909   3.813  1.0473 -0.6498  2.7147
 8977TIP3    H248423   3.308   3.893   3.913 -2.0473 -0.3980 -0.6415
 8978TIP3   OH248424   5.981   1.111  16.201  0.4387 -0.1486  0.3692
 8978TIP3    H148425   5.940   1.048  16.261  2.5957 -0.6344  1.4112
 8978TIP3    H248426   6.014   1.181  16.259  1.6339 -0.1093 -0.3329
 8979TIP3   OH248427   2.526   5.942   4.133 -0.0386 -0.4535  0.4968
 8979TIP3    H148428   2.595   5.962   4.069 -0.3058 -2.7037 -0.5258
 8979TIP3    H248429   2.542   5.851   4.158 -0.9740 -0.1258  2.3697
 8980TIP3   OH248430   1.562   4.000   6.202  0.1602 -0.4948  0.2594
 8980TIP3    H148431   1.611   4.032   6.126 -1.5712  0.1647 -0.6131
 8980TIP3    H248432   1.629   3.981   6.267  1.5389  0.9311 -0.6958
 8981TIP3   OH248433   3.463   3.111   2.810  0.1728 -0.7318  0.4804
 8981TIP3    H148434   3.382   3.074   2.776 -0.0244 -1.4501  1.7235
 8981TIP3    H248435   3.447   3.123   2.903  0.8634  0.8228  0.4159
 8982TIP3   OH248436   2.949   4.134  15.344  0.0973  0.8947 -0.5399
 8982TIP3    H148437   3.021   4.115  15.404  2.7607  0.2612 -3.7571
 8982TIP3    H248438   2.892   4.057  15.350  0.4904  0.7074  0.9248
 8983TIP3   OH248439   1.934   2.739   3.200  0.4083 -0.5666 -0.1423
 8983TIP3    H148440   1.986   2.665   3.231  1.6913 -0.7898 -2.6922
 8983TIP3    H248441   1.959   2.811   3.258  0.6900 -1.6054  1.0591
 8984TIP3   OH248442   0.258   5.060  11.741  0.1544  0.7758 -0.6019
 8984TIP3    H148443   0.177   5.111  11.744  0.7329  1.6018  1.3353
 8984TIP3    H248444   0.326   5.124  11.720  0.6824  0.5531  0.4164
 8985TIP3   OH248445   2.798   4.993  11.480  0.5455  0.7717 -0.7448
 8985TIP3    H148446   2.871   5.051  11.459  0.4794  1.3085  0.4282
 8985TIP3    H248447   2.816   4.913  11.431  1.0832  1.4714 -1.7197
 8986TIP3   OH248448   0.331   5.539  13.543  0.2972 -0.0587  0.5673
 8986TIP3    H148449   0.317   5.455  13.586 -0.7889  0.0621  0.4538
 8986TIP3    H248450   0.334   5.603  13.614 -1.0042  0.0785  0.5018
 8987TIP3   OH248451   3.000   5.558   4.927  0.5410  0.2513  0.0931
 8987TIP3    H148452   3.001   5.640   4.975 -0.7344  0.3327  0.0121
 8987TIP3    H248453   3.075   5.563   4.867 -0.3468  1.9640 -0.9146
 8988TIP3   OH248454   2.985   5.526   4.262 -0.0735  0.1915 -0.1585
 8988TIP3    H148455   2.963   5.601   4.317 -0.5534 -0.2703  0.2842
 8988TIP3    H248456   3.015   5.459   4.323  0.7590  0.1611 -0.5935
 8989TIP3   OH248457   1.441   3.307   4.939  0.0404  0.4971  0.1464
 8989TIP3    H148458   1.417   3.398   4.958 -1.7745 -0.0709  0.6490
 8989TIP3    H248459   1.372   3.255   4.981 -0.5277 -1.0244 -2.5648
 8990TIP3   OH248460   1.809   5.632  11.863 -0.2058 -0.2365  0.2536
 8990TIP3    H148461   1.841   5.708  11.816 -0.7441  0.2996  0.7515
 8990TIP3    H248462   1.806   5.562  11.797  1.6500 -0.2173  0.1208
 8991TIP3   OH248463   1.754   6.750   0.779  0.1993 -0.3472 -0.1241
 8991TIP3    H148464   1.662   6.733   0.757  0.6414 -4.0949  0.6933
 8991TIP3    H248465   1.750   6.817   0.847 -1.8435  0.4658 -0.9940
 8992TIP3   OH248466   5.516   6.085  14.037 -0.1322  0.3725  0.2954
 8992TIP3    H148467   5.557   6.030  13.970 -1.4195  1.8449 -1.7669
 8992TIP3    H248468   5.429   6.047  14.049 -0.4371  0.9818  0.0420
 8993TIP3   OH248469   3.590   4.897  17.112 -0.4016  0.4697  0.0666
 8993TIP3    H148470   3.570   4.887  17.019 -2.9100 -1.1757  0.7444
 8993TIP3    H248471   3.685   4.911  17.114  0.0994 -2.1039 -2.5337
 8994TIP3   OH248472   6.068   5.760   3.273 -0.4185  0.3499 -0.1757
 8994TIP3    H148473   6.131   5.789   3.207  2.1923  2.0615  2.9513
 8994TIP3    H248474   6.047   5.840   3.322 -0.4173 -1.2926  2.6021
 8995TIP3   OH248475   3.420   3.675   4.811  0.5509 -0.3476  0.3408
 8995TIP3    H148476   3.440   3.767   4.796  1.0894 -0.4854  0.2073
 8995TIP3    H248477   3.394   3.641   4.725  2.2566 -0.7931 -0.0079
 8996TIP3   OH248478   5.250   6.099  12.298  0.3072 -0.1247 -0.1879
 8996TIP3    H148479   5.244   6.068  12.208  0.1602  0.0646 -0.2446
 8996TIP3    H248480   5.199   6.036  12.349 -0.9918  0.6734 -0.4665
 8997TIP3   OH248481   4.861   0.523  16.328 -0.3482 -0.1875  0.0618
 8997TIP3    H148482   4.929   0.504  16.263 -1.8327 -2.9823 -0.7877
 8997TIP3    H248483   4.900   0.497  16.412  0.1762 -0.3307 -0.2228
 8998TIP3   OH248484   2.596   4.913   5.600  0.0907 -0.5001 -0.0529
 8998TIP3    H148485   2.678   4.864   5.599 -0.2230 -1.0024 -1.6024
 8998TIP3    H248486   2.609   4.979   5.668  1.2655 -1.4422  0.6644
 8999TIP3   OH248487   1.557   0.170  12.972  0.5731 -0.3114  0.0769
 8999TIP3    H148488   1.566   0.244  13.032 -0.3659 -1.5975  1.8427
 8999TIP3    H248489   1.528   0.210  12.890  1.4282  1.4238  0.5853
 9000TIP3   OH248490   3.131   6.159  15.110  0.3301  0.8789  0.2267
 9000TIP3    H148491   3.044   6.198  15.107 -0.7205 -1.4474 -1.8401
 9000TIP3    H248492   3.183   6.219  15.163 -2.8372  1.7129  2.5192
 9001TIP3   OH248493   4.071   5.543  11.351  0.3848  0.0677 -0.4224
 9001TIP3    H148494   4.150   5.520  11.301  1.6432  0.8666  1.1401
 9001TIP3    H248495   4.096   5.530  11.443 -1.2590  0.5050  0.1093
 9002TIP3   OH248496   5.468   2.048   1.025 -0.2971 -0.1064  0.4862
 9002TIP3    H148497   5.551   2.043   1.073 -0.7685  0.0836  1.3412
 9002TIP3    H248498   5.401   2.039   1.093 -0.9674 -0.9906 -0.2920
 9003TIP3   OH248499   6.807   5.125   3.577 -0.0996 -0.7162 -0.0302
 9003TIP3    H148500   6.830   5.105   3.668  0.5772  0.3680  0.0493
 9003TIP3    H248501   6.885   5.168   3.542 -1.3540  1.4489 -0.2761
 9004TIP3   OH248502   3.979   6.022   1.988 -0.6118 -0.1692  0.7334
 9004TIP3    H148503   3.904   6.016   1.929  0.1464 -0.2604 -0.2491
 9004TIP3    H248504   3.969   6.107   2.031 -0.9713  0.0672  0.1903
 9005TIP3   OH248505   0.989   4.807   1.722  0.1078 -0.0192  0.2231
 9005TIP3    H148506   0.984   4.874   1.653 -0.5900 -0.4455 -0.1515
 9005TIP3    H248507   0.981   4.724   1.675  1.4462 -0.3987  0.6378
 9006TIP3   OH248508   4.237   4.378   1.969 -0.2513 -0.3172  0.1419
 9006TIP3    H148509   4.178   4.382   2.045  1.5968  1.3147  1.5427
 9006TIP3    H248510   4.183   4.342   1.899 -2.0339 -1.8057  2.2051
 9007TIP3   OH248511   3.339   1.885  16.449 -0.5106  0.3189 -0.4423
 9007TIP3    H148512   3.326   1.825  16.523  0.9906 -1.4918 -1.5956
 9007TIP3    H248513   3.411   1.941  16.476  0.2393 -0.5409 -0.6306
 9008TIP3   OH248514   5.472   2.601  17.095  0.2029 -0.1132 -0.2284
 9008TIP3    H148515   5.419   2.620  17.018 -0.0750 -0.6907 -0.1755
 9008TIP3    H248516   5.412   2.612  17.169  0.0861 -1.0428 -0.1855
 9009TIP3   OH248517   2.748   2.776   5.156 -0.6766 -0.0099 -0.3929
 9009TIP3    H148518   2.839   2.748   5.152  0.2150  2.4001  1.9092
 9009TIP3    H248519   2.743   2.849   5.094 -1.3343 -0.8026 -1.2977
 9010TIP3   OH248520   1.164   2.825   2.263  0.4603 -0.0737  0.1307
 9010TIP3    H148521   1.069   2.833   2.272  0.4639 -0.4872  0.6005
 9010TIP3    H248522   1.199   2.902   2.307  0.2984  0.9813 -1.5509
 9011TIP3   OH248523   1.107   4.899   4.551 -0.0704  0.9920  0.0932
 9011TIP3    H148524   1.085   4.991   4.539 -3.5171  0.1804 -0.2641
 9011TIP3    H248525   1.080   4.856   4.470 -1.7287 -0.8477  1.5685
 9012TIP3   OH248526   0.938   4.124   4.991  0.3022  0.0045 -0.3900
 9012TIP3    H148527   0.979   4.050   4.946  0.0821  0.7745 -1.8807
 9012TIP3    H248528   0.999   4.145   5.062  0.5419 -1.3797 -0.1791
 9013TIP3   OH248529   6.370   4.589  11.473 -0.7642 -0.2023 -0.0067
 9013TIP3    H148530   6.327   4.508  11.500 -0.9227  0.5369  2.0081
 9013TIP3    H248531   6.301   4.655  11.474  0.1531  0.7767  2.2380
 9014TIP3   OH248532   0.845   2.875  12.112  0.1099  0.0685  0.0442
 9014TIP3    H148533   0.916   2.930  12.079  0.2051  1.0698  1.8218
 9014TIP3    H248534   0.776   2.937  12.135  0.9007 -0.3273  3.7649
 9015TIP3   OH248535   2.415   2.221   5.253  0.0503 -0.0088 -0.2076
 9015TIP3    H148536   2.341   2.277   5.232 -0.3690 -0.5678 -0.2538
 9015TIP3    H248537   2.481   2.241   5.188 -0.4077 -0.1521 -0.7172
 9016TIP3   OH248538   4.048   1.251   0.842 -0.1627 -0.3784 -0.1363
 9016TIP3    H148539   4.131   1.275   0.802  0.5126  0.7142  1.8580
 9016TIP3    H248540   4.069   1.237   0.935 -2.6050  2.1090  0.8490
 9017TIP3   OH248541   3.176   4.774  13.584  0.3299  0.4088  0.0200
 9017TIP3    H148542   3.101   4.755  13.641 -0.7338 -4.3693 -2.6629
 9017TIP3    H248543   3.251   4.779  13.643 -0.9208 -3.2086  2.0840
 9018TIP3   OH248544   0.374   5.633   5.578 -0.3976 -0.7196  0.3947
 9018TIP3    H148545   0.464   5.648   5.547 -1.6144 -0.6625 -3.3328
 9018TIP3    H248546   0.337   5.720   5.588 -0.9520 -0.7965 -0.9469
 9019TIP3   OH248547   2.372   6.642  16.600 -0.3095  0.5526  0.8519
 9019TIP3    H148548   2.355   6.717  16.543 -2.3633 -1.7379 -1.7101
 9019TIP3    H248549   2.435   6.589  16.551 -1.6962 -1.1897  0.9120
 9020TIP3   OH248550   6.657   0.121   3.800  0.1544  0.0262  0.5306
 9020TIP3    H148551   6.623   0.176   3.730  0.1873  1.5709  1.7070
 9020TIP3    H248552   6.594   0.050   3.808  1.2253 -1.3255 -2.4452
 9021TIP3   OH248553   5.784   2.095   6.812  0.0537 -0.2585  0.0296
 9021TIP3    H148554   5.751   2.179   6.781 -3.1335 -0.7275  1.9625
 9021TIP3    H248555   5.845   2.066   6.744  0.0928  2.9092 -1.3530
 9022TIP3   OH248556   3.956   5.344   2.551  0.4947 -0.1197  0.2838
 9022TIP3    H148557   4.013   5.305   2.618 -0.2325 -0.5839  0.6305
 9022TIP3    H248558   3.920   5.269   2.504  2.5438  0.2288 -1.9344
 9023TIP3   OH248559   1.590   5.380  11.218 -0.1312  0.0112 -0.3454
 9023TIP3    H148560   1.548   5.453  11.173  1.9378  1.7532  0.4890
 9023TIP3    H248561   1.602   5.314  11.150  2.6061  2.4373 -2.3727
 9024TIP3   OH248562   1.420   5.332  11.828 -0.2633 -0.2465 -0.0997
 9024TIP3    H148563   1.394   5.287  11.908 -0.6175 -2.1925 -1.2958
 9024TIP3    H248564   1.396   5.423  11.844 -1.1354 -0.7466  1.6587
 9025TIP3   OH248565   5.531   3.682  14.691 -0.0150  0.1198  0.0671
 9025TIP3    H148566   5.485   3.617  14.743 -0.3634  0.6154  0.3761
 9025TIP3    H248567   5.492   3.676  14.604 -0.6844  0.5617  0.3380
 9026TIP3   OH248568   1.817   1.273   1.551  0.0968  0.1195 -0.3349
 9026TIP3    H148569   1.825   1.352   1.497  0.1530  0.0501 -0.4287
 9026TIP3    H248570   1.829   1.304   1.641  0.2765  0.1940 -0.3836
 9027TIP3   OH248571   3.808   3.897   3.941  0.0747 -0.8688  0.2687
 9027TIP3    H148572   3.866   3.913   3.866  1.1747  0.8181  1.4396
 9027TIP3    H248573   3.842   3.954   4.010 -0.1993 -3.2357  2.4397
 9028TIP3   OH248574   1.868   4.434  12.109  0.6574  0.5303  0.0655
 9028TIP3    H148575   1.849   4.506  12.049  2.0743  1.2230  0.4331
 9028TIP3    H248576   1.936   4.383  12.066  0.9515  0.4450  0.6215
 9029TIP3   OH248577   5.501   4.855  13.449 -0.0481 -0.0458 -0.0696
 9029TIP3    H148578   5.514   4.908  13.371 -0.2284 -0.6769 -0.5250
 9029TIP3    H248579   5.487   4.766  13.417  0.5494 -0.4301  0.7035
 9030TIP3   OH248580   2.925   3.267  12.361  0.0968 -0.1570  0.1370
 9030TIP3    H148581   2.989   3.204  12.395 -0.3394 -0.9501 -0.5030
 9030TIP3    H248582   2.973   3.349  12.355  0.8992 -0.6152  0.2086
 9031TIP3   OH248583   0.924   2.633  11.997 -0.3916  0.4378  0.4709
 9031TIP3    H148584   0.874   2.711  12.021 -1.0917  0.2026 -0.1990
 9031TIP3    H248585   0.886   2.605  11.913  0.4666 -0.0868  0.2517
 9032TIP3   OH248586   4.315   4.414  14.687 -0.5143  0.0036  0.1466
 9032TIP3    H148587   4.408   4.427  14.706 -0.4755 -0.0313 -0.0181
 9032TIP3    H248588   4.290   4.340  14.742 -0.8189  0.9711  1.3360
 9033TIP3   OH248589   3.239   0.890  11.157 -0.2606  0.3010  0.7196
 9033TIP3    H148590   3.227   0.967  11.102  1.6512  0.1189  0.0084
 9033TIP3    H248591   3.229   0.816  11.097 -0.1496  0.0550  1.0031
 9034TIP3   OH248592   2.643   6.484  12.372  0.1377  0.2075 -0.2611
 9034TIP3    H148593   2.555   6.483  12.336 -0.6095 -1.6718  1.5239
 9034TIP3    H248594   2.690   6.417  12.320 -0.6876 -1.8407  1.5594
 9035TIP3   OH248595   1.003   4.603  17.154 -0.4450  0.0770  0.8070
 9035TIP3    H148596   0.993   4.685  17.202 -0.8888 -0.6594  1.9861
 9035TIP3    H248597   1.026   4.630  17.065  0.4080  1.4500  1.4389
 9036TIP3   OH248598   5.105   4.447   2.075 -0.4535  0.1344 -0.5756
 9036TIP3    H148599   5.079   4.394   1.999 -1.9163  0.2265 -0.1540
 9036TIP3    H248600   5.028   4.446   2.132 -0.3057  2.2833 -0.3140
 9037TIP3   OH248601   3.263   3.232  13.132  0.0402  0.4394 -0.3959
 9037TIP3    H148602   3.240   3.325  13.139 -0.5161  0.3668 -1.2210
 9037TIP3    H248603   3.340   3.230  13.074  2.4231  0.7135  2.6309
 9038TIP3   OH248604   1.379   3.702  15.522  0.2669  0.3167  0.5967
 9038TIP3    H148605   1.410   3.732  15.437  0.4718  0.2254  0.6387
 9038TIP3    H248606   1.410   3.612  15.528 -2.1748 -0.6544 -0.4725
 9039TIP3   OH248607   5.482   3.434   0.340 -0.3216 -0.9330  0.6968
 9039TIP3    H148608   5.554   3.472   0.389  0.6206 -1.7601 -0.0150
 9039TIP3    H248609   5.434   3.381   0.403  0.0879 -0.9199  1.0161
 9040TIP3   OH248610   1.586   5.804  17.106  0.0977  0.7597 -0.3330
 9040TIP3    H148611   1.554   5.790  17.017  1.0606 -0.5569 -0.4820
 9040TIP3    H248612   1.509   5.832  17.156 -1.0754 -1.3850 -0.9048
 9041TIP3   OH248613   6.587   3.501   2.667 -0.3225 -0.0089  0.0796
 9041TIP3    H148614   6.573   3.406   2.674 -0.9353  0.0279 -0.6491
 9041TIP3    H248615   6.649   3.511   2.595 -1.6314  0.2541 -1.0233
 9042TIP3   OH248616   5.852   2.261   1.370 -0.1772  0.0303  0.0319
 9042TIP3    H148617   5.838   2.296   1.283  0.0492 -0.3860 -0.1730
 9042TIP3    H248618   5.782   2.197   1.383 -0.1777  0.0508  0.1338
 9043TIP3   OH248619   6.505   6.046   3.314  0.0654 -0.4945  0.1403
 9043TIP3    H148620   6.461   6.098   3.381  2.4495  2.9814 -0.8909
 9043TIP3    H248621   6.594   6.080   3.310  0.4429 -1.5951 -3.7269
 9044TIP3   OH248622   0.617   6.551   5.120  0.3870  0.3988 -0.1426
 9044TIP3    H148623   0.612   6.463   5.083  0.1654  0.0779  0.6404
 9044TIP3    H248624   0.561   6.604   5.063 -0.0309 -0.1130 -0.2184
 9045TIP3   OH248625   0.019   4.290   0.881  0.2086  0.1260 -0.2633
 9045TIP3    H148626   0.040   4.276   0.789  0.8877 -0.9591  0.0491
 9045TIP3    H248627   0.087   4.243   0.929 -1.1465 -0.8310  0.7881
 9046TIP3   OH248628   3.811   4.828  13.305  0.0486  0.0800 -0.3809
 9046TIP3    H148629   3.805   4.764  13.376 -0.2778  0.5319  0.0017
 9046TIP3    H248630   3.894   4.809  13.262  0.7890  0.5348  0.8264
 9047TIP3   OH248631   5.611   4.223  13.306  0.3521 -0.1676 -0.0258
 9047TIP3    H148632   5.521   4.198  13.283  0.6256  0.6219 -2.1315
 9047TIP3    H248633   5.641   4.154  13.365 -0.8737 -1.6517 -1.0910
 9048TIP3   OH248634   3.920   2.374   4.187  0.5454 -0.2721 -0.0011
 9048TIP3    H148635   3.868   2.450   4.161 -2.0721 -1.9809  0.0800
 9048TIP3    H248636   3.986   2.366   4.118  1.6699  2.7875  0.6443
 9049TIP3   OH248637   0.527   0.608  17.211 -0.0567  0.0857 -0.0304
 9049TIP3    H148638   0.457   0.632  17.271 -1.1651 -0.4570 -1.0943
 9049TIP3    H248639   0.600   0.583  17.268 -1.6138 -2.0058  1.0906
 9050TIP3   OH248640   3.628   5.427   2.283 -0.6820 -0.3843 -0.3816
 9050TIP3    H148641   3.669   5.463   2.206  0.5585  0.6904  0.7675
 9050TIP3    H248642   3.684   5.354   2.309 -0.7776 -0.3785 -0.1533
 9051TIP3   OH248643   6.604   1.763   5.539 -0.4260  0.2232  0.4630
 9051TIP3    H148644   6.607   1.856   5.517  3.2913 -0.0515 -0.4868
 9051TIP3    H248645   6.591   1.718   5.455 -1.1380 -0.1561  0.7744
 9052TIP3   OH248646   1.572   1.599  11.668 -0.1526 -0.1355 -0.2725
 9052TIP3    H148647   1.612   1.683  11.647 -0.5378 -0.2788 -1.6745
 9052TIP3    H248648   1.483   1.606  11.635  0.0451 -1.3599 -1.1051
 9053TIP3   OH248649   5.539   0.456  14.853 -0.1756 -0.3347  0.1701
 9053TIP3    H148650   5.534   0.366  14.821  0.3681 -0.8511  1.4934
 9053TIP3    H248651   5.630   0.465  14.882  0.1104  1.0550 -1.1219
 9054TIP3   OH248652   5.329   4.779   1.929  1.1274 -0.5802  0.3453
 9054TIP3    H148653   5.334   4.716   1.857  0.2002  1.0058 -1.1335
 9054TIP3    H248654   5.241   4.766   1.965  1.1227 -0.4727  0.3715
 9055TIP3   OH248655   4.772   0.040  13.314 -0.0009 -0.7621 -0.0913
 9055TIP3    H148656   4.823  -0.029  13.357  2.0503  0.2659 -0.7950
 9055TIP3    H248657   4.758   0.007  13.226 -2.4006 -1.9524  0.6930
 9056TIP3   OH248658   1.014   0.055  11.347  0.5590  0.2275  0.1381
 9056TIP3    H148659   1.109   0.048  11.362  0.8995  2.8041 -0.5119
 9056TIP3    H248660   0.983   0.113  11.417 -0.2477  0.7182 -0.6136
 9057TIP3   OH248661   2.180   5.701   1.650 -0.5374  0.5542  0.1814
 9057TIP3    H148662   2.178   5.706   1.746 -0.3868 -0.4994  0.2500
 9057TIP3    H248663   2.230   5.621   1.632  0.1998  1.2230 -0.7899
 9058TIP3   OH248664   2.312   0.948  15.438  0.8795 -0.1693  0.1296
 9058TIP3    H148665   2.303   0.979  15.528  2.1696 -0.0975  0.2459
 9058TIP3    H248666   2.296   1.026  15.384 -2.2846 -0.7160  0.1797
 9059TIP3   OH248667   5.203   0.614   4.303 -0.3820 -0.0475 -0.0832
 9059TIP3    H148668   5.234   0.625   4.392 -1.1348 -1.6792  0.4046
 9059TIP3    H248669   5.282   0.601   4.250  0.0645  0.9997  0.3242
 9060TIP3   OH248670   1.183   3.248   5.024  0.1038 -0.0606  0.2014
 9060TIP3    H148671   1.167   3.154   5.028  1.3113 -0.2879 -0.1732
 9060TIP3    H248672   1.117   3.286   5.082 -0.8164 -1.0820 -0.1638
 9061TIP3   OH248673   6.220   6.491   2.244 -0.2694 -0.0096  0.6309
 9061TIP3    H148674   6.254   6.483   2.333  1.5415  0.0453 -0.0379
 9061TIP3    H248675   6.151   6.557   2.251  0.7994  1.0257  1.7408
 9062TIP3   OH248676   6.063   2.263  13.500 -0.2256  0.4136 -0.2165
 9062TIP3    H148677   6.139   2.264  13.557 -1.1062  0.1871  0.9870
 9062TIP3    H248678   5.994   2.306  13.550 -1.0224  0.2036 -1.1007
 9063TIP3   OH248679   6.009   6.736  13.245 -0.4358  0.0195 -0.4680
 9063TIP3    H148680   6.087   6.741  13.189 -0.7427  1.3142 -0.7939
 9063TIP3    H248681   5.955   6.669  13.203  0.8348 -1.4504  0.1998
 9064TIP3   OH248682   2.220   5.409  14.405  0.7897 -0.3454 -0.1379
 9064TIP3    H148683   2.215   5.480  14.340  1.7772 -0.6918 -0.6149
 9064TIP3    H248684   2.208   5.329  14.354  0.9022 -0.5839  0.2090
 9065TIP3   OH248685   6.707   1.692   1.349 -0.9405  0.2169 -0.0406
 9065TIP3    H148686   6.743   1.605   1.330  0.1086  0.6143  0.0771
 9065TIP3    H248687   6.733   1.745   1.274  0.8643  1.1206  1.1967
 9066TIP3   OH248688   4.011   5.805  11.805  0.1885 -0.0717  0.0880
 9066TIP3    H148689   3.924   5.785  11.769 -0.7422  0.5960  1.8780
 9066TIP3    H248690   4.068   5.737  11.769 -0.5728  0.8477 -2.9835
 9067TIP3   OH248691   4.710   3.733   5.315 -0.5167 -0.3898  0.2219
 9067TIP3    H148692   4.739   3.823   5.301 -0.1719 -0.6198 -0.5508
 9067TIP3    H248693   4.639   3.720   5.252  0.5603 -1.1933 -0.8523
 9068TIP3   OH248694   5.480   2.414   3.380  0.1009  0.0205  0.0604
 9068TIP3    H148695   5.427   2.457   3.313 -0.2294  0.8554  0.8514
 9068TIP3    H248696   5.524   2.486   3.425 -0.9927 -0.4122  1.8505
 9069TIP3   OH248697   0.656   0.540   0.129 -0.1456 -0.4223  0.7571
 9069TIP3    H148698   0.706   0.460   0.143  2.6405  1.4977  2.1596
 9069TIP3    H248699   0.613   0.557   0.213  0.7326  0.4963  1.0338
 9070TIP3   OH248700   2.652   1.727   4.475  0.2236  0.2358  0.1730
 9070TIP3    H148701   2.647   1.811   4.430 -1.0967  0.4592  0.7063
 9070TIP3    H248702   2.664   1.663   4.406 -2.0652  0.5432 -0.5361
 9071TIP3   OH248703   6.109   5.538  17.096  0.1210  0.2981 -0.1459
 9071TIP3    H148704   6.169   5.463  17.095  0.8273  0.8675 -0.5195
 9071TIP3    H248705   6.163   5.612  17.070 -0.3373  1.1266  1.2529
 9072TIP3   OH248706   3.208   2.382   5.033 -0.3664 -0.5998 -0.2231
 9072TIP3    H148707   3.123   2.370   4.990 -0.8616 -0.3019  0.6452
 9072TIP3    H248708   3.188   2.378   5.126  0.3045  1.1367  0.0284
 9073TIP3   OH248709   3.207   0.279   4.249  0.5223 -0.1560 -0.2272
 9073TIP3    H148710   3.138   0.213   4.249 -0.4279  0.7608  2.3265
 9073TIP3    H248711   3.180   0.344   4.185 -1.1379  0.3127  0.9197
 9074TIP3   OH248712   0.555   6.270   5.027  0.2705 -0.2528 -0.7066
 9074TIP3    H148713   0.579   6.316   4.947  0.8291  0.1637 -0.3042
 9074TIP3    H248714   0.549   6.178   5.001  0.8010 -0.1642 -1.1552
 9075TIP3   OH248715   3.435   4.299   2.202  0.1206  0.2219 -0.4431
 9075TIP3    H148716   3.465   4.315   2.113  1.0160  0.8325 -0.0397
 9075TIP3    H248717   3.381   4.375   2.224 -1.3406 -0.6411 -0.9935
 9076TIP3   OH248718   2.250   5.180  12.124  0.4277  0.6089  0.5867
 9076TIP3    H148719   2.274   5.088  12.131 -0.7843  0.0470 -2.0245
 9076TIP3    H248720   2.155   5.181  12.136  0.1294  1.1976 -1.5276
 9077TIP3   OH248721   6.511   5.489   1.499 -0.2662  0.6365 -0.3953
 9077TIP3    H148722   6.584   5.438   1.465  1.5816  2.0902  1.2586
 9077TIP3    H248723   6.547   5.577   1.511 -2.6426  1.6706 -0.7183
 9078TIP3   OH248724   4.519   4.930  11.152 -0.3155 -0.4073  0.4278
 9078TIP3    H148725   4.580   5.004  11.149 -1.1234  0.2512 -0.1607
 9078TIP3    H248726   4.513   4.900  11.061 -0.7638 -0.5424  0.4977
 9079TIP3   OH248727   1.972   5.344  11.937 -0.3859  0.3069 -0.3113
 9079TIP3    H148728   1.978   5.271  11.874  2.2957 -0.6811  1.0193
 9079TIP3    H248729   1.934   5.304  12.016 -2.5651  1.2697 -0.8243
 9080TIP3   OH248730   6.557   4.914  11.410 -0.2555 -0.5160 -0.3144
 9080TIP3    H148731   6.506   4.993  11.429 -0.4795 -0.3288 -1.6291
 9080TIP3    H248732   6.512   4.844  11.459  0.7562  0.3764  1.9741
 9081TIP3   OH248733   4.929   0.770   5.134  0.5040  0.4663 -0.9453
 9081TIP3    H148734   4.856   0.724   5.175  1.2762 -1.2540 -1.4321
 9081TIP3    H248735   4.895   0.802   5.051  0.4532 -0.8778 -1.4563
 9082TIP3   OH248736   5.387   4.845  12.789  0.0886 -0.1288  0.7986
 9082TIP3    H148737   5.443   4.854  12.866  0.0535  0.9187  0.7165
 9082TIP3    H248738   5.442   4.873  12.716 -0.0447 -0.6165  0.5055
 9083TIP3   OH248739   3.996   1.277   3.181 -0.2482 -0.2721 -0.0247
 9083TIP3    H148740   3.998   1.219   3.257  0.4313  1.7434  1.5598
 9083TIP3    H248741   4.089   1.293   3.162 -0.4219 -0.7578 -1.2625
 9084TIP3   OH248742   5.298   4.130   3.118 -0.4126 -0.0546 -0.3995
 9084TIP3    H148743   5.357   4.176   3.058 -0.8039 -1.1361 -1.6523
 9084TIP3    H248744   5.282   4.046   3.075 -1.7407 -0.3344  0.6141
 9085TIP3   OH248745   1.474   2.215   0.577 -0.0516  0.3094 -0.0977
 9085TIP3    H148746   1.487   2.252   0.490  2.7178 -0.0485  0.1092
 9085TIP3    H248747   1.529   2.136   0.578 -1.2669 -0.5579  1.4392
 9086TIP3   OH248748   0.529   4.546   3.966 -0.1341  0.2098  0.7945
 9086TIP3    H148749   0.506   4.571   4.055  0.4358  1.7539  0.5287
 9086TIP3    H248750   0.613   4.501   3.974  1.3338  2.8624  0.7481
 9087TIP3   OH248751   1.196   6.584  10.929  0.2303 -0.3105 -0.5506
 9087TIP3    H148752   1.164   6.665  10.891  0.2499 -0.8276 -1.6888
 9087TIP3    H248753   1.153   6.579  11.014 -0.7574  0.2556 -1.0063
 9088TIP3   OH248754   1.062   5.893   5.954 -0.3377  0.6045 -0.7613
 9088TIP3    H148755   1.134   5.838   5.926  1.9082  1.3594  3.2470
 9088TIP3    H248756   1.096   5.983   5.948 -0.8834  0.9653  1.2229
 9089TIP3   OH248757   3.309   2.483  16.260 -1.0106  0.5396 -0.3598
 9089TIP3    H148758   3.270   2.556  16.213  0.3893  1.2572 -0.4501
 9089TIP3    H248759   3.390   2.519  16.297 -0.0783 -1.0744 -0.7732
 9090TIP3   OH248760   3.360   0.084  16.339  0.0922  0.5046  0.3117
 9090TIP3    H148761   3.451   0.112  16.342 -0.6536  2.8392  2.0841
 9090TIP3    H248762   3.342   0.071  16.245  1.3015  3.2125 -0.3339
 9091TIP3   OH248763   4.975   5.222  12.588 -0.0134 -0.2277 -0.2505
 9091TIP3    H148764   4.981   5.166  12.510  0.1435  0.2308 -0.5704
 9091TIP3    H248765   4.933   5.167  12.654 -1.1272 -0.2686 -0.9841
 9092TIP3   OH248766   6.305   1.370  11.914 -0.1027 -0.1539  0.1909
 9092TIP3    H148767   6.333   1.284  11.947 -1.3313 -0.3996  0.6134
 9092TIP3    H248768   6.335   1.432  11.980 -2.2104 -0.6021  1.6254
 9093TIP3   OH248769   1.508   0.940   2.996 -0.3197 -0.1685 -0.4945
 9093TIP3    H148770   1.566   1.012   3.021 -1.6577  0.5477  0.6101
 9093TIP3    H248771   1.537   0.866   3.050  0.3850 -0.1807 -0.8808
 9094TIP3   OH248772   5.366   1.329   1.017  0.1562  0.3902  0.3142
 9094TIP3    H148773   5.275   1.350   0.995 -0.2995 -0.7815  1.0141
 9094TIP3    H248774   5.415   1.349   0.937 -0.2700  3.6390  0.7858
 9095TIP3   OH248775   0.862   5.379  13.046  0.3582  0.3403  0.0636
 9095TIP3    H148776   0.782   5.381  13.098  0.0184 -1.8005 -0.3268
 9095TIP3    H248777   0.931   5.405  13.107 -0.4139  0.5217  0.8612
 9096TIP3   OH248778   6.703   4.791  16.705 -0.2418 -0.2045 -0.0990
 9096TIP3    H148779   6.756   4.712  16.697  1.1149  0.6084  0.6654
 9096TIP3    H248780   6.698   4.807  16.799  1.2390  1.7701 -0.3245
 9097TIP3   OH248781   1.480   6.028   3.100  0.0221 -0.3154 -0.5495
 9097TIP3    H148782   1.525   5.945   3.088  1.8708  0.9793 -3.3815
 9097TIP3    H248783   1.542   6.082   3.149 -0.7002 -0.2265  0.2819
 9098TIP3   OH248784   0.452   6.580  14.488  0.8308  0.0209 -0.5463
 9098TIP3    H148785   0.522   6.533  14.533  1.1435  0.1681 -0.8774
 9098TIP3    H248786   0.443   6.662  14.535  2.8256  1.2390 -2.2223
 9099TIP3   OH248787   6.373   4.992   1.167 -0.1883 -0.1223 -0.0015
 9099TIP3    H148788   6.419   5.067   1.206 -0.8261  0.1295  0.2791
 9099TIP3    H248789   6.392   4.999   1.073 -1.0305  0.9460 -0.0981
 9100TIP3   OH248790   1.413   5.466  16.054 -0.2677 -0.4634  0.6129
 9100TIP3    H148791   1.383   5.460  15.963 -0.1564 -0.0379  0.5454
 9100TIP3    H248792   1.468   5.389  16.066  0.4883 -0.0246  0.0170
 9101TIP3   OH248793   1.646   0.299   2.052 -0.1728  0.0665 -0.0892
 9101TIP3    H148794   1.578   0.295   1.984  0.2507 -1.0873 -0.4536
 9101TIP3    H248795   1.642   0.214   2.095  0.1937  0.4600  0.7337
 9102TIP3   OH248796   1.816   6.107   5.512 -0.1635 -0.0989  0.1754
 9102TIP3    H148797   1.912   6.102   5.514 -0.1174  0.9855  3.1107
 9102TIP3    H248798   1.796   6.198   5.534 -1.8761 -0.1243 -1.1855
 9103TIP3   OH248799   1.716   1.469   2.217 -0.3348  0.3677  0.4303
 9103TIP3    H148800   1.666   1.442   2.294 -1.1634  1.0603  0.1532
 9103TIP3    H248801   1.755   1.389   2.183  0.7010  0.1765  2.0376
 9104TIP3   OH248802   5.160   2.528  15.981 -0.8609 -0.5025  0.0967
 9104TIP3    H148803   5.124   2.609  15.945  1.6446  0.2621 -0.8165
 9104TIP3    H248804   5.200   2.485  15.905 -0.5318 -1.6929  0.9352
 9105TIP3   OH248805   0.598   6.159   5.924 -0.0538 -0.3541 -0.7226
 9105TIP3    H148806   0.529   6.224   5.907  0.1126  0.4049  1.3421
 9105TIP3    H248807   0.559   6.100   5.989 -0.2252 -2.3971 -2.6284
 9106TIP3   OH248808   6.016   1.105  11.027  0.1707  0.6365 -0.2017
 9106TIP3    H148809   6.016   1.054  10.946 -0.1164 -0.5217  0.5139
 9106TIP3    H248810   5.923   1.118  11.047  0.2342  0.4316  0.2355
 9107TIP3   OH248811   4.733   5.968   5.045 -0.7492 -0.6742 -0.7637
 9107TIP3    H148812   4.776   5.939   4.965  0.7322  0.6108 -0.4702
 9107TIP3    H248813   4.739   6.063   5.042 -1.6525 -0.5743  0.3456
 9108TIP3   OH248814   2.673   0.366   0.547  0.2052  0.2496  0.3871
 9108TIP3    H148815   2.627   0.326   0.620 -0.3331 -1.6701 -0.9585
 9108TIP3    H248816   2.719   0.293   0.505 -2.9100  0.4500 -3.6792
 9109TIP3   OH248817   6.064   1.718  17.271 -0.6954 -0.4902  0.4293
 9109TIP3    H148818   6.109   1.675  17.198 -2.8187 -0.5239 -0.9150
 9109TIP3    H248819   6.038   1.803  17.236  0.9065  0.7071  2.1392
 9110TIP3   OH248820   2.788   2.018   2.761 -0.6175  0.2008 -0.4981
 9110TIP3    H148821   2.818   1.930   2.787  2.9971  1.5936  0.2786
 9110TIP3    H248822   2.733   2.047   2.834  0.4552 -0.3037  0.5174
 9111TIP3   OH248823   5.040   5.365  11.890  0.1904 -0.1542  0.0502
 9111TIP3    H148824   5.132   5.389  11.897 -0.3067  1.5994  0.9323
 9111TIP3    H248825   5.010   5.408  11.809  0.2349 -1.0256 -0.4313
 9112TIP3   OH248826   3.521   4.814   5.050 -0.1445 -0.5151  0.1315
 9112TIP3    H148827   3.563   4.743   5.098  3.9505  0.5114 -1.7007
 9112TIP3    H248828   3.472   4.770   4.980  0.7370 -1.5979  0.1836
 9113TIP3   OH248829   0.759   6.698   3.026  0.4409  0.3987  0.3486
 9113TIP3    H148830   0.812   6.762   3.074  1.3198  1.3419 -1.8425
 9113TIP3    H248831   0.672   6.739   3.022  0.0481 -0.2321  2.1746
 9114TIP3   OH248832   0.572   6.674   1.516 -0.0964  0.2600  0.1088
 9114TIP3    H148833   0.663   6.646   1.527 -0.2527 -0.8046 -1.2676
 9114TIP3    H248834   0.522   6.593   1.507 -1.2195  0.8307  0.9850
 9115TIP3   OH248835   2.526   3.852  12.070 -0.1341 -0.3714  0.0020
 9115TIP3    H148836   2.567   3.894  12.145 -0.8030  0.3477 -0.0265
 9115TIP3    H248837   2.436   3.834  12.099 -0.1320 -0.9180 -0.3139
 9116TIP3   OH248838   2.385   1.806  11.644  0.4398  0.0971 -0.4179
 9116TIP3    H148839   2.314   1.836  11.587 -0.2241 -1.8634 -0.6470
 9116TIP3    H248840   2.445   1.760  11.586  0.4648 -0.6820  0.2126
 9117TIP3   OH248841   2.700   3.588  14.160 -0.0603 -0.4143 -0.3098
 9117TIP3    H148842   2.768   3.552  14.217 -0.8366 -0.8720  0.3351
 9117TIP3    H248843   2.726   3.561  14.071 -0.3855 -2.1838  0.1085
 9118TIP3   OH248844   1.759   1.531  15.477 -0.1497 -0.1247  0.3421
 9118TIP3    H148845   1.708   1.486  15.545 -0.2055  0.1108  0.4579
 9118TIP3    H248846   1.850   1.517  15.502 -0.1639 -0.3066  0.2907
 9119TIP3   OH248847   0.282   3.271  16.471  0.1623  0.3084  0.1041
 9119TIP3    H148848   0.244   3.286  16.557 -0.2910  0.8431 -0.1894
 9119TIP3    H248849   0.220   3.311  16.410 -0.4508 -1.6429 -0.6067
 9120TIP3   OH248850   5.099   3.759   6.439 -0.2237 -0.1897  0.1335
 9120TIP3    H148851   5.026   3.706   6.472  0.7935 -1.1367  0.8892
 9120TIP3    H248852   5.132   3.805   6.516 -0.6002  0.9828 -0.3776
 9121TIP3   OH248853   6.769   0.050  15.322  0.2204  0.7924 -0.5574
 9121TIP3    H148854   6.751  -0.043  15.310  1.1585  0.6633 -1.0643
 9121TIP3    H248855   6.861   0.059  15.296 -0.3139  2.1398 -2.0641
 9122TIP3   OH248856   5.835   1.119   6.117 -0.3245  0.2745 -0.6804
 9122TIP3    H148857   5.874   1.106   6.031 -0.7866  1.2741 -1.0439
 9122TIP3    H248858   5.909   1.116   6.178  0.0527  0.0082 -1.1539
 9123TIP3   OH248859   0.387   5.106  16.856  0.4557  0.1542  0.1983
 9123TIP3    H148860   0.311   5.047  16.855  2.1038 -2.0564 -2.1774
 9123TIP3    H248861   0.353   5.188  16.893 -2.5779 -1.3921  1.0482
 9124TIP3   OH248862   6.580   6.793   0.178 -0.3938 -0.3014  0.6494
 9124TIP3    H148863   6.607   6.737   0.250  0.1250  0.0974  0.7733
 9124TIP3    H248864   6.518   6.741   0.128  0.0348 -0.9601  0.8003
 9125TIP3   OH248865   3.287   5.880   4.803 -0.1554  0.5171 -0.0363
 9125TIP3    H148866   3.277   5.785   4.801 -1.5213  0.6649 -1.4364
 9125TIP3    H248867   3.254   5.907   4.888 -0.0903 -0.2216  0.2216
 9126TIP3   OH248868   0.427   1.217  16.223  0.2021 -0.3780  0.2584
 9126TIP3    H148869   0.385   1.273  16.288 -0.2896 -0.8896  0.3910
 9126TIP3    H248870   0.463   1.144  16.274 -1.7744 -1.7267 -0.2167
 9127TIP3   OH248871   6.364   5.730  13.955  0.4015  0.4825 -0.3319
 9127TIP3    H148872   6.377   5.821  13.981 -0.3648  0.2464  0.8769
 9127TIP3    H248873   6.326   5.687  14.032  0.0994 -0.6999 -1.1200
 9128TIP3   OH248874   5.965   1.835  10.448 -0.2882  0.5702  0.2218
 9128TIP3    H148875   6.022   1.911  10.438  0.4153 -0.0002 -0.2126
 9128TIP3    H248876   6.011   1.765  10.400 -0.9656 -0.0967  0.5427
 9129TIP3   OH248877   0.872   6.001  13.123  0.4455  0.0020  0.3137
 9129TIP3    H148878   0.788   6.015  13.080 -0.8568  0.1137  2.8134
 9129TIP3    H248879   0.936   6.045  13.066 -1.2772  0.6241 -1.1855
 9130TIP3   OH248880   6.206   5.908   5.667  0.0720 -1.1132 -0.4678
 9130TIP3    H148881   6.286   5.892   5.717 -0.6474 -1.1732  0.6986
 9130TIP3    H248882   6.154   5.829   5.682 -1.1629 -0.1023  0.6895
 9131TIP3   OH248883   0.462   3.738   1.251  0.2447 -0.1538 -0.3226
 9131TIP3    H148884   0.370   3.713   1.243  0.9332 -2.4315 -1.7249
 9131TIP3    H248885   0.480   3.790   1.173  0.2323  0.0306 -0.2031
 9132TIP3   OH248886   2.949   1.627   5.897  0.0322 -0.0871  0.0721
 9132TIP3    H148887   2.922   1.553   5.950  0.3260  0.0325  0.3909
 9132TIP3    H248888   2.878   1.639   5.833  0.1036 -0.7913 -0.1360
 9133TIP3   OH248889   2.465   6.512   2.380 -0.4695  0.7894  0.7755
 9133TIP3    H148890   2.474   6.594   2.429 -0.4274  0.6767  0.9557
 9133TIP3    H248891   2.431   6.539   2.295 -0.4422  0.9965  0.8295
 9134TIP3   OH248892   2.802   6.322   4.099  0.2060  0.1569 -0.1107
 9134TIP3    H148893   2.885   6.341   4.055 -1.0037 -0.1040 -2.5958
 9134TIP3    H248894   2.744   6.394   4.072 -1.3111 -1.3907 -1.0980
 9135TIP3   OH248895   5.438   4.791   1.301 -0.0215  0.3168  0.1627
 9135TIP3    H148896   5.467   4.864   1.245 -2.8842 -0.5012 -2.5284
 9135TIP3    H248897   5.356   4.822   1.339 -1.5055 -1.6090 -1.3691
 9136TIP3   OH248898   0.380   5.958   6.562  0.6259  0.3871  0.0674
 9136TIP3    H148899   0.407   6.034   6.511 -0.0931 -0.0316 -0.9560
 9136TIP3    H248900   0.456   5.900   6.559  0.9520  0.7969  0.3242
 9137TIP3   OH248901   2.042   6.296   6.180  0.0251  0.6766 -0.6120
 9137TIP3    H148902   2.047   6.357   6.253  1.4792 -0.0033 -0.1265
 9137TIP3    H248903   2.057   6.210   6.220  0.5288  0.2719 -1.6662
 9138TIP3   OH248904   1.681   5.486   6.418 -0.3425 -0.7118 -0.8220
 9138TIP3    H148905   1.703   5.501   6.510 -1.6563 -0.5601 -0.5316
 9138TIP3    H248906   1.744   5.541   6.370 -0.5967  0.3469  0.0325
 9139TIP3   OH248907   4.837   6.212  11.806  0.4417  0.1688  0.1945
 9139TIP3    H148908   4.888   6.271  11.751  1.0747 -0.1771  0.4099
 9139TIP3    H248909   4.757   6.261  11.826  0.5789  0.6174 -0.3362
 9140TIP3   OH248910   3.080   1.071  12.535 -0.2146 -0.1256 -0.1451
 9140TIP3    H148911   2.990   1.098  12.557 -0.1712  0.0919 -0.2304
 9140TIP3    H248912   3.117   1.042  12.618 -0.0720  0.6342  0.0671
 9141TIP3   OH248913   2.560   4.747  15.624  0.3660  0.2555 -0.3061
 9141TIP3    H148914   2.550   4.712  15.535 -0.2280  1.5618 -0.7556
 9141TIP3    H248915   2.495   4.699  15.676  0.6389 -0.4303 -0.5960
 9142TIP3   OH248916   1.055   0.443   3.399  0.1464 -0.4294  0.0910
 9142TIP3    H148917   1.136   0.481   3.432 -0.1214  1.1404 -0.9885
 9142TIP3    H248918   1.082   0.397   3.319  0.4610 -2.5088  1.3668
 9143TIP3   OH248919   4.676   0.817  16.601  0.1590  0.8615  0.1651
 9143TIP3    H148920   4.631   0.737  16.572  0.6065  0.9336 -0.7298
 9143TIP3    H248921   4.765   0.788  16.621  0.5199  1.2764 -0.8517
 9144TIP3   OH248922   4.377   5.841   2.039  0.1803 -0.3202 -0.3261
 9144TIP3    H148923   4.417   5.757   2.019 -2.4779 -1.2278 -2.0802
 9144TIP3    H248924   4.342   5.830   2.128 -1.1907 -1.4903 -0.9959
 9145TIP3   OH248925   4.658   6.759   2.294  0.4306  0.1067 -0.6335
 9145TIP3    H148926   4.677   6.722   2.381  0.6449  0.2071 -0.6364
 9145TIP3    H248927   4.564   6.750   2.284  0.6810 -1.9254 -1.3082
 9146TIP3   OH248928   1.269   4.893  15.773  0.3309 -0.1071  0.1641
 9146TIP3    H148929   1.292   4.841  15.697 -0.6496 -1.7458  0.9482
 9146TIP3    H248930   1.336   4.873  15.838 -0.1158 -0.5121  0.5095
 9147TIP3   OH248931   5.839   5.731   6.347  0.6205 -0.3480  0.3785
 9147TIP3    H148932   5.783   5.802   6.316 -0.9318 -0.8516  1.9086
 9147TIP3    H248933   5.918   5.738   6.294 -0.1422  1.5329 -0.5833
 9148TIP3   OH248934   1.381   0.431  11.277  0.8487 -0.0724 -0.6045
 9148TIP3    H148935   1.309   0.390  11.325  0.9599  1.7104  1.1615
 9148TIP3    H248936   1.459   0.415  11.331  1.3135  0.3014 -1.1553
 9149TIP3   OH248937   2.374   4.605  14.073 -0.2727  0.0292 -0.2622
 9149TIP3    H148938   2.314   4.666  14.118  0.5797  0.9075 -0.2915
 9149TIP3    H248939   2.389   4.535  14.137  0.3210  0.8821  0.5531
 9150TIP3   OH248940   4.229   0.377   2.209 -0.3108 -0.0904  0.5066
 9150TIP3    H148941   4.157   0.332   2.164 -1.4205 -0.0561  2.2015
 9150TIP3    H248942   4.284   0.307   2.244  0.2725 -0.1154 -0.4424
 9151TIP3   OH248943   0.954   6.588   2.259  0.7180  0.8458  0.2850
 9151TIP3    H148944   1.002   6.657   2.213  2.3281 -0.5216 -0.1575
 9151TIP3    H248945   0.943   6.621   2.348  2.6866  1.1118  0.4476
 9152TIP3   OH248946   3.866   6.138  12.769  0.1039  0.3129  0.1940
 9152TIP3    H148947   3.817   6.115  12.848 -0.9206  2.4508  0.2146
 9152TIP3    H248948   3.878   6.233  12.775  1.0374  0.3352 -1.6484
 9153TIP3   OH248949   1.323   4.801   0.469  0.2657 -0.1613  0.3393
 9153TIP3    H148950   1.402   4.821   0.418 -0.3977 -1.7003 -1.3449
 9153TIP3    H248951   1.304   4.881   0.517 -0.1130  1.9748 -3.2500
 9154TIP3   OH248952   0.876   1.060  12.217 -0.0188 -0.1343  0.1055
 9154TIP3    H148953   0.959   1.048  12.172 -1.1555  0.0185 -2.1176
 9154TIP3    H248954   0.824   0.984  12.192 -0.6487 -0.1040  1.2777
 9155TIP3   OH248955   5.354   0.833  13.126 -0.1758 -0.2998 -0.3710
 9155TIP3    H148956   5.282   0.891  13.153  1.1142  1.6854 -1.0530
 9155TIP3    H248957   5.348   0.759  13.186  0.4697  2.3366  3.1484
 9156TIP3   OH248958   1.109   4.721  13.617  0.0057 -0.5948 -0.0882
 9156TIP3    H148959   1.127   4.641  13.568 -0.8900 -0.9095  0.0825
 9156TIP3    H248960   1.018   4.742  13.596  1.3859  2.6329 -3.3026
 9157TIP3   OH248961   6.206   6.265   0.845 -0.8693 -0.5991  0.1813
 9157TIP3    H148962   6.280   6.313   0.882 -1.1301 -1.0148  1.2549
 9157TIP3    H248963   6.177   6.319   0.771  0.6203 -0.5337 -0.3598
 9158TIP3   OH248964   6.402   0.241   6.097  0.0830 -0.2507  0.0236
 9158TIP3    H148965   6.379   0.150   6.116  0.3820 -0.4436 -0.5347
 9158TIP3    H248966   6.496   0.240   6.082 -0.2637 -0.3142 -2.4919
 9159TIP3   OH248967   3.413   6.541   3.914  0.5082 -0.4595 -0.0250
 9159TIP3    H148968   3.429   6.460   3.964  0.8169 -0.7737 -0.6317
 9159TIP3    H248969   3.488   6.596   3.933  1.3501 -1.1523 -1.2929
 9160TIP3   OH248970   4.886   6.607  16.382  0.4665  0.3709  0.2769
 9160TIP3    H148971   4.827   6.537  16.407 -1.8752  2.0276 -0.4694
 9160TIP3    H248972   4.964   6.594  16.436 -1.1993 -0.9292  2.4119
 9161TIP3   OH248973   6.630   3.827  14.864  0.3584 -0.7239  0.3842
 9161TIP3    H148974   6.556   3.790  14.815 -0.7279  0.3702  1.1812
 9161TIP3    H248975   6.590   3.864  14.943  1.1779  3.3606 -1.0051
 9162TIP3   OH248976   6.220   5.153   5.157 -0.7022 -0.1761  0.3779
 9162TIP3    H148977   6.292   5.099   5.188  0.2243  1.1603  0.5778
 9162TIP3    H248978   6.209   5.221   5.224 -1.0188  0.6323 -0.4696
 9163TIP3   OH248979   2.755   4.601   4.989 -0.0486 -0.5185  0.0975
 9163TIP3    H148980   2.817   4.536   5.021 -1.3664 -1.3553  1.0354
 9163TIP3    H248981   2.750   4.667   5.059  1.3399  0.6496 -0.8814
 9164TIP3   OH248982   3.083   5.761  13.047 -0.5692 -0.3167  0.0988
 9164TIP3    H148983   3.160   5.706  13.037  0.2196  0.8373 -0.1582
 9164TIP3    H248984   3.063   5.756  13.141 -0.3603 -0.8349  0.1198
 9165TIP3   OH248985   2.690   4.707   1.813  0.3676  0.1845  0.5012
 9165TIP3    H148986   2.603   4.700   1.851  0.2714  0.1751  0.2777
 9165TIP3    H248987   2.690   4.792   1.769  0.7709  0.5933  1.2656
 9166TIP3   OH248988   2.214   5.931  14.611  0.0506 -0.5780 -0.0115
 9166TIP3    H148989   2.229   5.854  14.556 -0.2436 -0.7195  0.1099
 9166TIP3    H248990   2.302   5.967  14.626  0.2842 -1.4754  0.7702
 9167TIP3   OH248991   3.644   0.149  16.399 -0.3047  0.2379 -0.5051
 9167TIP3    H148992   3.666   0.242  16.392 -1.3598  0.5308 -0.1394
 9167TIP3    H248993   3.709   0.114  16.459 -0.8978  1.1135  0.6875
 9168TIP3   OH248994   1.087   5.351  11.526 -0.3744 -0.1767 -0.4579
 9168TIP3    H148995   1.054   5.305  11.449  0.7102 -1.6893 -0.0612
 9168TIP3    H248996   1.126   5.431  11.492 -0.7641 -0.3708 -1.3747
 9169TIP3   OH248997   5.252   0.019   2.719 -0.0719 -0.5123  0.5647
 9169TIP3    H148998   5.333   0.062   2.748 -0.4872 -0.0346  1.0402
 9169TIP3    H248999   5.236  -0.048   2.786 -1.2780  0.8913  1.7491
 9170TIP3   OH249000   0.920   0.041   0.744 -0.1328 -0.0476 -0.2303
 9170TIP3    H149001   0.968  -0.015   0.806  0.7801  0.6972 -0.2664
 9170TIP3    H249002   0.848  -0.014   0.714 -0.6994 -0.3566  1.6454
 9171TIP3   OH249003   5.115   1.846   0.850 -0.4750 -0.0893  0.2318
 9171TIP3    H149004   5.120   1.752   0.868 -1.6262 -0.1558  0.2404
 9171TIP3    H249005   5.078   1.851   0.762  3.1574  0.2783 -1.3602
 9172TIP3   OH249006   0.977   5.134   4.520  0.3733 -0.0743  0.2530
 9172TIP3    H149007   1.016   5.182   4.447  0.0023 -0.2409 -0.0555
 9172TIP3    H249008   0.887   5.166   4.526  0.1636 -0.6318  0.1278
 9173TIP3   OH249009   6.749   3.825  13.392 -0.8478  0.1683 -0.2104
 9173TIP3    H149010   6.687   3.875  13.445  0.3099  0.8626  0.4905
 9173TIP3    H249011   6.757   3.875  13.311 -1.1187  0.1296 -0.2617
 9174TIP3   OH249012   2.109   6.112  15.307 -0.0616  0.0999 -0.7660
 9174TIP3    H149013   2.098   6.017  15.303 -0.9331  0.1872 -0.4905
 9174TIP3    H249014   2.201   6.124  15.333 -0.5589 -0.7100  1.4445
 9175TIP3   OH249015   3.136   4.077  11.167  0.1421  0.2340 -0.3346
 9175TIP3    H149016   3.105   4.073  11.257  0.3553 -0.5503 -0.2852
 9175TIP3    H249017   3.200   4.006  11.161  0.2153  0.3572 -1.0686
 9176TIP3   OH249018   2.113   0.137  11.843  0.8372  0.4188  0.4456
 9176TIP3    H149019   2.131   0.051  11.805  0.4968  0.7923 -0.5755
 9176TIP3    H249020   2.188   0.191  11.817  0.0570  0.9781 -0.6457
 9177TIP3   OH249021   4.026   3.892  11.748 -0.1417 -0.1012 -0.3733
 9177TIP3    H149022   4.061   3.874  11.835  0.3776  1.1330 -0.3153
 9177TIP3    H249023   3.985   3.978  11.757 -0.2207 -0.0425 -1.3081
 9178TIP3   OH249024   4.415   5.018  15.898  0.4552 -0.6592 -0.1352
 9178TIP3    H149025   4.398   4.960  15.973 -1.3389  0.9670  0.7796
 9178TIP3    H249026   4.366   4.979  15.826  0.0478 -0.8142  0.2217
 9179TIP3   OH249027   1.684   6.167  16.876  0.5442  0.3743 -0.1388
 9179TIP3    H149028   1.613   6.110  16.849 -0.0907  1.3946 -0.6295
 9179TIP3    H249029   1.708   6.216  16.797  0.3784  1.5367  0.5175
 9180TIP3   OH249030   2.606   4.414  11.785 -0.1044  0.3792  0.4858
 9180TIP3    H149031   2.662   4.400  11.861  1.6200  2.3312 -0.3761
 9180TIP3    H249032   2.600   4.328  11.743  2.6810  0.2150  0.3320
 9181TIP3   OH249033   4.308   0.162  14.676  0.6360  0.3204  0.4655
 9181TIP3    H149034   4.277   0.252  14.685 -1.2297 -0.4680  2.2744
 9181TIP3    H249035   4.355   0.145  14.758 -1.9429 -1.4496  1.6127
 9182TIP3   OH249036   5.857   2.705  12.952 -0.1252  0.1122 -0.2166
 9182TIP3    H149037   5.812   2.677  13.031 -0.4013 -0.8854 -0.7172
 9182TIP3    H249038   5.813   2.785  12.926 -2.0797 -1.2058 -1.0809
 9183TIP3   OH249039   5.110   5.698   5.821 -0.3388  0.1992 -0.0604
 9183TIP3    H149040   5.106   5.651   5.905  2.5298 -0.9487 -0.4868
 9183TIP3    H249041   5.061   5.643   5.760  0.7328 -0.9029  0.0529
 9184TIP3   OH249042   1.189   0.514  14.521 -0.0304 -0.7153  0.0556
 9184TIP3    H149043   1.242   0.473  14.590  1.6588 -1.4252 -1.6138
 9184TIP3    H249044   1.202   0.458  14.444 -1.4728  0.3451 -0.9843
 9185TIP3   OH249045   2.942   5.804  16.442 -0.0676  0.0214 -0.2316
 9185TIP3    H149046   2.960   5.881  16.388  1.3525  0.1952  0.4697
 9185TIP3    H249047   2.877   5.835  16.506 -0.0646  0.4304 -0.4215
 9186TIP3   OH249048   2.280   5.446  15.462  0.4300  0.8677 -0.0466
 9186TIP3    H149049   2.258   5.504  15.535 -0.9773  0.0887  0.1819
 9186TIP3    H249050   2.285   5.359  15.502 -0.9739  0.3464 -0.9670
 9187TIP3   OH249051   3.372   6.214   0.562 -0.2947 -0.1765 -0.2775
 9187TIP3    H149052   3.347   6.305   0.574 -1.4909 -0.5387  0.0048
 9187TIP3    H249053   3.456   6.206   0.607 -0.7416  0.5036  0.6783
 9188TIP3   OH249054   4.145   2.399  14.187 -0.1266  1.3350 -0.5634
 9188TIP3    H149055   4.228   2.364  14.218 -1.0274 -0.7548 -0.4624
 9188TIP3    H249056   4.132   2.479  14.239  1.5389  1.3928 -0.2073
 9189TIP3   OH249057   3.419   6.488   0.628 -0.1340  0.0211 -0.0545
 9189TIP3    H149058   3.397   6.482   0.721 -0.3089 -1.3099 -0.1790
 9189TIP3    H249059   3.510   6.515   0.627 -0.1326  0.0477  0.5004
 9190TIP3   OH249060   4.892   5.574   4.253 -0.2616 -0.0296 -0.0391
 9190TIP3    H149061   4.812   5.621   4.275 -1.7114 -2.3010 -0.3515
 9190TIP3    H249062   4.883   5.550   4.161  1.4241  0.9062 -0.4776
 9191TIP3   OH249063   6.684   1.234  15.777  0.5691 -0.4603 -0.6923
 9191TIP3    H149064   6.774   1.213  15.752  0.4787 -2.4861  0.6037
 9191TIP3    H249065   6.676   1.328  15.761  2.6523 -0.4156 -1.5966
 9192TIP3   OH249066   5.849   1.438   1.323 -0.2253 -0.0505  0.1900
 9192TIP3    H149067   5.920   1.411   1.381 -1.1234  0.0586  1.3415
 9192TIP3    H249068   5.781   1.371   1.335 -0.8175  0.5099  0.0191
 9193TIP3   OH249069   3.439   3.456   1.118 -0.4027 -0.0219 -0.3173
 9193TIP3    H149070   3.468   3.545   1.137 -0.4899  0.0886 -0.7066
 9193TIP3    H249071   3.507   3.400   1.157 -0.0089  0.2247 -0.6522
 9194TIP3   OH249072   3.739   4.166  12.302  0.2626  0.5274  0.1312
 9194TIP3    H149073   3.728   4.237  12.239  1.3555  0.6997  0.1189
 9194TIP3    H249074   3.818   4.120  12.272 -0.4382 -0.6912  0.1313
 9195TIP3   OH249075   0.907   1.384  14.788  0.4463 -0.2349  0.4095
 9195TIP3    H149076   0.827   1.381  14.839  0.4350  1.1098  0.4822
 9195TIP3    H249077   0.968   1.436  14.840  0.1269  1.9869 -1.3549
 9196TIP3   OH249078   0.834   3.620   5.624  0.5147 -0.5773  0.4468
 9196TIP3    H149079   0.834   3.598   5.531 -0.5098 -0.1910  0.3504
 9196TIP3    H249080   0.844   3.536   5.668  1.0086 -0.7642 -0.0004
 9197TIP3   OH249081   4.761   3.429   5.740 -0.9524 -0.7856 -0.0522
 9197TIP3    H149082   4.700   3.451   5.810 -0.1496  1.0027  0.0992
 9197TIP3    H249083   4.830   3.494   5.746 -0.4007 -1.1518 -1.9316
 9198TIP3   OH249084   2.681   0.299  16.466  0.4215 -0.2224  0.2494
 9198TIP3    H149085   2.705   0.226  16.409  0.3767 -1.2160  1.4742
 9198TIP3    H249086   2.621   0.351  16.414  1.0824 -0.6211 -0.9358
 9199TIP3   OH249087   4.129   5.668  12.709  0.0045  0.6694 -0.3269
 9199TIP3    H149088   4.185   5.597  12.675 -0.1743  0.7018 -0.6927
 9199TIP3    H249089   4.145   5.667  12.803  0.8022  0.8327 -0.4522
 9200TIP3   OH249090   4.696   2.385  10.777  0.3365  0.2833 -0.3523
 9200TIP3    H149091   4.703   2.298  10.814  0.9722  1.1338  1.5584
 9200TIP3    H249092   4.622   2.379  10.716 -1.3193 -0.9121  1.7100
 9201TIP3   OH249093   4.206   1.466   2.693  0.2962 -0.0044  0.3231
 9201TIP3    H149094   4.240   1.444   2.607 -2.0360 -0.4292 -0.5056
 9201TIP3    H249095   4.158   1.389   2.721  0.5803  0.3318  1.7770
 9202TIP3   OH249096   2.087   2.304  13.917  0.2910 -0.0370  0.3598
 9202TIP3    H149097   2.012   2.255  13.951 -0.1202  0.5367  0.3012
 9202TIP3    H249098   2.072   2.394  13.947  1.5674 -0.1449  1.3285
 9203TIP3   OH249099   2.808   4.972   2.140 -0.2996  0.1912  0.6000
 9203TIP3    H149100   2.836   4.991   2.050 -0.4518 -0.5527  0.3968
 9203TIP3    H249101   2.832   5.051   2.189 -0.7040  0.8244 -0.1959
 9204TIP3   OH249102   1.010   1.718  14.679 -0.3962  0.2967  0.0678
 9204TIP3    H149103   0.936   1.746  14.626  0.4857  1.0900 -0.7621
 9204TIP3    H249104   1.080   1.778  14.656  0.2546  0.1060  1.4974
 9205TIP3   OH249105   1.247   5.910  16.536  0.6542  0.2095 -0.3415
 9205TIP3    H149106   1.168   5.901  16.483  0.7633 -0.2201 -0.4283
 9205TIP3    H249107   1.310   5.849  16.498  1.1055  0.7131 -0.4101
 9206TIP3   OH249108   2.825   2.780  15.759  0.0371  0.3468 -0.1970
 9206TIP3    H149109   2.834   2.706  15.818  1.9178  0.9276  0.2863
 9206TIP3    H249110   2.783   2.848  15.811  0.4718  0.4073  0.0783
 9207TIP3   OH249111   4.645   0.082  16.569  0.1159 -0.7526 -0.4800
 9207TIP3    H149112   4.716   0.102  16.507  1.2456 -0.0126  1.0022
 9207TIP3    H249113   4.622  -0.009  16.551 -0.8195 -0.0251 -3.1912
 9208TIP3   OH249114   1.279   6.671  12.384 -0.9544 -0.3679 -0.0605
 9208TIP3    H149115   1.310   6.745  12.435  1.8030  0.2564 -2.4694
 9208TIP3    H249116   1.326   6.595  12.420  0.4704 -0.0290 -1.1211
 9209TIP3   OH249117   2.285   1.797   4.393 -0.1230 -0.0090  0.0939
 9209TIP3    H149118   2.234   1.729   4.350  1.9706 -1.5770  0.0245
 9209TIP3    H249119   2.289   1.868   4.328  0.7516 -1.2768 -1.2764
 9210TIP3   OH249120   3.119   1.416   4.181 -0.0954 -0.5341  0.5089
 9210TIP3    H149121   3.067   1.496   4.175  0.0033 -0.4674  0.5509
 9210TIP3    H249122   3.069   1.351   4.131  0.5923 -0.0642 -0.7743
 9211TIP3   OH249123   4.280   2.111   4.926  0.1029  0.0365  0.3897
 9211TIP3    H149124   4.225   2.070   4.860 -0.6291 -1.1122  1.6722
 9211TIP3    H249125   4.220   2.167   4.975  0.4895  0.3312  0.5289
 9212TIP3   OH249126   4.011   2.147  11.836 -0.1457 -0.0445 -0.2389
 9212TIP3    H149127   3.946   2.198  11.788 -0.4055  0.1939  0.3733
 9212TIP3    H249128   4.087   2.205  11.843 -1.1424  1.0008  2.2023
 9213TIP3   OH249129   3.362   4.023   6.546 -0.0015 -0.3477 -0.2680
 9213TIP3    H149130   3.404   3.943   6.515  2.0323 -0.1512  1.8130
 9213TIP3    H249131   3.314   3.995   6.624  2.1770  0.7198  1.5159
 9214TIP3   OH249132   4.491   1.309   2.269 -0.3420 -0.2660 -0.1278
 9214TIP3    H149133   4.567   1.362   2.245 -0.2287 -0.2734  0.2185
 9214TIP3    H249134   4.519   1.219   2.251 -0.6933 -0.1792 -1.1469
 9215TIP3   OH249135   6.013   4.859   2.240 -0.1878  0.4260  0.0385
 9215TIP3    H149136   5.991   4.889   2.328  0.8070  2.2537 -0.3021
 9215TIP3    H249137   5.960   4.780   2.227 -0.8654  0.5355  1.9973
 9216TIP3   OH249138   2.922   3.840  16.275 -0.0735 -0.6422  0.7109
 9216TIP3    H149139   2.877   3.771  16.324 -1.3097 -1.3197 -1.3332
 9216TIP3    H249140   2.907   3.919  16.327 -0.3813 -1.5263  2.0092
 9217TIP3   OH249141   1.259   2.085  16.906 -0.6180 -0.2035  0.7663
 9217TIP3    H149142   1.170   2.107  16.934 -0.3698 -0.6847  1.9538
 9217TIP3    H249143   1.272   2.137  16.826 -1.2742  1.3455  1.6367
 9218TIP3   OH249144   3.335   6.472   1.684  0.7277  0.4731 -0.0367
 9218TIP3    H149145   3.264   6.502   1.628 -1.1364 -1.6439  1.0935
 9218TIP3    H249146   3.294   6.409   1.743  3.3442 -0.0081  1.3583
 9219TIP3   OH249147   5.769   5.816  16.543 -0.5182  0.3931  0.0094
 9219TIP3    H149148   5.764   5.857  16.629  0.6555  0.3715  0.1052
 9219TIP3    H249149   5.679   5.814  16.511 -1.0965 -0.5463  1.6767
 9220TIP3   OH249150   4.706   1.506  11.860 -0.6771  0.6339  0.2416
 9220TIP3    H149151   4.752   1.465  11.787 -1.4840 -0.5227  0.3704
 9220TIP3    H249152   4.625   1.539  11.820 -1.4736 -0.6763  0.7583
 9221TIP3   OH249153   0.576   5.349   3.256  0.1837  0.4813 -0.3774
 9221TIP3    H149154   0.638   5.370   3.326 -0.5963 -0.0156  0.4736
 9221TIP3    H249155   0.555   5.257   3.270 -0.5967  0.5958 -0.7745
 9222TIP3   OH249156   1.339   5.293   0.043 -0.4035 -0.0737  0.3021
 9222TIP3    H149157   1.421   5.282   0.091  0.1801  1.6951 -0.2602
 9222TIP3    H249158   1.290   5.357   0.093 -1.6754 -1.4801  0.8950
 9223TIP3   OH249159   2.484   4.634   2.821  0.0888  0.1581 -0.1989
 9223TIP3    H149160   2.509   4.716   2.864 -2.3767  1.0220 -0.3331
 9223TIP3    H249161   2.476   4.571   2.893  0.2036  0.5072  0.1233
 9224TIP3   OH249162   0.972   4.724  11.553 -0.4612 -0.6254  0.4921
 9224TIP3    H149163   0.877   4.728  11.569 -0.6763 -1.7786 -0.3691
 9224TIP3    H249164   0.985   4.783  11.478 -0.5757 -0.8498  0.2941
 9225TIP3   OH249165   3.932   6.229   4.854  0.3084 -0.1414 -0.2161
 9225TIP3    H149166   3.915   6.190   4.940 -0.9065  1.0914  0.1187
 9225TIP3    H249167   3.960   6.155   4.799  0.6308 -1.0156  1.1013
 9226TIP3   OH249168   6.348   4.316  11.585  0.9042  0.5176 -0.1885
 9226TIP3    H149169   6.269   4.352  11.625  0.8392  0.5087 -0.3104
 9226TIP3    H249170   6.370   4.241  11.640 -0.3448 -0.7324 -1.3715
 9227TIP3   OH249171   5.667   2.366  14.082  0.4842  0.5372 -0.2695
 9227TIP3    H149172   5.672   2.370  13.986  2.2038  1.2046 -0.1775
 9227TIP3    H249173   5.598   2.428  14.104  0.7331  1.1085 -1.0452
 9228TIP3   OH249174   3.341   4.529  11.093 -0.1971 -0.5274 -0.0519
 9228TIP3    H149175   3.337   4.549  11.000  0.3347  0.0096  0.0400
 9228TIP3    H249176   3.286   4.451  11.103 -0.4181 -0.4672 -0.7778
 9229TIP3   OH249177   0.160   2.932  10.949 -0.5944  0.2597  0.3633
 9229TIP3    H149178   0.248   2.933  10.910 -0.7499  2.5476 -0.0379
 9229TIP3    H249179   0.101   2.930  10.873 -0.9015 -2.0885  0.6466
 9230TIP3   OH249180   6.819   5.156  13.639  0.3589 -0.8548  0.3566
 9230TIP3    H149181   6.738   5.173  13.688  0.9448 -0.5947  1.2385
 9230TIP3    H249182   6.792   5.097  13.568 -0.3980 -1.6727  1.3058
 9231TIP3   OH249183   3.329   6.621   4.662  0.1068  0.5831 -0.4542
 9231TIP3    H149184   3.265   6.680   4.621  0.2363  0.9154 -0.1817
 9231TIP3    H249185   3.324   6.541   4.610 -0.6222  0.5631 -0.3565
 9232TIP3   OH249186   1.893   6.121   4.030 -0.2427  0.6308  0.5918
 9232TIP3    H149187   1.798   6.132   4.037 -0.4119  0.3116 -0.8873
 9232TIP3    H249188   1.904   6.059   3.958  1.0452 -0.5939  1.8097
 9233TIP3   OH249189   1.066   4.068  15.233  0.3375 -0.5909 -0.3018
 9233TIP3    H149190   0.999   4.059  15.166  0.5770 -1.2636 -0.4525
 9233TIP3    H249191   1.064   3.985  15.281  0.1231 -0.0951  0.5620
 9234TIP3   OH249192   3.892   6.529  12.378  0.0750 -0.0639 -0.3637
 9234TIP3    H149193   3.823   6.492  12.433  1.8810  0.0622  2.0923
 9234TIP3    H249194   3.894   6.622  12.401  0.8964 -0.0159 -0.6024
 9235TIP3   OH249195   1.198   4.295  12.686 -0.9837 -0.5439 -0.0775
 9235TIP3    H149196   1.230   4.386  12.692 -0.0901 -0.9958  2.5473
 9235TIP3    H249197   1.266   4.250  12.635 -0.0134 -0.3357  1.0007
 9236TIP3   OH249198   1.567   4.959  15.076 -0.0994  0.0077  0.6993
 9236TIP3    H149199   1.625   4.909  15.134  0.2160 -0.8054 -0.3046
 9236TIP3    H249200   1.583   4.923  14.989 -3.6397 -1.6683  0.6747
 9237TIP3   OH249201   4.090   2.566  15.123 -0.1918  0.1707  0.4355
 9237TIP3    H149202   4.140   2.566  15.041 -0.7200 -1.3486  0.0965
 9237TIP3    H249203   4.027   2.637  15.113  2.5567  2.8828  1.3045
 9238TIP3   OH249204   4.411   4.834   1.355  0.3829  0.2393 -0.4455
 9238TIP3    H149205   4.424   4.772   1.284  1.7524  1.7906 -1.5886
 9238TIP3    H249206   4.316   4.839   1.366  0.1902 -0.4771 -1.7393
 9239TIP3   OH249207   5.849   4.809   6.724  0.1676 -0.0910 -0.1207
 9239TIP3    H149208   5.880   4.869   6.791 -0.3601 -1.8873  1.7814
 9239TIP3    H249209   5.756   4.796   6.745 -0.0396 -0.5670 -1.2863
 9240TIP3   OH249210   3.018   5.107  12.529  0.0138  0.2979  0.1583
 9240TIP3    H149211   3.043   5.192  12.566 -0.2773 -0.1575  1.4214
 9240TIP3    H249212   2.922   5.111  12.524 -0.0339 -0.1639  0.7188
 9241TIP3   OH249213   1.018   5.938  14.731 -0.9540 -0.0766  0.5377
 9241TIP3    H149214   0.957   5.938  14.805 -2.8001  1.2237 -0.9219
 9241TIP3    H249215   0.984   6.007  14.673  1.6748  0.3746 -0.5194
 9242TIP3   OH249216   2.263   6.331   2.186  0.5342  0.2401  0.3748
 9242TIP3    H149217   2.210   6.394   2.138  1.3667  2.3466  2.1309
 9242TIP3    H249218   2.201   6.285   2.244  0.1696  0.5463  0.2264
 9243TIP3   OH249219   5.616   6.120   3.220 -0.0465 -0.5149 -0.0921
 9243TIP3    H149220   5.569   6.046   3.258 -1.2495  1.1107  1.6831
 9243TIP3    H249221   5.554   6.194   3.226  1.2333  0.7052 -1.5156
 9244TIP3   OH249222   2.558   1.703  11.443 -0.2082 -0.2725 -0.2330
 9244TIP3    H149223   2.587   1.704  11.352  1.2598 -1.0853  0.2137
 9244TIP3    H249224   2.615   1.640  11.486 -2.7872 -2.1095  0.6393
 9245TIP3   OH249225   1.531   2.356   0.827 -0.2356 -0.0792  0.0960
 9245TIP3    H149226   1.453   2.312   0.796 -0.5752  1.0807 -0.7234
 9245TIP3    H249227   1.513   2.375   0.920 -1.5300  1.4623 -0.4471
 9246TIP3   OH249228   6.660   5.545  12.350 -0.1328 -0.1840 -0.4897
 9246TIP3    H149229   6.696   5.624  12.390  0.1038  0.3525 -1.7104
 9246TIP3    H249230   6.676   5.557  12.256  2.5240 -2.9544 -0.4815
 9247TIP3   OH249231   5.816   1.164  14.607 -0.0622  0.3994 -0.1086
 9247TIP3    H149232   5.858   1.104  14.668 -0.6626 -0.2496 -0.3281
 9247TIP3    H249233   5.873   1.165  14.530  0.8817  1.4888  0.5864
 9248TIP3   OH249234   4.088   0.594  10.656  0.0710  0.0652  0.3042
 9248TIP3    H149235   4.002   0.631  10.635 -0.6407 -1.3608  0.5972
 9248TIP3    H249236   4.091   0.592  10.752 -0.5985 -2.0907  0.3237
 9249TIP3   OH249237   0.743   1.837  14.176  0.2297  0.0584 -0.1566
 9249TIP3    H149238   0.834   1.813  14.159  0.4591 -0.3695  1.6580
 9249TIP3    H249239   0.704   1.845  14.089  1.6806 -0.9645 -0.9110
 9250TIP3   OH249240   5.223   2.963   0.580 -0.6254  0.5053  0.0285
 9250TIP3    H149241   5.239   2.921   0.664 -0.5892  0.3754 -0.0435
 9250TIP3    H249242   5.308   2.996   0.552 -0.4552 -0.3167 -0.4244
 9251TIP3   OH249243   5.491   4.142   1.578 -0.4008 -0.5689 -0.2542
 9251TIP3    H149244   5.513   4.183   1.661 -0.6872 -1.0247  0.0461
 9251TIP3    H249245   5.527   4.053   1.584 -2.5280 -1.4308  0.3662
 9252TIP3   OH249246   4.709   2.841   1.522 -0.6141 -0.0823 -0.1215
 9252TIP3    H149247   4.757   2.920   1.548  1.3336 -1.8339  1.6853
 9252TIP3    H249248   4.666   2.866   1.440  2.5208  1.8912 -1.2598
 9253TIP3   OH249249   0.096   1.276  15.498 -0.2615 -0.3383  0.1824
 9253TIP3    H149250   0.002   1.297  15.503 -0.4454 -1.0440 -0.4117
 9253TIP3    H249251   0.118   1.285  15.406  0.0309 -1.1688  0.1711
 9254TIP3   OH249252   3.355   5.620  11.939 -0.2337 -0.9367 -0.1790
 9254TIP3    H149253   3.416   5.668  11.994  0.0043  0.9730 -2.0501
 9254TIP3    H249254   3.270   5.660  11.954 -0.5579 -1.8156  0.3881
 9255TIP3   OH249255   0.964   6.318  13.656 -0.3287  0.5207  0.2630
 9255TIP3    H149256   0.881   6.333  13.610 -0.5070  1.2182  0.8149
 9255TIP3    H249257   0.993   6.405  13.683  0.0220  0.1627  1.0514
 9256TIP3   OH249258   5.408   1.734  12.089 -0.1858  0.4124  0.5935
 9256TIP3    H149259   5.336   1.702  12.035 -1.1126  2.7548  0.3498
 9256TIP3    H249260   5.417   1.668  12.158  0.9834 -2.5646 -2.3219
 9257TIP3   OH249261   3.050   4.066   1.249 -0.2791  0.1095 -0.3235
 9257TIP3    H149262   3.091   4.023   1.325 -0.7713  0.6361  0.2441
 9257TIP3    H249263   2.979   4.008   1.224 -1.2263  0.8052  0.7238
 9258TIP3   OH249264   3.451   6.333   3.268 -0.0993  0.0892 -0.1042
 9258TIP3    H149265   3.490   6.281   3.339  0.5824  1.6745  0.7250
 9258TIP3    H249266   3.524   6.350   3.209 -0.8308 -1.8909 -1.6401
 9259TIP3   OH249267   4.542   5.164  16.095  0.1345 -0.0954 -0.1029
 9259TIP3    H149268   4.483   5.138  16.024  0.7916 -1.4320 -0.1634
 9259TIP3    H249269   4.622   5.191  16.051  0.4871 -0.7735  0.1275
 9260TIP3   OH249270   6.198   0.465  11.313  0.0723 -0.6558  0.8890
 9260TIP3    H149271   6.257   0.496  11.244 -0.1701  0.2569  1.0892
 9260TIP3    H249272   6.149   0.394  11.272  0.6859 -0.8307  0.4478
 9261TIP3   OH249273   1.531   3.410  14.732  0.0382 -0.0352  0.3730
 9261TIP3    H149274   1.510   3.500  14.757  3.0442  1.1308 -1.0849
 9261TIP3    H249275   1.614   3.391  14.776  1.4457 -0.6533 -2.4378
 9262TIP3   OH249276   1.244   5.968   0.651  0.1240  0.0780  0.6717
 9262TIP3    H149277   1.181   5.982   0.581  0.1162 -0.3466  0.5893
 9262TIP3    H249278   1.325   5.944   0.605 -0.9291 -4.3356  0.8702
 9263TIP3   OH249279   6.407   4.135  17.081 -0.2034 -0.6201 -0.5230
 9263TIP3    H149280   6.333   4.160  17.136  0.3106 -0.0913 -0.0515
 9263TIP3    H249281   6.471   4.205  17.095  0.6373 -1.4004 -0.4127
 9264TIP3   OH249282   6.308   0.873   5.868 -0.1187  0.2287 -0.0182
 9264TIP3    H149283   6.326   0.947   5.926 -0.6196 -0.6774  1.3204
 9264TIP3    H249284   6.339   0.902   5.782 -0.0544  1.8827  0.5378
 9265TIP3   OH249285   6.451   4.628   6.042 -0.7205 -0.0214  0.2318
 9265TIP3    H149286   6.400   4.673   6.109  0.2516  1.4337  0.0317
 9265TIP3    H249287   6.445   4.536   6.065 -0.6895  0.4234  2.1402
 9266TIP3   OH249288   5.294   2.615  16.894 -0.0265  0.2564  0.6481
 9266TIP3    H149289   5.213   2.596  16.941  0.7231 -1.3668  1.3129
 9266TIP3    H249290   5.278   2.582  16.805  0.2543 -0.9588  1.0445
 9267TIP3   OH249291   5.789   6.815  14.665  0.0210 -0.3027 -0.4770
 9267TIP3    H149292   5.816   6.723  14.669 -0.8502 -0.4846  1.5877
 9267TIP3    H249293   5.756   6.826  14.576 -0.0991 -2.0510 -0.6658
 9268TIP3   OH249294   0.253   6.581  13.587  0.0081  0.4535 -0.1027
 9268TIP3    H149295   0.267   6.663  13.635 -0.3221  0.5669 -0.1978
 9268TIP3    H249296   0.313   6.585  13.513  0.9568  0.0139  0.6261
 9269TIP3   OH249297   1.462   3.795   1.869 -0.3119  0.4731  0.3090
 9269TIP3    H149298   1.411   3.860   1.822  0.1947 -0.4933 -1.6279
 9269TIP3    H249299   1.439   3.712   1.827 -1.5667 -0.7425  3.2414
 9270TIP3   OH249300   2.527   4.262  13.920 -0.3047 -0.1558  0.1291
 9270TIP3    H149301   2.517   4.189  13.858  0.9239  0.1148 -0.3948
 9270TIP3    H249302   2.611   4.247  13.962 -1.2154 -0.4183  1.8751
 9271TIP3   OH249303   4.871   2.967  11.228 -0.6370 -0.1602  0.3404
 9271TIP3    H149304   4.856   3.006  11.142  0.4186  1.3501  0.8088
 9271TIP3    H249305   4.945   2.907  11.215 -1.0064 -0.5469  0.0237
 9272TIP3   OH249306   1.614   0.534  10.582  0.1360  0.1126 -0.3927
 9272TIP3    H149307   1.639   0.622  10.554 -0.6700  0.6387  0.5076
 9272TIP3    H249308   1.697   0.489  10.594  0.6058  1.1801  0.4779
 9273TIP3   OH249309   4.165   6.682   2.797  0.0428 -0.4108 -0.6331
 9273TIP3    H149310   4.147   6.673   2.704 -2.7599 -0.3387 -0.1480
 9273TIP3    H249311   4.100   6.744   2.829  0.5883 -0.8586  1.4825
 9274TIP3   OH249312   1.301   0.683  11.932  0.0399  0.5739  0.0790
 9274TIP3    H149313   1.371   0.709  11.872  0.2291  0.6840  0.3499
 9274TIP3    H249314   1.346   0.649  12.009 -0.1988  1.7948  0.7628
 9275TIP3   OH249315   2.827   2.531  14.416  0.2258 -0.1328  0.1572
 9275TIP3    H149316   2.767   2.537  14.490 -0.9854 -1.9445 -0.6372
 9275TIP3    H249317   2.892   2.599  14.432 -0.0877 -0.4008  2.8153
 9276TIP3   OH249318   3.452   2.150  13.110  0.2412  0.3055 -0.2553
 9276TIP3    H149319   3.380   2.197  13.152 -0.0692 -1.2016  0.9542
 9276TIP3    H249320   3.421   2.132  13.021 -0.6901  0.0864  0.1130
 9277TIP3   OH249321   5.080   3.787   4.802 -0.1113 -0.3476 -0.3854
 9277TIP3    H149322   5.116   3.803   4.889 -0.9977  0.6602 -0.1966
 9277TIP3    H249323   5.032   3.705   4.810 -1.1759  0.3483  0.3754
 9278TIP3   OH249324   0.742   1.295   3.625  0.3951 -0.1937  0.5321
 9278TIP3    H149325   0.692   1.377   3.631  0.8995  0.2753 -1.2602
 9278TIP3    H249326   0.740   1.259   3.713 -0.8983  1.1305  1.0689
 9279TIP3   OH249327   2.427   0.557   4.414  0.2045 -0.3512 -0.0859
 9279TIP3    H149328   2.498   0.494   4.423 -1.4545 -2.3823 -0.8732
 9279TIP3    H249329   2.411   0.589   4.503  1.1260 -0.9727  0.3038
 9280TIP3   OH249330   6.297   2.478  14.644  0.0576 -0.0022  0.0472
 9280TIP3    H149331   6.359   2.466  14.716 -0.4176  0.6270  0.5595
 9280TIP3    H249332   6.276   2.388  14.616  3.1672 -0.2095 -1.8450
 9281TIP3   OH249333   1.100   1.515  15.954  0.2864  0.3978  0.4529
 9281TIP3    H149334   1.069   1.425  15.963  1.4759 -0.1726 -0.8890
 9281TIP3    H249335   1.085   1.555  16.039 -1.1032 -0.7950  0.7941
 9282TIP3   OH249336   4.225   3.488  13.521  0.2099 -0.1659 -0.6112
 9282TIP3    H149337   4.185   3.472  13.607  0.5921  0.8799 -0.2306
 9282TIP3    H249338   4.319   3.471  13.535  0.4118  0.9534 -0.5655
 9283TIP3   OH249339   0.655   6.067  11.713 -0.2468  0.0020 -0.0225
 9283TIP3    H149340   0.640   6.094  11.622 -0.5217  1.7010  0.5057
 9283TIP3    H249341   0.750   6.055  11.720 -0.2327 -0.2004 -0.5431
 9284TIP3   OH249342   6.349   0.726   5.144  0.7114  0.1462 -0.2793
 9284TIP3    H149343   6.405   0.752   5.071  0.1313 -0.8570 -1.1042
 9284TIP3    H249344   6.263   0.711   5.104  0.2489  0.1567  0.7061
 9285TIP3   OH249345   3.865   2.224   3.855  0.5660 -0.4262 -0.6251
 9285TIP3    H149346   3.791   2.285   3.861  0.4677 -0.5109 -0.9960
 9285TIP3    H249347   3.895   2.231   3.764 -0.3301 -1.9771 -1.0482
 9286TIP3   OH249348   6.380   2.155  13.887 -0.1933  0.3486 -0.1952
 9286TIP3    H149349   6.373   2.100  13.965  0.1167 -0.5043 -0.7740
 9286TIP3    H249350   6.419   2.237  13.919 -0.2523  0.0716  0.5822
 9287TIP3   OH249351   4.925   4.148   1.333 -0.2403  0.1814 -0.1770
 9287TIP3    H149352   4.993   4.197   1.287  0.0749  1.6774  1.8590
 9287TIP3    H249353   4.846   4.202   1.324 -0.1613  0.5169  1.0883
 9288TIP3   OH249354   0.534   3.871   5.556 -0.5037 -0.0589  0.2805
 9288TIP3    H149355   0.490   3.942   5.603  1.6856  1.4951  0.0513
 9288TIP3    H249356   0.534   3.797   5.618  2.1854  1.8837  2.7506
 9289TIP3   OH249357   0.357   2.877  14.277 -0.3139 -0.1863  0.1805
 9289TIP3    H149358   0.419   2.911  14.341  2.0752 -1.5329 -1.3494
 9289TIP3    H249359   0.384   2.918  14.194 -1.1790 -1.1470 -0.5866
 9290TIP3   OH249360   6.518   3.351  16.500  0.3587  0.4506  0.3855
 9290TIP3    H149361   6.506   3.390  16.413 -2.8876 -0.4512  0.3874
 9290TIP3    H249362   6.504   3.257  16.486 -1.4227  0.4476  2.0911
 9291TIP3   OH249363   0.308   2.562   3.338 -0.2850  0.5113  0.6083
 9291TIP3    H149364   0.218   2.546   3.367  0.0678 -1.8932  0.4909
 9291TIP3    H249365   0.351   2.601   3.414 -0.7886 -0.7198  1.5523
 9292TIP3   OH249366   2.969   5.390   2.006 -0.2987 -0.4961 -0.6768
 9292TIP3    H149367   3.055   5.354   1.988 -1.2483 -3.0355 -0.3607
 9292TIP3    H249368   2.920   5.380   1.924 -0.5092  0.3123 -0.6582
 9293TIP3   OH249369   6.513   0.711   2.401 -0.3176  0.4013  0.6847
 9293TIP3    H149370   6.557   0.706   2.486  0.0002 -0.6435  0.4681
 9293TIP3    H249371   6.584   0.718   2.338 -0.4588 -1.2372  0.3372
 9294TIP3   OH249372   0.894   4.420   4.554  0.4665 -0.3612  0.2894
 9294TIP3    H149373   0.981   4.423   4.514  0.5026 -1.0687  0.3204
 9294TIP3    H249374   0.839   4.374   4.491 -0.2072  1.2222 -0.3203
 9295TIP3   OH249375   2.351   6.070   0.275  0.1961  0.0018 -0.0326
 9295TIP3    H149376   2.437   6.101   0.303 -0.1115 -0.3509  1.3519
 9295TIP3    H249377   2.365   5.979   0.250  0.6575  0.5795 -1.9821
 9296TIP3   OH249378   2.886   4.115  10.171 -0.0363  0.3020  0.1876
 9296TIP3    H149379   2.930   4.052  10.228  1.9519  1.3447 -0.1775
 9296TIP3    H249380   2.866   4.189  10.229 -0.3680  0.2778  0.1072
 9297TIP3   OH249381   5.143   2.373   2.544  0.1892  0.3861 -0.0148
 9297TIP3    H149382   5.113   2.427   2.470 -1.5423  1.2234  1.2638
 9297TIP3    H249383   5.220   2.419   2.577 -0.9413  1.7900  0.7100
 9298TIP3   OH249384   2.411   2.355   1.907 -0.3462 -0.1944 -0.3348
 9298TIP3    H149385   2.432   2.352   2.000 -1.3762  1.6742 -0.0303
 9298TIP3    H249386   2.496   2.360   1.863  0.1025 -0.0426  0.5362
 9299TIP3   OH249387   3.155   0.299  14.717 -0.3785  0.0435 -0.3780
 9299TIP3    H149388   3.081   0.252  14.756  0.1397 -1.6940 -1.4328
 9299TIP3    H249389   3.115   0.357  14.652 -1.0175  1.0648  0.9032
 9300TIP3   OH249390   1.222   0.294   0.889  0.5290 -0.1775 -0.5155
 9300TIP3    H149391   1.201   0.210   0.929  0.6101 -0.2701 -0.6696
 9300TIP3    H249392   1.245   0.351   0.963  0.5952 -0.3242 -0.4241
 9301TIP3   OH249393   3.460   3.213   5.895  0.4914  0.4578 -0.3127
 9301TIP3    H149394   3.370   3.238   5.873  0.2415 -1.0023 -1.0096
 9301TIP3    H249395   3.512   3.291   5.877 -0.7155  1.5127  0.6571
 9302TIP3   OH249396   0.494   2.355   0.588 -0.1276 -0.4635 -0.3035
 9302TIP3    H149397   0.581   2.333   0.623  0.1527  1.1255  0.0244
 9302TIP3    H249398   0.482   2.447   0.609 -0.9082 -0.0529 -2.4207
 9303TIP3   OH249399   5.294   1.367   3.583 -0.6035 -0.0373 -0.4809
 9303TIP3    H149400   5.321   1.276   3.594  1.4985  0.5883 -0.1735
 9303TIP3    H249401   5.242   1.368   3.503 -0.5430 -1.4851 -0.5459
 9304TIP3   OH249402   2.152   6.389   2.579 -0.4749 -0.2405  0.1341
 9304TIP3    H149403   2.161   6.396   2.484  1.1313  0.2770  0.3041
 9304TIP3    H249404   2.185   6.302   2.600 -1.9425 -0.8211  0.1102
 9305TIP3   OH249405   6.187   3.507   5.364 -0.0393 -0.2278 -0.8495
 9305TIP3    H149406   6.096   3.527   5.345 -0.7276 -1.6053  0.8754
 9305TIP3    H249407   6.210   3.438   5.302  0.2346  0.9887 -2.1252
 9306TIP3   OH249408   2.656   4.200  14.368  0.1550 -0.3661 -0.1075
 9306TIP3    H149409   2.722   4.255  14.326 -1.5324  0.2567 -1.9967
 9306TIP3    H249410   2.637   4.132  14.304 -0.7256 -0.7933  0.6032
 9307TIP3   OH249411   4.127   1.650   5.648 -0.2001 -0.2122  0.0283
 9307TIP3    H149412   4.097   1.563   5.672 -0.4883  0.0603  0.6699
 9307TIP3    H249413   4.222   1.647   5.657  0.0593 -1.2540 -2.5675
 9308TIP3   OH249414   5.985   0.734  16.203  0.6154  0.5036  0.0512
 9308TIP3    H149415   5.894   0.760  16.214  0.4991  0.3080 -0.4621
 9308TIP3    H249416   6.021   0.797  16.141  1.2408  1.5243  1.4178
 9309TIP3   OH249417   6.734   1.019   3.691  0.0951  0.2152 -0.4684
 9309TIP3    H149418   6.757   0.928   3.713  1.3950  0.9334  1.2381
 9309TIP3    H249419   6.798   1.043   3.623  0.8248  0.3817  0.2661
 9310TIP3   OH249420   5.023   5.754   0.762  0.1645  0.2906 -0.1713
 9310TIP3    H149421   5.031   5.783   0.672 -0.9743  0.6121 -0.1731
 9310TIP3    H249422   4.929   5.758   0.781  0.1546 -1.7942  0.3459
 9311TIP3   OH249423   0.454   1.146   0.291  0.8035  0.0665 -0.5984
 9311TIP3    H149424   0.447   1.051   0.299 -0.7496  0.2767  0.6657
 9311TIP3    H249425   0.398   1.180   0.360  2.1362  1.9119 -0.3942
 9312TIP3   OH249426   0.988   0.643  11.468 -0.2767  0.0789  0.0913
 9312TIP3    H149427   0.901   0.664  11.433 -0.0602  0.5733 -0.1479
 9312TIP3    H249428   1.018   0.569  11.414 -0.9915 -0.7950  0.8676
 9313TIP3   OH249429   2.217   1.398  11.667 -0.2148  0.4978  0.1937
 9313TIP3    H149430   2.178   1.483  11.686 -0.9020  0.3205 -0.4189
 9313TIP3    H249431   2.186   1.376  11.579  1.4252  0.4476 -0.3932
 9314TIP3   OH249432   0.850   2.533  16.401 -0.6600  0.0003  0.2012
 9314TIP3    H149433   0.783   2.597  16.376  0.1182  0.9450  0.4796
 9314TIP3    H249434   0.897   2.514  16.320 -0.7109  0.0010  0.1707
 9315TIP3   OH249435   3.798   0.084  13.484 -0.1592  0.0172 -0.4769
 9315TIP3    H149436   3.789   0.049  13.395 -1.7590  1.0747 -0.7634
 9315TIP3    H249437   3.858   0.024  13.527  2.4541  0.7501 -2.9214
 9316TIP3   OH249438   5.094   2.507  11.494 -0.4453  0.0402  0.6614
 9316TIP3    H149439   5.032   2.575  11.520 -0.9548 -0.8502  1.8387
 9316TIP3    H249440   5.180   2.543  11.515 -0.5326  1.4406 -1.3439
 9317TIP3   OH249441   5.870   0.378   2.533  0.2505  0.3089 -0.1680
 9317TIP3    H149442   5.906   0.462   2.560 -1.0697  0.4068  1.3931
 9317TIP3    H249443   5.921   0.353   2.456  0.6640  2.5240 -0.6496
 9318TIP3   OH249444   5.212   6.142   4.767 -0.3457 -0.0033 -0.0380
 9318TIP3    H149445   5.147   6.162   4.700 -1.3541 -1.0835  0.6106
 9318TIP3    H249446   5.290   6.116   4.718 -0.3731  1.3118 -0.8106
 9319TIP3   OH249447   2.002   1.895  14.382  0.1209 -0.3437  0.2206
 9319TIP3    H149448   1.999   1.978  14.429  1.4960  0.4131 -0.9901
 9319TIP3    H249449   1.942   1.907  14.309 -0.3082 -0.7303  0.5027
 9320TIP3   OH249450   2.170   0.334   5.632 -0.1563  0.2099 -0.0478
 9320TIP3    H149451   2.162   0.430   5.633 -1.5344  0.1476 -1.8968
 9320TIP3    H249452   2.235   0.315   5.699  0.9145  2.5187 -0.3649
 9321TIP3   OH249453   3.933   3.353   2.130  0.0177  0.0862 -0.0996
 9321TIP3    H149454   4.009   3.365   2.186  0.8930 -0.8496 -1.0574
 9321TIP3    H249455   3.940   3.423   2.065  0.0441  0.0421 -0.1456
 9322TIP3   OH249456   1.574   0.695   4.304 -0.3864  0.1400  0.1469
 9322TIP3    H149457   1.561   0.635   4.378  0.2845 -0.6469 -0.3601
 9322TIP3    H249458   1.661   0.733   4.320 -0.1520 -0.1824 -0.3255
 9323TIP3   OH249459   0.326   1.643   5.800 -0.7245  0.1480 -0.0605
 9323TIP3    H149460   0.393   1.620   5.864 -0.6906  1.9615  0.5840
 9323TIP3    H249461   0.374   1.688   5.731 -1.1777  0.8813  0.0979
 9324TIP3   OH249462   4.103   1.441   1.054 -0.2476 -0.1790  0.3364
 9324TIP3    H149463   4.072   1.527   1.085 -2.5449 -0.8672  0.0791
 9324TIP3    H249464   4.067   1.379   1.118  0.8477 -1.0220  0.1484
 9325TIP3   OH249465   1.658   4.745   3.112  0.1441  0.4579 -0.2265
 9325TIP3    H149466   1.640   4.777   3.023  2.7813  0.8554 -0.6552
 9325TIP3    H249467   1.621   4.812   3.169 -0.7321  0.6717 -1.0197
 9326TIP3   OH249468   3.896   1.603  17.200 -0.0562 -0.2793  0.1679
 9326TIP3    H149469   3.934   1.691  17.201  0.3993 -0.4843  1.6511
 9326TIP3    H249470   3.858   1.592  17.287 -0.2306 -1.5162 -0.0542
 9327TIP3   OH249471   2.529   2.979   5.968  0.1788  0.1623 -0.5106
 9327TIP3    H149472   2.526   2.953   5.876  0.2516  0.7826 -0.6910
 9327TIP3    H249473   2.463   3.048   5.975  0.9857  0.9259 -0.3606
 9328TIP3   OH249474   3.898   5.447  15.098  0.6533  0.2352 -0.3420
 9328TIP3    H149475   3.828   5.450  15.032 -1.0763  0.7507  1.4677
 9328TIP3    H249476   3.885   5.362  15.141  1.5549  0.0550 -0.4302
 9329TIP3   OH249477   2.194   2.370   3.239 -0.2711 -0.2176 -0.1473
 9329TIP3    H149478   2.220   2.446   3.292  1.5631  0.1804 -1.5808
 9329TIP3    H249479   2.160   2.408   3.158 -0.4844 -0.9004 -0.3803
 9330TIP3   OH249480   1.465   0.640   3.741  0.1023  0.4658 -0.0720
 9330TIP3    H149481   1.454   0.717   3.796 -1.2673 -0.0222  0.3624
 9330TIP3    H249482   1.494   0.571   3.801 -1.5361 -0.1057  0.0804
 9331TIP3   OH249483   5.744   0.680   5.923 -0.1297 -0.0484  0.2449
 9331TIP3    H149484   5.800   0.679   6.001 -0.9144 -0.0376  0.8170
 9331TIP3    H249485   5.688   0.603   5.932  1.6768 -1.6442 -1.7442
 9332TIP3   OH249486   5.434   3.141  16.902 -0.1763  0.5218  0.1669
 9332TIP3    H149487   5.421   3.234  16.882  2.6109  1.0169  0.4335
 9332TIP3    H249488   5.474   3.105  16.823 -1.3200 -0.4820  0.0424
 9333TIP3   OH249489   6.428   4.157  12.506  0.2069 -0.0391  0.0402
 9333TIP3    H149490   6.384   4.230  12.550  1.9059  0.4746  0.9373
 9333TIP3    H249491   6.503   4.197  12.462 -0.2921 -0.8740 -1.6162
 9334TIP3   OH249492   6.331   5.890   3.710  0.1285  0.1653 -0.0720
 9334TIP3    H149493   6.247   5.936   3.704  0.3769  0.5481 -0.6848
 9334TIP3    H249494   6.340   5.847   3.625  1.3981  1.5997 -0.6806
 9335TIP3   OH249495   4.631   5.067   0.271  0.5040  0.0944  1.0351
 9335TIP3    H149496   4.576   5.127   0.221  0.1926  0.5167  1.8718
 9335TIP3    H249497   4.720   5.091   0.247  0.3543  0.1247  0.4962
 9336TIP3   OH249498   2.300   0.816   4.125  0.7606 -0.1494 -0.0061
 9336TIP3    H149499   2.240   0.749   4.157 -1.5067  0.8053 -2.1336
 9336TIP3    H249500   2.357   0.770   4.063 -0.0370 -0.3823 -0.5771
 9337TIP3   OH249501   5.277   1.993   1.274 -0.0759  0.2907 -1.0406
 9337TIP3    H149502   5.340   1.985   1.345 -1.8461  0.6363  0.5991
 9337TIP3    H249503   5.288   2.082   1.241  0.9779  0.0191 -1.4595
 9338TIP3   OH249504   0.807   2.862  16.587  0.1794  0.1241 -0.0185
 9338TIP3    H149505   0.882   2.871  16.645  0.5695 -1.1885 -0.3126
 9338TIP3    H249506   0.810   2.940  16.531  0.2511  1.0008  1.1722
 9339TIP3   OH249507   1.672   6.696  14.723  0.5794  0.3415 -0.4687
 9339TIP3    H149508   1.634   6.724  14.639 -1.7100  0.5382  0.5792
 9339TIP3    H249509   1.596   6.680  14.779  2.0483 -0.8752  1.2370
 9340TIP3   OH249510   6.044   5.578   3.699 -0.4812 -0.4291  0.3188
 9340TIP3    H149511   6.022   5.572   3.606 -1.3172 -0.7437  0.5327
 9340TIP3    H249512   5.968   5.541   3.744 -0.4086  0.4218  1.1614
 9341TIP3   OH249513   6.719   0.291  13.357  0.1811 -0.2868 -0.4012
 9341TIP3    H149514   6.804   0.336  13.366 -0.6211  0.8430  1.9959
 9341TIP3    H249515   6.678   0.333  13.281  0.7270  0.9446 -0.0394
 9342TIP3   OH249516   4.303   5.627  13.279  0.2219 -0.1580 -0.1327
 9342TIP3    H149517   4.386   5.652  13.238  0.7223 -2.2492 -0.4250
 9342TIP3    H249518   4.239   5.690  13.243  1.6192  1.3305 -0.0615
 9343TIP3   OH249519   2.946   0.385  13.245 -0.2486 -0.5101  0.3772
 9343TIP3    H149520   3.013   0.377  13.178 -3.1014  0.9003 -2.8496
 9343TIP3    H249521   2.973   0.461  13.297 -0.8536  2.0316 -2.8626
 9344TIP3   OH249522   0.790   5.899   5.995 -0.4127 -0.3715  0.4664
 9344TIP3    H149523   0.879   5.889   5.962 -0.8162  0.8403 -1.0567
 9344TIP3    H249524   0.753   5.972   5.944 -1.9429 -0.2019  1.7624
 9345TIP3   OH249525   1.820   0.763   4.373  0.2282 -0.1035 -0.6147
 9345TIP3    H149526   1.800   0.838   4.429 -2.0377 -1.1343  0.0312
 9345TIP3    H249527   1.873   0.705   4.429 -0.7464 -0.4416 -0.0319
 9346TIP3   OH249528   2.510   5.070  16.385 -0.1715 -1.0123  0.4539
 9346TIP3    H149529   2.584   5.034  16.336 -0.7563 -0.5610 -0.7748
 9346TIP3    H249530   2.481   4.998  16.441  1.8552 -0.8717  1.7361
 9347TIP3   OH249531   3.859   3.383   3.968  0.4702  0.1694  0.2762
 9347TIP3    H149532   3.955   3.383   3.968  0.4748 -0.3017  0.6834
 9347TIP3    H249533   3.835   3.476   3.976  0.8963  0.2733  0.3649
 9348TIP3   OH249534   6.442   3.665   4.660  0.2328  0.0011 -0.1029
 9348TIP3    H149535   6.480   3.747   4.691  0.1211  1.2644 -3.1926
 9348TIP3    H249536   6.403   3.626   4.739  0.3657  2.8271  1.4406
 9349TIP3   OH249537   2.693   3.705  12.832 -0.2405 -0.5741  0.0787
 9349TIP3    H149538   2.601   3.705  12.803 -0.6989  0.0948  1.4750
 9349TIP3    H249539   2.699   3.781  12.889  1.2121 -0.5933 -0.0493
 9350TIP3   OH249540   1.206   5.470   3.032  0.1893 -0.2945  0.0810
 9350TIP3    H149541   1.273   5.531   3.062  0.1406 -0.1776 -0.0424
 9350TIP3    H249542   1.252   5.387   3.021 -0.2646 -0.9194  2.6368
 9351TIP3   OH249543   0.092   0.389   6.492  0.3821  0.0884 -0.5081
 9351TIP3    H149544   0.050   0.381   6.406 -0.4319  0.0837 -0.1147
 9351TIP3    H249545   0.038   0.335   6.550  1.3620 -0.5074 -0.1457
 9352TIP3   OH249546   1.002   3.302  12.882 -0.1479 -0.1480  0.2225
 9352TIP3    H149547   0.996   3.344  12.797 -0.1830 -0.7805 -0.0890
 9352TIP3    H249548   0.919   3.326  12.925 -0.4622 -0.4538 -0.2076
 9353TIP3   OH249549   0.954   3.490  13.289  0.2491  0.2742  0.5584
 9353TIP3    H149550   0.859   3.497  13.304  0.0010 -0.1105 -0.7695
 9353TIP3    H249551   0.975   3.399  13.310 -0.0382 -0.1739 -1.0691
 9354TIP3   OH249552   5.661   1.139  11.512  0.1430 -0.3881 -0.2509
 9354TIP3    H149553   5.576   1.161  11.473 -0.2975 -0.4826  0.6254
 9354TIP3    H249554   5.639   1.079  11.583  1.0156 -0.9190 -0.4306
 9355TIP3   OH249555   1.891   6.522  16.824  0.1978  0.0740 -0.9139
 9355TIP3    H149556   1.871   6.435  16.788 -0.6499  0.5192 -1.5243
 9355TIP3    H249557   1.949   6.504  16.897 -0.1824 -1.0370 -0.8680
 9356TIP3   OH249558   2.985   2.487  16.574 -0.1539  0.3667 -0.3712
 9356TIP3    H149559   3.069   2.514  16.613  0.9184 -1.1814 -1.5362
 9356TIP3    H249560   3.009   2.450  16.489 -2.1397  0.7910 -1.1448
 9357TIP3   OH249561   5.968   3.836   5.288  0.7884 -0.5891  0.2450
 9357TIP3    H149562   5.955   3.816   5.195  2.5871 -0.9083  0.0346
 9357TIP3    H249563   5.911   3.911   5.305 -0.3048 -1.1590 -0.8666
 9358TIP3   OH249564   2.413   6.269  13.555  0.3460  0.1016  0.0137
 9358TIP3    H149565   2.392   6.190  13.505  2.0288 -0.5631  0.2984
 9358TIP3    H249566   2.435   6.334  13.489 -1.4907  0.4843 -0.2409
 9359TIP3   OH249567   1.600   3.587   3.635  0.0517  0.3462  0.4331
 9359TIP3    H149568   1.545   3.629   3.700 -1.6683 -0.9107 -0.1761
 9359TIP3    H249569   1.681   3.639   3.634 -1.5709  2.9523  0.4700
 9360TIP3   OH249570   2.713   1.505   4.305 -0.0052 -0.0658 -1.0889
 9360TIP3    H149571   2.749   1.426   4.344 -0.1007 -0.1508 -1.1723
 9360TIP3    H249572   2.764   1.518   4.225 -0.8094 -0.7385 -1.7191
 9361TIP3   OH249573   5.729   1.143  16.069 -0.5606 -0.4425 -0.5185
 9361TIP3    H149574   5.819   1.152  16.101 -1.2615 -3.0786  2.4072
 9361TIP3    H249575   5.738   1.100  15.984  1.0221  1.4241 -1.3334
 9362TIP3   OH249576   1.913   5.690   4.196  0.1626  0.1535  0.1947
 9362TIP3    H149577   1.938   5.762   4.253 -1.2368  0.4409  0.4620
 9362TIP3    H249578   1.818   5.683   4.206  0.0707 -0.6531 -1.0845
 9363TIP3   OH249579   4.221   1.131  16.010 -0.2760  0.2843  0.2745
 9363TIP3    H149580   4.303   1.152  16.055 -0.8535  0.7225  1.1437
 9363TIP3    H249581   4.218   1.193  15.937  0.0097  0.4924  0.4375
 9364TIP3   OH249582   0.756   0.211   6.695  0.4784 -0.0444  0.5274
 9364TIP3    H149583   0.744   0.119   6.673  0.0841  0.3080 -0.7689
 9364TIP3    H249584   0.824   0.242   6.636  0.0311  0.6965  0.3886
 9365TIP3   OH249585   1.272   5.999  11.000 -0.4491  0.1290  0.2991
 9365TIP3    H149586   1.302   6.042  11.081 -0.1133  0.8554 -0.2090
 9365TIP3    H249587   1.343   6.014  10.937 -1.1236  0.3671 -0.4071
 9366TIP3   OH249588   4.326   5.796  14.170 -0.1842 -0.2295 -0.2909
 9366TIP3    H149589   4.309   5.714  14.216 -2.1542 -0.8196 -1.9565
 9366TIP3    H249590   4.362   5.768  14.085 -2.2418  0.5219 -1.4445
 9367TIP3   OH249591   0.556   2.575   5.356  0.2679 -0.1368  0.3540
 9367TIP3    H149592   0.487   2.596   5.293 -0.1015 -0.3314  0.6908
 9367TIP3    H249593   0.615   2.650   5.352  0.1083 -0.0258 -0.0319
 9368TIP3   OH249594   3.867   2.846   6.069 -0.5191 -0.2932  0.0365
 9368TIP3    H149595   3.852   2.810   6.156 -2.0699 -0.0909 -0.1249
 9368TIP3    H249596   3.806   2.797   6.013 -1.4599  1.4270 -0.4698
 9369TIP3   OH249597   5.066   6.524  14.040  0.2460  0.1643 -0.4184
 9369TIP3    H149598   5.005   6.473  13.986 -0.0678  1.3202 -1.1802
 9369TIP3    H249599   5.142   6.467  14.049 -0.8325 -1.1931  0.3212
 9370TIP3   OH249600   5.279   5.214  13.155  0.8284 -0.2144  0.4150
 9370TIP3    H149601   5.370   5.236  13.172  1.4614  0.4472 -3.3526
 9370TIP3    H249602   5.236   5.298  13.139  0.3118 -0.7484 -1.0976
 9371TIP3   OH249603   2.486   6.653   2.990  0.4858 -0.7528 -0.0713
 9371TIP3    H149604   2.454   6.739   3.020  1.0728 -0.0735 -1.3479
 9371TIP3    H249605   2.411   6.595   3.002  0.7699 -0.6008  2.9529
 9372TIP3   OH249606   2.598   4.340   2.838 -0.6337  0.5920 -0.1628
 9372TIP3    H149607   2.596   4.253   2.797  0.1600  0.9897 -1.0651
 9372TIP3    H249608   2.520   4.343   2.892 -0.3002 -0.9641  0.4202
 9373TIP3   OH249609   6.301   5.658  11.876  0.0727  0.3173  0.6744
 9373TIP3    H149610   6.392   5.685  11.864  0.1238 -0.2320 -0.2220
 9373TIP3    H249611   6.306   5.585  11.939  0.0204  1.7468  2.3875
 9374TIP3   OH249612   0.887   0.870   1.618  0.0859  0.1118  0.2865
 9374TIP3    H149613   0.882   0.775   1.611 -1.4338  0.1351  0.6979
 9374TIP3    H249614   0.856   0.889   1.707  0.0319  1.0064  0.0850
 9375TIP3   OH249615   4.843   3.684  15.582  0.0470  0.1705  0.0912
 9375TIP3    H149616   4.861   3.601  15.539  0.4222  0.2046  0.1871
 9375TIP3    H249617   4.924   3.707  15.626  0.9639  2.1390 -2.4944
 9376TIP3   OH249618   6.155   2.335   3.785  0.0648 -0.2361  0.2091
 9376TIP3    H149619   6.202   2.375   3.712 -0.6335  1.1810  0.5131
 9376TIP3    H249620   6.066   2.367   3.777 -0.2771 -0.9641  1.0366
 9377TIP3   OH249621   3.539   0.099  17.146  0.2192 -0.5103 -0.6159
 9377TIP3    H149622   3.503   0.038  17.082 -0.2774 -0.5933 -0.2576
 9377TIP3    H249623   3.511   0.185  17.115 -2.4329 -0.7436  1.0144
 9378TIP3   OH249624   1.125   1.205  13.818  0.1550 -0.6997 -0.3904
 9378TIP3    H149625   1.079   1.239  13.741  0.0331 -1.2048 -0.5417
 9378TIP3    H249626   1.056   1.161  13.869 -0.1541  1.2731  0.9591
 9379TIP3   OH249627   4.668   4.750   2.811 -0.2115  1.2651 -0.7337
 9379TIP3    H149628   4.760   4.771   2.820 -0.3147  1.3408  0.2111
 9379TIP3    H249629   4.665   4.685   2.740  0.4415  2.0406 -1.4792
 9380TIP3   OH249630   2.243   6.112   4.736  0.4148 -0.3017  0.0903
 9380TIP3    H149631   2.187   6.073   4.669 -1.6917  1.1080  0.9544
 9380TIP3    H249632   2.229   6.058   4.814  0.3479 -0.0136  0.2797
 9381TIP3   OH249633   5.343   0.994   5.065  0.2751  0.5044 -0.5957
 9381TIP3    H149634   5.345   1.061   5.134 -0.1660 -0.3357  0.2529
 9381TIP3    H249635   5.370   0.914   5.110  1.3436  0.2073 -1.7214
 9382TIP3   OH249636   4.175   1.521  15.834 -0.0581 -0.3889 -0.4815
 9382TIP3    H149637   4.209   1.610  15.823 -0.3540 -0.1539  0.4176
 9382TIP3    H249638   4.086   1.534  15.865 -1.4408 -0.9883 -3.9938
 9383TIP3   OH249639   1.625   3.488   2.967 -0.3096  0.3749  0.2951
 9383TIP3    H149640   1.717   3.495   2.943  0.7713 -0.0344  3.9106
 9383TIP3    H249641   1.598   3.578   2.985 -0.0641  0.3080  1.0193
 9384TIP3   OH249642   3.993   3.861   3.734  0.3268 -0.3069 -0.1507
 9384TIP3    H149643   4.021   3.778   3.697 -0.3987 -0.2244 -0.9000
 9384TIP3    H249644   4.027   3.927   3.674  0.4144 -0.0923  0.1332
 9385TIP3   OH249645   3.855   6.404   1.084 -0.2368 -0.2079 -0.0328
 9385TIP3    H149646   3.888   6.419   1.173 -0.0658  0.1446 -0.1526
 9385TIP3    H249647   3.776   6.352   1.097  1.7355 -3.3093  0.0928
 9386TIP3   OH249648   6.351   0.061   5.058 -0.1673  0.7679  0.1719
 9386TIP3    H149649   6.430   0.113   5.044 -0.6386  1.5863  0.5102
 9386TIP3    H249650   6.381  -0.030   5.058  0.8296  1.0965  0.7261
 9387TIP3   OH249651   3.897   0.253  17.270 -1.0015 -0.0531 -0.5731
 9387TIP3    H149652   3.893   0.300  17.353 -0.7240 -2.4212  0.8302
 9387TIP3    H249653   3.861   0.314  17.206 -0.8144  1.9786  1.2074
 9388TIP3   OH249654   6.576   3.391   0.875  0.2128 -0.3742 -0.5575
 9388TIP3    H149655   6.661   3.356   0.848  0.8546  1.0161 -0.3939
 9388TIP3    H249656   6.580   3.484   0.851 -1.6189 -0.4875 -1.3921
 9389TIP3   OH249657   2.506   4.503   5.579 -0.2760  0.4188  0.2243
 9389TIP3    H149658   2.587   4.505   5.630 -0.4574  1.3689  0.4978
 9389TIP3    H249659   2.468   4.590   5.592 -0.6278  0.4617 -1.0518
 9390TIP3   OH249660   4.357   0.817  12.535  0.2736  0.1078 -0.4992
 9390TIP3    H149661   4.275   0.769  12.526  0.5056 -0.2775 -0.5843
 9390TIP3    H249662   4.331   0.904  12.565  0.0415 -1.0263  2.8584
 9391TIP3   OH249663   3.393   1.499  16.927 -0.2350 -0.1164 -0.0655
 9391TIP3    H149664   3.309   1.497  16.881 -0.0989  2.2378 -0.4443
 9391TIP3    H249665   3.455   1.461  16.865 -0.5241  0.6508 -0.8355
 9392TIP3   OH249666   1.200   3.001  16.995  0.0283  0.0243  0.1336
 9392TIP3    H149667   1.181   3.054  17.072  1.1746  0.1863  0.3117
 9392TIP3    H249668   1.296   3.003  16.987 -0.1709  1.8662 -2.5778
 9393TIP3   OH249669   2.626   5.909  12.262  0.2108  0.7175 -0.1443
 9393TIP3    H149670   2.669   5.825  12.245  0.8652  1.0451 -0.0968
 9393TIP3    H249671   2.671   5.945  12.339 -1.0630  0.4209  0.7721
 9394TIP3   OH249672   6.024   4.599  11.411  0.5557  0.1253 -0.2942
 9394TIP3    H149673   6.038   4.693  11.421 -3.2609  0.9031 -1.3448
 9394TIP3    H249674   6.045   4.582  11.319  0.0874  0.1891 -0.4133
 9395TIP3   OH249675   3.792   1.392  15.522  0.1280  0.2397 -0.4324
 9395TIP3    H149676   3.789   1.484  15.545  1.9011  0.2077 -0.0585
 9395TIP3    H249677   3.882   1.375  15.496 -0.1133 -1.4415 -0.2856
 9396TIP3   OH249678   5.472   2.302   2.788 -0.9603  0.4714 -0.5806
 9396TIP3    H149679   5.392   2.289   2.840 -1.1072  0.4043 -0.8244
 9396TIP3    H249680   5.457   2.254   2.707  0.1614 -1.2672  0.2185
 9397TIP3   OH249681   2.279   4.545  10.947  0.1455 -0.0509 -0.5972
 9397TIP3    H149682   2.362   4.589  10.930  0.3755 -0.8763 -1.6965
 9397TIP3    H249683   2.281   4.469  10.889 -1.1168 -0.3957 -0.1881
 9398TIP3   OH249684   2.885   1.681  11.750 -0.4233 -0.4696  0.0826
 9398TIP3    H149685   2.855   1.622  11.681  1.0157  1.6560 -2.4260
 9398TIP3    H249686   2.976   1.700  11.728 -1.2626  3.8476 -0.0443
 9399TIP3   OH249687   2.169   4.223  12.742  0.1949  0.1051 -0.7527
 9399TIP3    H149688   2.194   4.276  12.666 -1.2632 -0.2294 -1.4786
 9399TIP3    H249689   2.250   4.215  12.793  0.9589  1.1416 -1.7733
 9400TIP3   OH249690   4.116   5.961  16.285 -0.2038  0.6689 -0.7845
 9400TIP3    H149691   4.043   5.900  16.283 -1.1884  1.8503 -3.8037
 9400TIP3    H249692   4.193   5.906  16.301 -1.4602 -0.8897  0.0516
 9401TIP3   OH249693   5.585   5.045  15.318 -0.1808 -0.4969 -0.1013
 9401TIP3    H149694   5.516   5.068  15.380  0.3064  0.5042  0.0865
 9401TIP3    H249695   5.539   5.004  15.245 -0.8150 -1.2177  0.6829
 9402TIP3   OH249696   0.647   5.996  15.151  0.3363  0.5202 -0.1775
 9402TIP3    H149697   0.642   5.912  15.105 -0.7386  0.3114  0.2998
 9402TIP3    H249698   0.740   6.019  15.151  0.7779 -1.2342  0.7016
 9403TIP3   OH249699   4.452   3.618   6.008  0.3489  0.2907  0.0330
 9403TIP3    H149700   4.369   3.602   6.053 -1.2356  1.3652 -2.4323
 9403TIP3    H249701   4.492   3.689   6.058 -0.4670  0.1657  0.8945
 9404TIP3   OH249702   5.144   1.690   5.716 -0.5542  0.4587  0.4990
 9404TIP3    H149703   5.134   1.597   5.696 -2.6649  0.5092  1.1565
 9404TIP3    H249704   5.061   1.729   5.688 -0.0787  1.9617  1.1597
 9405TIP3   OH249705   5.825   0.030  16.024  0.4384 -0.2045  0.2264
 9405TIP3    H149706   5.759   0.084  15.981  1.0275 -0.1105 -0.5847
 9405TIP3    H249707   5.800   0.029  16.116 -0.5293  0.0560 -0.0300
 9406TIP3   OH249708   3.728   2.194   6.049  0.0357 -0.2500  0.1802
 9406TIP3    H149709   3.669   2.263   6.079 -0.4114  0.3193 -1.9543
 9406TIP3    H249710   3.750   2.146   6.129 -2.4369  0.1987  1.1898
 9407TIP3   OH249711   1.843   5.678   0.963  0.2336 -0.4403  0.0163
 9407TIP3    H149712   1.827   5.668   1.057  1.0563 -1.7371  0.0280
 9407TIP3    H249713   1.893   5.759   0.956  1.3243 -1.0293  0.8339
 9408TIP3   OH249714   0.241   5.314  12.569  0.8738  0.0241  0.4108
 9408TIP3    H149715   0.235   5.378  12.498  1.4369  0.8631  1.1123
 9408TIP3    H249716   0.152   5.309  12.604  0.1267 -1.8466 -1.5737
 9409TIP3   OH249717   3.512   5.851   5.763 -0.4056  0.6994 -0.3163
 9409TIP3    H149718   3.593   5.809   5.734 -1.7833 -2.1131 -0.2526
 9409TIP3    H249719   3.525   5.944   5.745  2.3938  0.1457 -1.3226
 9410TIP3   OH249720   1.167   2.027  16.346  0.2495  0.0201  0.0558
 9410TIP3    H149721   1.216   2.102  16.311 -0.8543  0.9836  0.5164
 9410TIP3    H249722   1.177   2.034  16.441  0.8820 -0.9429  0.0615
 9411TIP3   OH249723   3.491   3.472  16.102 -0.8722 -0.5080  0.1120
 9411TIP3    H149724   3.555   3.542  16.118 -1.1258 -0.4912  1.0830
 9411TIP3    H249725   3.514   3.438  16.015 -1.4673  1.5530 -0.8882
 9412TIP3   OH249726   3.443   2.568   4.357  0.1757 -0.1316 -0.3076
 9412TIP3    H149727   3.403   2.509   4.421 -0.2180 -0.0866 -0.5118
 9412TIP3    H249728   3.516   2.608   4.404 -0.4799  0.3560  0.3048
 9413TIP3   OH249729   4.509   3.737  14.375 -0.1510 -0.5932 -0.8555
 9413TIP3    H149730   4.504   3.669  14.442 -0.4422 -0.8535 -1.1405
 9413TIP3    H249731   4.418   3.763  14.360  0.0827  1.3185  0.7328
 9414TIP3   OH249732   3.377   3.234   3.574  0.1149 -0.0960 -0.2346
 9414TIP3    H149733   3.323   3.212   3.650 -1.1988  0.3163 -1.0342
 9414TIP3    H249734   3.413   3.150   3.546  1.8269 -0.0520  1.7352
 9415TIP3   OH249735   4.415   4.559  15.921  0.2772 -0.0053 -0.3130
 9415TIP3    H149736   4.493   4.614  15.933 -0.3680  0.4664  2.1174
 9415TIP3    H249737   4.448   4.470  15.918  0.9234  0.1934  0.7571
 9416TIP3   OH249738   5.006   5.273   6.579 -0.2070  0.0829 -0.0181
 9416TIP3    H149739   4.958   5.335   6.634  0.8031  0.3262  0.6029
 9416TIP3    H249740   5.019   5.320   6.496  1.8463  1.2895  0.9514
 9417TIP3   OH249741   4.580   4.714  15.705 -0.8463 -0.3319 -0.1786
 9417TIP3    H149742   4.523   4.731  15.630  0.0749 -0.5619 -0.9595
 9417TIP3    H249743   4.601   4.621  15.697  0.8122  0.0691 -0.7778
 9418TIP3   OH249744   6.084   3.255  13.860 -0.2187  0.1732  0.1680
 9418TIP3    H149745   6.032   3.197  13.804 -2.6125  1.0126  1.4365
 9418TIP3    H249746   6.123   3.197  13.925 -0.1577 -0.3837 -0.3566
 9419TIP3   OH249747   0.853   6.135   0.433  0.3428  0.2031  0.5269
 9419TIP3    H149748   0.789   6.077   0.394 -0.8587  1.8716 -0.0365
 9419TIP3    H249749   0.921   6.145   0.367  1.3081 -1.6925  1.1860
 9420TIP3   OH249750   2.355   0.022   3.461  0.5044 -0.0305  0.1606
 9420TIP3    H149751   2.399   0.044   3.543  1.2206 -1.4200  0.1717
 9420TIP3    H249752   2.281   0.082   3.456  0.2451 -0.1766  1.9960
 9421TIP3   OH249753   2.629   4.004  16.586 -0.3625  0.0569  0.4439
 9421TIP3    H149754   2.678   4.034  16.509 -0.6682  0.4244  0.3935
 9421TIP3    H249755   2.546   3.973  16.551 -0.7227  0.7395  0.6859
 9422TIP3   OH249756   2.762   6.170   2.853  0.0406 -0.3462 -0.4722
 9422TIP3    H149757   2.683   6.200   2.899  0.9666 -1.6458  1.9926
 9422TIP3    H249758   2.832   6.226   2.886  0.4351 -0.1693 -1.5762
 9423TIP3   OH249759   4.504   5.166   1.740  0.3552 -0.0695 -0.2368
 9423TIP3    H149760   4.511   5.153   1.835 -0.4467 -0.1257 -0.1814
 9423TIP3    H249761   4.583   5.214   1.717  0.1527  0.6738  0.5849
 9424TIP3   OH249762   1.936   5.331   0.146 -0.2598  0.5656  0.0384
 9424TIP3    H149763   1.856   5.280   0.152  0.6241 -0.6693  1.7859
 9424TIP3    H249764   1.988   5.287   0.078 -0.4548  0.4766 -0.0516
 9425TIP3   OH249765   5.164   4.249   5.734  0.0442 -0.1758 -0.4304
 9425TIP3    H149766   5.190   4.341   5.731  0.4418 -0.2335  1.0072
 9425TIP3    H249767   5.074   4.249   5.699 -0.0892  0.8041 -0.1104
 9426TIP3   OH249768   0.023   0.410  11.877 -0.0503 -0.1141  0.3362
 9426TIP3    H149769   0.062   0.423  11.963  0.6548  0.1439 -0.0210
 9426TIP3    H249770  -0.071   0.404  11.894  0.0291  0.6131  1.0509
 9427TIP3   OH249771   3.639   4.909  12.651 -0.3305  0.1167 -0.1388
 9427TIP3    H149772   3.575   4.888  12.720 -0.8445  1.4951 -0.1852
 9427TIP3    H249773   3.655   5.002  12.662  2.0151 -0.3025  0.1363
 9428TIP3   OH249774   3.828   2.189   4.644 -0.6158 -0.1605 -0.2191
 9428TIP3    H149775   3.850   2.128   4.714  1.5520  1.8636  0.9306
 9428TIP3    H249776   3.757   2.242   4.680  1.1429  1.5182  0.8907
 9429TIP3   OH249777   5.692   1.096   5.134  0.0002  0.0021  0.3775
 9429TIP3    H149778   5.755   1.157   5.173 -0.7437  1.6733 -0.9387
 9429TIP3    H249779   5.664   1.140   5.053 -1.6094 -1.4667  0.1134
 9430TIP3   OH249780   3.987   3.011  12.289 -0.5130 -0.3231  0.2099
 9430TIP3    H149781   4.044   3.060  12.348 -0.2390  0.1753 -0.4657
 9430TIP3    H249782   3.986   2.922  12.324  1.2035 -0.4978 -0.1511
 9431TIP3   OH249783   3.364   6.022  16.948 -0.8230 -0.2215 -0.5102
 9431TIP3    H149784   3.393   5.934  16.924 -2.8488 -0.7533 -1.0695
 9431TIP3    H249785   3.431   6.080  16.911  0.0642 -1.4709 -0.8855
 9432TIP3   OH249786   0.141   3.345   1.730 -0.2653  0.0347 -0.2018
 9432TIP3    H149787   0.139   3.379   1.640 -3.3254  1.1958  0.2356
 9432TIP3    H249788   0.167   3.420   1.783 -2.4393  0.4986  0.2683
 9433TIP3   OH249789   1.132   1.967   5.702 -0.7983 -0.6448  0.4502
 9433TIP3    H149790   1.199   1.904   5.728  1.0756  1.8918  2.0065
 9433TIP3    H249791   1.170   2.013   5.627 -1.3697 -0.1526  0.4566
 9434TIP3   OH249792   6.641   4.935  11.883 -0.4608 -0.1204  0.2567
 9434TIP3    H149793   6.574   4.900  11.942 -1.2153  1.2200  0.2238
 9434TIP3    H249794   6.607   5.021  11.857  0.4860 -0.1383 -1.0910
 9435TIP3   OH249795   0.874   5.787  13.326 -0.0023 -0.4312  0.1817
 9435TIP3    H149796   0.882   5.844  13.249  0.6967 -0.8509 -0.0630
 9435TIP3    H249797   0.784   5.755  13.322  0.3065 -1.1861 -0.9896
 9436TIP3   OH249798   0.075   6.385  10.411  0.0961 -0.1161 -0.0400
 9436TIP3    H149799   0.151   6.327  10.405 -0.8567 -1.1782 -2.2643
 9436TIP3    H249800   0.019   6.344  10.476  1.2959  0.5402  1.4339
 9437TIP3   OH249801   1.510   0.005   3.404 -0.2544 -0.3843  0.0115
 9437TIP3    H149802   1.440  -0.059   3.388 -0.5009 -0.4560  1.3147
 9437TIP3    H249803   1.583  -0.048   3.435  0.1803 -0.2373 -0.7504
 9438TIP3   OH249804   2.437   1.948   5.695  0.3631  0.0678 -0.2703
 9438TIP3    H149805   2.425   2.037   5.661  0.3264  0.2153  0.1268
 9438TIP3    H249806   2.478   1.901   5.622 -1.1643 -0.0353 -1.0704
 9439TIP3   OH249807   5.894   4.242  14.552 -0.1130  0.2588  0.0806
 9439TIP3    H149808   5.838   4.211  14.481  0.3491 -0.5339  0.0633
 9439TIP3    H249809   5.860   4.199  14.631 -1.2437  1.8926  0.5197
 9440TIP3   OH249810   3.398   4.827  11.127 -0.5169  0.1398  0.5189
 9440TIP3    H149811   3.318   4.869  11.159 -1.0128 -0.4296  0.0335
 9440TIP3    H249812   3.370   4.740  11.098 -0.0192  0.5428 -1.2173
 9441TIP3   OH249813   1.127   0.377   4.568  0.3206 -0.3276  0.3713
 9441TIP3    H149814   1.151   0.371   4.660 -0.8642 -0.4816  0.6829
 9441TIP3    H249815   1.175   0.452   4.535  0.8965 -0.3863  1.0753
 9442TIP3   OH249816   1.894   1.002   6.254  0.6586 -0.6239  0.6794
 9442TIP3    H149817   1.920   0.938   6.188  1.5657 -0.0748  0.4918
 9442TIP3    H249818   1.966   1.001   6.318  0.6186  0.1137  0.7413
 9443TIP3   OH249819   1.060   4.386  14.169 -0.5053  0.4198  0.4030
 9443TIP3    H149820   1.045   4.458  14.109  0.4526 -1.0006 -1.6009
 9443TIP3    H249821   1.147   4.353  14.146 -1.0883 -1.6258  0.9861
 9444TIP3   OH249822   1.246   0.226   0.620  0.1270 -0.7205 -0.1283
 9444TIP3    H149823   1.223   0.212   0.712  1.0720 -1.5174  0.0001
 9444TIP3    H249824   1.166   0.206   0.572 -0.4880  0.0895  0.5456
 9445TIP3   OH249825   2.655   0.437  16.734  0.1316 -0.5620 -1.5276
 9445TIP3    H149826   2.662   0.411  16.642  2.0522 -3.2765 -0.6945
 9445TIP3    H249827   2.700   0.367  16.781 -1.7079  0.2703  1.5687
 9446TIP3   OH249828   1.649   3.611   3.271  0.4768 -0.2517  0.1033
 9446TIP3    H149829   1.672   3.639   3.182  0.1031 -1.0493 -0.2530
 9446TIP3    H249830   1.623   3.691   3.316 -1.4999 -0.1359 -1.1775
 9447TIP3   OH249831   3.449   1.396  16.571  0.1559  0.5728  0.9513
 9447TIP3    H149832   3.520   1.372  16.630  1.0244  0.9084  0.0510
 9447TIP3    H249833   3.479   1.475  16.527  0.2664 -0.6206 -1.1853
 9448TIP3   OH249834   5.942   6.540   1.862 -0.0582  0.0662  0.7790
 9448TIP3    H149835   6.027   6.554   1.904  0.3732 -0.8626  0.2369
 9448TIP3    H249836   5.890   6.616   1.887  1.1876  1.0347  0.4764
 9449TIP3   OH249837   0.447   0.283  12.998  0.0334  0.7944  0.0950
 9449TIP3    H149838   0.377   0.223  13.024  0.8152 -0.1870 -0.0579
 9449TIP3    H249839   0.458   0.268  12.904  2.3449 -1.0771  0.6128
 9450TIP3   OH249840   4.553   4.858   4.540 -0.0055  0.6309 -0.0388
 9450TIP3    H149841   4.646   4.842   4.557 -0.4570 -0.2834  1.6760
 9450TIP3    H249842   4.548   4.952   4.523  1.6331  0.2240 -3.0734
 9451TIP3   OH249843   6.195   0.535   0.951  0.1842 -0.6300 -0.1253
 9451TIP3    H149844   6.135   0.488   0.893  1.2408 -0.3827 -1.4396
 9451TIP3    H249845   6.140   0.599   0.995 -1.1962 -2.7096  1.3110
 9452TIP3   OH249846   0.426   3.808   2.906  0.1027 -0.5021 -0.1531
 9452TIP3    H149847   0.461   3.736   2.854 -0.8330  0.0489 -1.5542
 9452TIP3    H249848   0.337   3.781   2.928 -0.0841  0.0063 -0.2754
 9453TIP3   OH249849   3.867   5.322   5.512 -0.2672  0.5126 -0.0908
 9453TIP3    H149850   3.801   5.382   5.547  0.1340  0.5420  0.6156
 9453TIP3    H249851   3.914   5.291   5.589 -0.1926 -0.3791 -0.4963
 9454TIP3   OH249852   3.777   2.017  12.684  0.0689  0.0818 -0.1173
 9454TIP3    H149853   3.853   2.075  12.678  0.2486  0.0089  1.3058
 9454TIP3    H249854   3.726   2.052  12.756 -0.5181 -0.7226 -0.1349
 9455TIP3   OH249855   2.511   2.707   6.079 -0.3556 -0.3083  0.0559
 9455TIP3    H149856   2.562   2.767   6.024 -0.0391 -0.5375  0.0978
 9455TIP3    H249857   2.506   2.751   6.164  2.1651 -1.5385  0.8856
 9456TIP3   OH249858   2.738   1.446  11.072 -0.3957 -0.3587 -0.7031
 9456TIP3    H149859   2.781   1.382  11.015  2.2888  0.0308  0.8451
 9456TIP3    H249860   2.773   1.531  11.044 -1.8135  0.1961 -0.8568
 9457TIP3   OH249861   1.241   0.015  12.127 -0.0978  0.3630 -0.3506
 9457TIP3    H149862   1.230  -0.058  12.188  1.1144  0.6388  0.2154
 9457TIP3    H249863   1.154   0.027  12.088 -0.3085 -1.3637 -0.4507
 9458TIP3   OH249864   3.931   2.098  13.444  0.3518 -0.0047 -0.2645
 9458TIP3    H149865   4.010   2.049  13.465  0.1513 -1.5269 -2.9573
 9458TIP3    H249866   3.924   2.095  13.349 -0.9597  3.2618 -0.3555
 9459TIP3   OH249867   6.811   1.122   0.507  0.0366 -0.5752 -0.8234
 9459TIP3    H149868   6.879   1.075   0.556  1.6034  1.0466 -1.3872
 9459TIP3    H249869   6.751   1.054   0.477  1.1558 -1.9845  0.0842
 9460TIP3   OH249870   5.660   1.270   2.058 -0.4455  0.0393  0.3772
 9460TIP3    H149871   5.634   1.358   2.033  1.7351  0.6196  0.0762
 9460TIP3    H249872   5.657   1.220   1.976  0.7006  0.4375  0.0894
 9461TIP3   OH249873   6.096   0.839   4.253  0.0573 -0.0096 -0.5341
 9461TIP3    H149874   6.106   0.899   4.179 -0.9981  0.8964  0.0361
 9461TIP3    H249875   6.178   0.790   4.256  1.0917  1.6681 -0.7918
 9462TIP3   OH249876   0.556   2.625   0.626 -0.0181  0.3577 -0.1714
 9462TIP3    H149877   0.619   2.650   0.693 -0.7909  1.5259  0.1284
 9462TIP3    H249878   0.572   2.686   0.553  0.6490 -0.7388 -0.9561
 9463TIP3   OH249879   6.345   3.015  14.303 -0.1449  0.1695 -0.2586
 9463TIP3    H149880   6.439   3.020  14.320 -0.3909 -1.8400  1.9036
 9463TIP3    H249881   6.327   2.922  14.290 -1.8249  0.5488 -0.7975
 9464TIP3   OH249882   4.361   2.881  11.017  0.1321  0.6928  0.4522
 9464TIP3    H149883   4.291   2.917  11.072 -0.8313  1.2945 -1.1306
 9464TIP3    H249884   4.414   2.957  10.993  0.2081  0.5176  0.0710
 9465TIP3   OH249885   6.291   3.802  14.975 -0.2337 -0.3903 -0.4341
 9465TIP3    H149886   6.251   3.721  14.944  0.6128 -0.5970 -0.9868
 9465TIP3    H249887   6.376   3.775  15.009  0.7613  0.5268 -2.1869
 9466TIP3   OH249888   2.443   3.639   4.812 -0.2516 -0.1001  0.5899
 9466TIP3    H149889   2.497   3.565   4.839 -0.9120  0.4560  3.6498
 9466TIP3    H249890   2.478   3.713   4.862 -2.2365  0.7619  0.7318
 9467TIP3   OH249891   6.537   6.538  16.185 -0.1783 -0.2096 -0.2375
 9467TIP3    H149892   6.542   6.502  16.096 -0.6863 -1.5861  0.2676
 9467TIP3    H249893   6.512   6.629  16.172 -0.5014 -0.4577 -1.5050
 9468TIP3   OH249894   1.354   4.003   3.871 -0.2472  0.8531 -0.2369
 9468TIP3    H149895   1.392   4.060   3.938 -0.7321  1.3093 -0.3451
 9468TIP3    H249896   1.276   4.050   3.841 -0.3887  0.3512 -0.6648
 9469TIP3   OH249897   1.101   4.016  11.301  0.0107  0.1429  0.0614
 9469TIP3    H149898   1.162   3.965  11.246  0.9651  0.6062  0.6755
 9469TIP3    H249899   1.054   4.071  11.238  0.1068 -0.3413 -0.4432
 9470TIP3   OH249900   5.085   5.401   1.857 -0.1490  0.1994 -0.2705
 9470TIP3    H149901   5.147   5.462   1.898 -0.0916  0.2038 -0.3618
 9470TIP3    H249902   5.061   5.443   1.775  0.0903 -0.0211 -0.4555
 9471TIP3   OH249903   0.471   5.703   2.326  0.1130 -0.8120  0.3857
 9471TIP3    H149904   0.426   5.747   2.398 -0.3411 -2.7642  1.3304
 9471TIP3    H249905   0.535   5.646   2.369 -0.8387 -2.7405 -0.6846
 9472TIP3   OH249906   3.487   4.782  14.678 -0.2355 -0.2896 -0.1772
 9472TIP3    H149907   3.568   4.766  14.630  0.8627  1.3896  1.0394
 9472TIP3    H249908   3.452   4.695  14.697  0.0778 -1.0124 -2.6605
 9473TIP3   OH249909   0.735   2.767   5.395 -0.6667 -0.1044  0.0119
 9473TIP3    H149910   0.793   2.760   5.471 -0.1199  1.0467 -0.2826
 9473TIP3    H249911   0.775   2.835   5.341 -1.6902 -0.0889 -0.7400
 9474TIP3   OH249912   5.270   2.716   1.493  0.7506  0.0191 -0.1177
 9474TIP3    H149913   5.266   2.654   1.566 -0.8512 -1.7048 -1.6126
 9474TIP3    H249914   5.179   2.740   1.476  1.1813  1.0647 -0.9996
 9475TIP3   OH249915   3.201   4.295   3.570  0.5893  0.1877  0.6077
 9475TIP3    H149916   3.121   4.244   3.561  1.1042 -0.2631 -1.9413
 9475TIP3    H249917   3.271   4.230   3.576  0.9686  0.5646  0.3603
 9476TIP3   OH249918   6.220   0.985  11.262 -0.1994  0.2625  0.0911
 9476TIP3    H149919   6.285   0.941  11.207  0.2530  0.8190  0.1693
 9476TIP3    H249920   6.163   1.030  11.201 -0.0588  0.3840  0.0482
 9477TIP3   OH249921   6.520   5.991  14.435 -0.0957 -0.4723  0.4313
 9477TIP3    H149922   6.495   5.960  14.521 -0.6538 -2.2503 -0.3533
 9477TIP3    H249923   6.555   5.914  14.390  0.4510  0.4915 -0.8273
 9478TIP3   OH249924   3.419   6.403  15.544  0.2686 -0.3207 -0.7284
 9478TIP3    H149925   3.351   6.470  15.541  1.4605  1.0677  1.8706
 9478TIP3    H249926   3.493   6.442  15.496  0.2642 -0.6212 -0.9825
 9479TIP3   OH249927   2.115   2.608  14.813  0.0413  0.0211 -0.3264
 9479TIP3    H149928   2.032   2.562  14.825 -0.7786  1.4239 -0.5137
 9479TIP3    H249929   2.149   2.621  14.902  2.1078 -4.1086 -0.3684
 9480TIP3   OH249930   5.723   5.615   2.967  0.1398  0.1965  0.5173
 9480TIP3    H149931   5.691   5.648   3.052 -1.8632 -2.0724  0.6764
 9480TIP3    H249932   5.644   5.589   2.920  1.4726 -1.6004 -0.7814
 9481TIP3   OH249933   1.369   4.254   1.199 -0.0414  0.2340 -0.2590
 9481TIP3    H149934   1.455   4.225   1.170 -1.2123 -2.1151 -1.5475
 9481TIP3    H249935   1.315   4.254   1.119 -1.1313  2.1460  0.4271
 9482TIP3   OH249936   0.350   1.774  16.843 -0.0775  0.1183 -0.7581
 9482TIP3    H149937   0.443   1.785  16.862 -0.4776 -0.1673  1.4678
 9482TIP3    H249938   0.325   1.855  16.797  0.0870  2.5981  3.3006
 9483TIP3   OH249939   4.659   0.383  15.803  0.7300 -0.4590  0.1882
 9483TIP3    H149940   4.634   0.458  15.857  0.3015 -0.4491 -0.0199
 9483TIP3    H249941   4.739   0.411  15.759  0.8652 -0.3230  0.5202
 9484TIP3   OH249942   4.800   3.690  11.997  0.4701  0.2536  0.2376
 9484TIP3    H149943   4.851   3.709  12.076  0.0947 -1.7526  0.9909
 9484TIP3    H249944   4.779   3.597  12.005 -0.5878  0.3302 -1.6494
 9485TIP3   OH249945   6.134   3.615  16.553 -0.1848 -0.5670  1.0644
 9485TIP3    H149946   6.132   3.680  16.623  0.8166 -1.4101  1.8843
 9485TIP3    H249947   6.198   3.551  16.581  0.4425 -0.7798 -0.7653
 9486TIP3   OH249948   0.090   0.450  15.550 -0.4748 -0.1899  0.0305
 9486TIP3    H149949   0.059   0.359  15.554  0.6316 -0.5856 -0.1544
 9486TIP3    H249950   0.121   0.461  15.461 -0.5234  0.3477  0.0782
 9487TIP3   OH249951   5.027   4.294  17.075  0.4617  0.1693  0.2846
 9487TIP3    H149952   5.066   4.339  17.150 -0.1522  0.4112  0.4623
 9487TIP3    H249953   4.951   4.248  17.112  0.1853  0.2516 -0.1863
 9488TIP3   OH249954   5.205   0.677   5.506  0.3387  0.2360  0.1799
 9488TIP3    H149955   5.179   0.656   5.416 -1.2491 -1.3878  0.9869
 9488TIP3    H249956   5.173   0.767   5.520  0.9209  0.6272 -0.9985
 9489TIP3   OH249957   2.621   3.879  16.262 -0.4008  0.1175  0.3251
 9489TIP3    H149958   2.614   3.801  16.317 -1.7503  0.2577  0.3559
 9489TIP3    H249959   2.690   3.931  16.303  0.8464 -1.2746  0.0299
 9490TIP3   OH249960   4.782   3.251   0.850 -0.6402  0.2587  0.7895
 9490TIP3    H149961   4.812   3.161   0.837 -2.8726  0.0269 -3.5157
 9490TIP3    H249962   4.862   3.303   0.852  0.5367 -1.4955  0.1582
 9491TIP3   OH249963   5.359   4.973   1.576 -0.6548 -0.6408  0.1810
 9491TIP3    H149964   5.392   5.025   1.502  0.5858  1.9395  2.4632
 9491TIP3    H249965   5.268   4.999   1.585  0.1387  1.6557  1.7192
 9492TIP3   OH249966   0.953   0.078  15.933  0.0249  0.6871 -0.2581
 9492TIP3    H149967   0.867   0.080  15.975  0.1213  1.6183 -0.0835
 9492TIP3    H249968   0.965   0.167  15.899  1.3922  0.8813  0.6814
 9493TIP3   OH249969   1.792   2.593  13.435  0.3861  0.0392  0.1100
 9493TIP3    H149970   1.762   2.684  13.441  1.3182  0.3847 -0.4391
 9493TIP3    H249971   1.729   2.544  13.487 -0.5709  0.9015 -0.2119
 9494TIP3   OH249972   1.084   0.198   2.310 -0.5108 -0.1224 -0.0488
 9494TIP3    H149973   1.113   0.213   2.400  0.1165 -1.6540  0.0163
 9494TIP3    H249974   0.994   0.168   2.318  0.1564 -2.1360  0.2213
 9495TIP3   OH249975   2.146   3.691  15.471  0.0261  0.2247 -0.2178
 9495TIP3    H149976   2.103   3.638  15.538 -0.9467  0.4904 -0.6227
 9495TIP3    H249977   2.113   3.655  15.388  1.0939 -0.0014 -0.5502
 9496TIP3   OH249978   3.011   2.968   1.065 -0.0911 -0.4955 -0.7626
 9496TIP3    H149979   3.013   2.983   0.971  0.6680  0.2920 -0.6284
 9496TIP3    H249980   3.101   2.984   1.094 -0.5643  0.3950  0.2594
 9497TIP3   OH249981   3.164   3.381   0.405  0.0577  0.5207  0.0503
 9497TIP3    H149982   3.214   3.362   0.484  0.7798 -1.8815 -0.9367
 9497TIP3    H249983   3.228   3.416   0.344 -0.2317  1.0758  0.0612
 9498TIP3   OH249984   4.140   5.931   3.128 -0.2833  0.7085 -0.3855
 9498TIP3    H149985   4.117   5.882   3.207 -0.2308  0.1972 -0.6841
 9498TIP3    H249986   4.107   6.020   3.145 -0.1054  0.6508  0.2825
 9499TIP3   OH249987   5.567   2.254   5.390  0.1071  0.3200 -0.3468
 9499TIP3    H149988   5.520   2.332   5.418 -1.0113 -1.1122  1.9042
 9499TIP3    H249989   5.659   2.273   5.409  0.0036  1.5785 -1.0506
 9500TIP3   OH249990   0.634   2.938  16.077  0.9475 -0.1893 -0.4027
 9500TIP3    H149991   0.597   2.853  16.053  1.9933 -0.7026 -0.2300
 9500TIP3    H249992   0.681   2.922  16.158 -1.0135  1.1426  1.0221
 9501TIP3   OH249993   6.429   0.351   5.827 -0.4458 -0.3804 -0.3575
 9501TIP3    H149994   6.502   0.356   5.888  0.1430 -1.7653 -0.9288
 9501TIP3    H249995   6.357   0.315   5.878  0.1013 -1.7203 -0.5042
 9502TIP3   OH249996   2.854   3.169   4.285 -0.3310 -0.4546 -0.2810
 9502TIP3    H149997   2.849   3.103   4.215 -0.0557 -2.3068  1.3828
 9502TIP3    H249998   2.767   3.169   4.323 -0.3200  0.1428 -0.2558
 9503TIP3   OH249999   4.702   5.577   1.753 -0.1908 -0.7868  0.0417
 9503TIP3    H150000   4.729   5.579   1.844 -0.7436 -1.1890  0.2160
 9503TIP3    H250001   4.707   5.669   1.725  0.8490 -0.7853  0.2074
 9504TIP3   OH250002   2.948   6.384   2.986  0.1353 -0.6321  0.3773
 9504TIP3    H150003   3.015   6.437   3.029 -0.5373  0.0001  0.6586
 9504TIP3    H250004   2.897   6.447   2.935  0.0545 -1.1794 -0.2231
 9505TIP3   OH250005   0.533   2.203  16.527 -0.5292 -0.1641 -0.5675
 9505TIP3    H150006   0.452   2.191  16.577 -0.5479 -0.3255 -0.6345
 9505TIP3    H250007   0.602   2.177  16.587 -0.5659 -0.5551 -0.6927
 9506TIP3   OH250008   1.022   0.332  12.996 -0.4214 -0.8055 -0.2988
 9506TIP3    H150009   0.982   0.312  12.911  0.2291 -0.7469 -0.6170
 9506TIP3    H250010   1.109   0.292  12.991 -1.5267 -3.5825  1.5227
 9507TIP3   OH250011   5.385   2.420   1.610 -0.2048  0.1672  0.1538
 9507TIP3    H150012   5.354   2.384   1.527 -2.1544 -1.0219  1.3487
 9507TIP3    H250013   5.480   2.406   1.609 -0.6478 -3.3308 -0.2750
 9508TIP3   OH250014   6.631   0.543  13.744 -0.7977 -0.1182  0.2039
 9508TIP3    H150015   6.544   0.583  13.746 -0.7689 -0.0696  0.6959
 9508TIP3    H250016   6.644   0.510  13.833  0.3237  1.2386  0.5684
 9509TIP3   OH250017   5.343   0.084  13.927  0.0695 -0.4362 -0.5841
 9509TIP3    H150018   5.304   0.127  14.003  0.9423 -1.3865  0.4068
 9509TIP3    H250019   5.425   0.047  13.959  1.2537  0.5566 -2.3782
 9510TIP3   OH250020   0.065   0.759  12.065 -0.4236 -0.1965 -0.9047
 9510TIP3    H150021   0.002   0.823  12.033 -0.3289  0.9433  1.1218
 9510TIP3    H250022   0.078   0.781  12.157  2.9294 -0.3949 -1.2668
 9511TIP3   OH250023   3.577   3.851  13.797  0.4859 -0.8486  0.0309
 9511TIP3    H150024   3.614   3.840  13.884 -0.2206 -1.5997  0.2393
 9511TIP3    H250025   3.584   3.765  13.756 -1.5392 -1.1624  0.2856
 9512TIP3   OH250026   1.665   1.450  13.141  0.2886 -0.2744 -0.5187
 9512TIP3    H150027   1.705   1.469  13.226  1.5260  1.1240 -1.3948
 9512TIP3    H250028   1.702   1.366  13.115  1.2488  0.1174 -0.4516
 9513TIP3   OH250029   3.817   4.701  11.521  0.1427  0.0522 -0.0239
 9513TIP3    H150030   3.906   4.735  11.507 -1.3437  3.6368 -1.3623
 9513TIP3    H250031   3.786   4.747  11.599 -0.9925 -0.2489 -0.2957
 9514TIP3   OH250032   1.799   4.154   3.614  0.4853 -0.2273  0.0520
 9514TIP3    H150033   1.819   4.230   3.559  0.5150  0.3766  0.8962
 9514TIP3    H250034   1.885   4.122   3.641  0.4877 -0.8094 -0.6356
 9515TIP3   OH250035   1.821   2.629  14.564 -0.5214  0.0068  0.2628
 9515TIP3    H150036   1.831   2.721  14.539 -1.9051  0.4917  1.4203
 9515TIP3    H250037   1.780   2.632  14.651 -0.4378 -1.6970  0.3789
 9516TIP3   OH250038   5.789   0.498   5.521 -0.2723 -0.2858 -0.1080
 9516TIP3    H150039   5.693   0.497   5.515 -0.2978  0.8614 -0.1213
 9516TIP3    H250040   5.809   0.456   5.604 -0.7487 -1.2301 -0.4663
 9517TIP3   OH250041   5.779   3.803   1.225 -0.6390 -0.0559 -0.3592
 9517TIP3    H150042   5.820   3.720   1.250  2.2009  1.2051 -0.5321
 9517TIP3    H250043   5.794   3.861   1.299 -0.8593  0.8574 -1.0154
 9518TIP3   OH250044   1.906   4.237   4.452 -0.0679 -0.0181 -1.2179
 9518TIP3    H150045   1.913   4.307   4.517  2.2805 -0.1190 -1.3134
 9518TIP3    H250046   1.814   4.210   4.455 -0.4696  1.4572  0.4950
 9519TIP3   OH250047   3.302   1.296   1.547 -0.3824 -0.1607  0.0459
 9519TIP3    H150048   3.211   1.267   1.539 -0.8258  1.1882  0.1741
 9519TIP3    H250049   3.351   1.235   1.492 -0.9728 -2.6791  2.1520
 9520TIP3   OH250050   3.143   0.362  16.008  0.0964 -0.3691 -0.0592
 9520TIP3    H150051   3.136   0.450  15.970  1.8084  0.0953  0.6851
 9520TIP3    H250052   3.053   0.329  16.007 -0.1691  0.3676 -2.7432
 9521TIP3   OH250053   0.536   6.320  11.278 -0.2892 -0.0039  0.2360
 9521TIP3    H150054   0.587   6.243  11.304 -0.1837 -0.1455 -0.3718
 9521TIP3    H250055   0.483   6.289  11.205 -0.3694  0.4592  0.1006
 9522TIP3   OH250056   6.656   5.808   1.310 -0.9554 -0.5139  0.9282
 9522TIP3    H150057   6.672   5.720   1.276 -0.5695 -0.9718  2.2512
 9522TIP3    H250058   6.599   5.795   1.385 -0.1905  0.2758  1.6580
 9523TIP3   OH250059   2.725   0.142  14.488  0.0226  0.5076  0.3585
 9523TIP3    H150060   2.660   0.091  14.439 -0.4614  1.7182 -0.2776
 9523TIP3    H250061   2.803   0.139  14.434  0.4991 -0.8764  1.0833
 9524TIP3   OH250062   1.010   2.362  17.219 -0.0304  0.1254  0.1126
 9524TIP3    H150063   0.986   2.446  17.257  0.5256  0.4770 -0.3078
 9524TIP3    H250064   1.070   2.384  17.148  0.7736 -0.6825  0.5434
 9525TIP3   OH250065   3.617   5.237  11.934 -0.0659 -0.4248 -0.4604
 9525TIP3    H150066   3.558   5.235  11.858  0.6794 -1.0060 -1.0343
 9525TIP3    H250067   3.700   5.269  11.898  0.0979 -0.0369  0.2568
 9526TIP3   OH250068   5.370   2.127  16.260  0.2509  0.3330  0.2146
 9526TIP3    H150069   5.357   2.210  16.215  0.1271  0.1755 -0.0398
 9526TIP3    H250070   5.306   2.128  16.331 -0.3653  0.0675 -0.3282
 9527TIP3   OH250071   2.183   6.264  11.000  0.1688 -0.9292 -0.2366
 9527TIP3    H150072   2.090   6.249  10.984 -0.1426  0.0710  0.6709
 9527TIP3    H250073   2.197   6.237  11.090  0.5939 -0.2870 -0.1108
 9528TIP3   OH250074   2.786   5.105   4.330 -0.5053  0.0027  0.1102
 9528TIP3    H150075   2.702   5.061   4.339 -1.5721  1.2639 -3.2181
 9528TIP3    H250076   2.851   5.038   4.352 -2.2914 -1.4178  1.1290
 9529TIP3   OH250077   5.576   0.043   3.162 -0.0823 -0.7652  0.3934
 9529TIP3    H150078   5.614  -0.033   3.205  0.3158 -2.2315 -2.4768
 9529TIP3    H250079   5.650   0.104   3.152  0.3780 -1.4713 -0.5126
 9530TIP3   OH250080   0.663   5.552   1.169  0.1243  0.1756 -0.1597
 9530TIP3    H150081   0.656   5.633   1.118 -2.3236 -1.5724 -2.7544
 9530TIP3    H250082   0.620   5.486   1.115  1.5848 -2.7723  2.1487
 9531TIP3   OH250083   5.105   4.123   6.488 -0.2990  0.1317 -0.1356
 9531TIP3    H150084   5.060   4.094   6.567  0.4938 -0.5509  0.0747
 9531TIP3    H250085   5.044   4.103   6.417 -1.3260  1.4359  0.3694
 9532TIP3   OH250086   1.941   4.182   1.569  0.0156 -0.5746  0.1178
 9532TIP3    H150087   1.909   4.128   1.497  1.4799 -0.2063 -0.8320
 9532TIP3    H250088   2.007   4.128   1.612  0.9382  0.1636 -0.3655
 9533TIP3   OH250089   1.175   0.056  13.686  0.2321 -0.1516 -0.9542
 9533TIP3    H150090   1.149   0.136  13.641 -1.3803  0.3490  0.8263
 9533TIP3    H250091   1.187   0.082  13.777  1.1198 -1.6418 -0.6209
 9534TIP3   OH250092   0.634   2.616  11.119 -0.1819 -0.0827  0.1523
 9534TIP3    H150093   0.633   2.708  11.093  0.6188 -0.0301  0.3037
 9534TIP3    H250094   0.558   2.578  11.075  0.0347  0.4379 -0.6896
 9535TIP3   OH250095   1.182   4.345   5.118 -0.0109 -0.3608 -0.2125
 9535TIP3    H150096   1.144   4.418   5.166  1.6578  0.5033 -0.1575
 9535TIP3    H250097   1.167   4.269   5.174 -1.1071  0.0458  0.0690
 9536TIP3   OH250098   2.378   0.743   1.056 -0.6479  0.8075 -0.4027
 9536TIP3    H150099   2.405   0.747   0.965  0.9326  1.9234  0.0950
 9536TIP3    H250100   2.420   0.819   1.097 -2.6949  1.2863  0.9014
 9537TIP3   OH250101   2.568   2.012  11.827  0.8420 -0.2738 -0.1915
 9537TIP3    H150102   2.495   2.074  11.817  0.9846 -0.0361  0.2390
 9537TIP3    H250103   2.609   2.011  11.741  0.3851 -0.3352 -0.4107
 9538TIP3   OH250104   2.759   0.145   4.136  0.2406  0.1842  0.1437
 9538TIP3    H150105   2.694   0.080   4.161  0.6798 -0.6690 -0.8791
 9538TIP3    H250106   2.714   0.229   4.143 -0.4272 -0.2545  1.1589
 9539TIP3   OH250107   2.039   1.231   3.557 -0.1105  0.5025 -0.7392
 9539TIP3    H150108   2.071   1.305   3.609 -0.1987 -1.0047  1.5578
 9539TIP3    H250109   1.953   1.260   3.525 -1.1614  0.6185  2.0190
 9540TIP3   OH250110   5.446   0.177   5.671  0.0798  0.0087  0.6054
 9540TIP3    H150111   5.367   0.220   5.705 -0.0519 -0.9864  1.6257
 9540TIP3    H250112   5.421   0.084   5.665  1.6741 -0.5688  2.5090
 9541TIP3   OH250113   4.593   6.373   1.596 -0.6267 -0.3493 -0.1507
 9541TIP3    H150114   4.609   6.466   1.612 -1.9315 -0.0057 -0.7745
 9541TIP3    H250115   4.680   6.337   1.577  0.1990  0.3092  2.1515
 9542TIP3   OH250116   2.493   5.661   0.831 -0.0411  0.1720  0.3954
 9542TIP3    H150117   2.492   5.655   0.735  1.7771  1.5464  0.2624
 9542TIP3    H250118   2.515   5.753   0.849  0.5164 -0.2799  2.1218
 9543TIP3   OH250119   6.452   5.181  11.867  0.0397 -0.2459 -0.2322
 9543TIP3    H150120   6.380   5.228  11.824  0.5570  1.3716  0.6202
 9543TIP3    H250121   6.427   5.180  11.959  0.7253 -0.3867 -0.0506
 9544TIP3   OH250122   2.202   4.124  13.409  0.0594  0.3540 -0.1391
 9544TIP3    H150123   2.161   4.172  13.337 -1.4876 -0.0287  0.4647
 9544TIP3    H250124   2.226   4.192  13.472 -1.0587  0.4520  0.1897
 9545TIP3   OH250125   0.028   4.699   1.908 -0.0919 -0.5790  0.3073
 9545TIP3    H150126  -0.027   4.656   1.843  0.9440 -2.5159  0.7010
 9545TIP3    H250127  -0.022   4.693   1.990 -0.9817  1.0593 -0.0750
 9546TIP3   OH250128   0.579   1.022   0.621  0.1559  0.2267  0.0944
 9546TIP3    H150129   0.511   1.087   0.602  0.2250  0.1082 -0.6013
 9546TIP3    H250130   0.535   0.938   0.611  0.9505  0.0719 -2.8326
 9547TIP3   OH250131   6.785   4.314  13.647  0.2681 -0.1037 -0.6668
 9547TIP3    H150132   6.740   4.388  13.686 -0.6636 -1.2108  0.4140
 9547TIP3    H250133   6.769   4.322  13.553 -0.7503  0.4440 -0.4438
 9548TIP3   OH250134   6.695   3.449   4.736 -0.0810 -0.5557 -0.3909
 9548TIP3    H150135   6.668   3.528   4.785 -1.8223  0.3183 -2.6769
 9548TIP3    H250136   6.632   3.382   4.764 -0.6531 -0.2394 -0.9061
 9549TIP3   OH250137   3.006   5.994  12.331  0.2339  0.3061 -0.1435
 9549TIP3    H150138   3.030   6.055  12.400  3.3434 -0.3152 -0.5999
 9549TIP3    H250139   3.015   6.044  12.250  1.9721 -0.4746 -0.4582
 9550TIP3   OH250140   3.495   1.427   3.167 -0.5967 -0.0985  0.2479
 9550TIP3    H150141   3.460   1.435   3.256 -0.5701 -1.2176  0.3658
 9550TIP3    H250142   3.588   1.410   3.179  0.0421  2.8372 -0.0717
 9551TIP3   OH250143   0.870   1.113  16.492  0.0889 -0.5466 -0.6380
 9551TIP3    H150144   0.940   1.097  16.429 -0.3754  0.9583 -1.5553
 9551TIP3    H250145   0.916   1.142  16.572  0.6337 -1.8683 -0.4478
 9552TIP3   OH250146   2.281   3.986  16.286 -0.0560  0.6614  0.0483
 9552TIP3    H150147   2.334   4.006  16.208 -0.7543 -1.1637 -0.9093
 9552TIP3    H250148   2.190   3.991  16.255 -0.2977 -1.9702  0.2530
 9553TIP3   OH250149   0.641   6.410   5.700 -0.7453  0.3461  0.2948
 9553TIP3    H150150   0.583   6.416   5.776 -0.8349  0.9235  0.1809
 9553TIP3    H250151   0.627   6.491   5.652 -0.0986  0.3389  0.0810
 9554TIP3   OH250152   0.057   3.125   2.666 -0.0499  0.2321  0.4299
 9554TIP3    H150153   0.084   3.036   2.647  1.3631  0.8841 -0.7054
 9554TIP3    H250154  -0.022   3.138   2.613 -1.2876 -0.8745  1.9238
 9555TIP3   OH250155   2.454   3.918   5.634 -0.3954 -0.1975 -0.2059
 9555TIP3    H150156   2.423   3.930   5.724 -0.0560  1.6130 -0.3176
 9555TIP3    H250157   2.459   3.823   5.623 -1.0628 -0.4413  1.4726
 9556TIP3   OH250158   2.363   3.275   2.012  0.2848 -0.1634 -0.3458
 9556TIP3    H150159   2.443   3.225   2.021  1.4830  1.6583 -0.5625
 9556TIP3    H250160   2.322   3.272   2.099  1.2754  0.0218  0.1295
 9557TIP3   OH250161   3.704   3.050   4.855 -0.2175  0.1134 -0.6910
 9557TIP3    H150162   3.681   3.143   4.866  0.3000  0.1109  0.5668
 9557TIP3    H250163   3.719   3.040   4.761 -0.8842  1.1617 -0.9245
 9558TIP3   OH250164   3.252   4.491  15.139  0.0054  0.4775  0.6382
 9558TIP3    H150165   3.325   4.430  15.153  0.1412  0.5450  0.2224
 9558TIP3    H250166   3.203   4.488  15.221  0.7946  0.8535  1.1361
 9559TIP3   OH250167   5.606   4.138   3.688 -0.2058  0.3743 -0.7650
 9559TIP3    H150168   5.513   4.156   3.707 -0.1192  0.9916 -0.9125
 9559TIP3    H250169   5.652   4.166   3.767 -0.1363  0.1429 -0.7236
 9560TIP3   OH250170   5.863   1.124   1.338 -0.3411 -0.3568 -0.2384
 9560TIP3    H150171   5.790   1.123   1.399 -0.7150 -0.9576 -0.6922
 9560TIP3    H250172   5.924   1.189   1.374 -1.1148  0.1742  0.1081
 9561TIP3   OH250173   0.777   6.488   0.568 -0.5371  0.2662 -0.0242
 9561TIP3    H150174   0.843   6.422   0.589 -0.6743  0.7344  1.9233
 9561TIP3    H250175   0.697   6.437   0.554 -0.3398 -0.0932  0.1312
 9562TIP3   OH250176   6.389   6.721  15.244 -0.1973 -0.3720 -0.3254
 9562TIP3    H150177   6.318   6.719  15.308 -0.4799 -0.0568 -0.6294
 9562TIP3    H250178   6.436   6.639  15.258 -0.4953 -0.4831  0.0198
 9563TIP3   OH250179   3.811   4.688   3.423  0.4598  0.5500 -0.5643
 9563TIP3    H150180   3.825   4.602   3.462  0.7351  0.5300 -0.7095
 9563TIP3    H250181   3.894   4.734   3.434 -0.2361  1.4531  1.1395
 9564TIP3   OH250182   4.255   2.504   1.662  0.2420 -0.3246 -0.7973
 9564TIP3    H150183   4.179   2.535   1.613  0.5308  1.9237  0.0965
 9564TIP3    H250184   4.330   2.526   1.607  0.5298  1.7198  0.3647
 9565TIP3   OH250185   0.124   3.551  13.139 -0.2076  0.4502  0.2942
 9565TIP3    H150186   0.091   3.568  13.051 -1.1409 -1.0902  0.3420
 9565TIP3    H250187   0.127   3.638  13.180  0.5143  1.2183 -1.3275
 9566TIP3   OH250188   1.393   6.608   2.406  0.3258  0.1248  0.3699
 9566TIP3    H150189   1.443   6.589   2.485 -0.0483 -1.6339  0.2099
 9566TIP3    H250190   1.305   6.628   2.437 -0.0522 -1.4641  0.3584
 9567TIP3   OH250191   1.493   4.777   4.972  0.1774 -0.4916  0.0563
 9567TIP3    H150192   1.433   4.765   4.899  2.3080  1.0272 -2.0121
 9567TIP3    H250193   1.473   4.705   5.032 -2.1713 -1.2713 -1.5949
 9568TIP3   OH250194   4.635   1.065  14.238 -0.4144  0.9845 -0.4833
 9568TIP3    H150195   4.668   1.079  14.149 -0.8390  2.4409 -0.4223
 9568TIP3    H250196   4.711   1.081  14.295 -0.2236  0.3641 -0.5553
 9569TIP3   OH250197   6.167   1.730   2.296 -0.4656  0.3283 -0.7362
 9569TIP3    H150198   6.209   1.745   2.381 -2.2865 -0.2226  0.2904
 9569TIP3    H250199   6.236   1.745   2.232  1.4360 -1.0281  0.9314
 9570TIP3   OH250200   1.903   6.129  13.238 -0.0198  0.1917 -0.5102
 9570TIP3    H150201   1.832   6.089  13.189 -0.3881 -1.7309  1.5159
 9570TIP3    H250202   1.940   6.058  13.291  2.1935  1.5637 -0.1262
 9571TIP3   OH250203   0.200   0.680  16.012  0.1860  0.1546  0.5459
 9571TIP3    H150204   0.154   0.615  15.959 -0.0758  1.0169 -0.3044
 9571TIP3    H250205   0.266   0.630  16.060  1.4305 -0.4332 -1.7244
 9572TIP3   OH250206   5.128   1.196  15.546 -0.2723 -0.1874 -0.4740
 9572TIP3    H150207   5.181   1.116  15.549 -0.7491 -0.4349  2.7515
 9572TIP3    H250208   5.051   1.171  15.494  0.8485 -1.0030 -1.7773
 9573TIP3   OH250209   2.252   2.740  12.256  0.0846  0.2119 -0.4966
 9573TIP3    H150210   2.235   2.829  12.226  1.1183  0.0652 -1.5363
 9573TIP3    H250211   2.230   2.741  12.349 -0.1902  1.4673 -0.5754
 9574TIP3   OH250212   5.905   1.419  11.731 -0.2635 -0.6638 -0.7791
 9574TIP3    H150213   5.950   1.352  11.782  0.2395 -0.4612 -0.9500
 9574TIP3    H250214   5.974   1.479  11.705 -0.7618  0.0951 -0.3651
 9575TIP3   OH250215   4.801   0.794   3.551  0.4531  0.2205  0.0422
 9575TIP3    H150216   4.888   0.831   3.540  1.0316 -0.9097  0.7599
 9575TIP3    H250217   4.771   0.828   3.635  0.1359  0.7219 -0.2694
 9576TIP3   OH250218   0.464   4.541   1.182 -0.1569  0.0773 -0.1206
 9576TIP3    H150219   0.383   4.585   1.209  0.2670  0.5093  0.4723
 9576TIP3    H250220   0.519   4.543   1.260  1.1941  1.5360 -1.0862
 9577TIP3   OH250221   5.801   1.878  11.076  0.1834  0.1676 -0.1804
 9577TIP3    H150222   5.896   1.872  11.067  0.1753  0.6582 -0.6427
 9577TIP3    H250223   5.767   1.830  11.000  0.0843  1.3985 -0.9301
 9578TIP3   OH250224   3.160   4.328  11.045 -0.1314 -0.2226  0.2255
 9578TIP3    H150225   3.128   4.257  11.100  0.1217 -0.4285  0.1113
 9578TIP3    H250226   3.089   4.392  11.044 -0.4088 -0.5281  0.2291
 9579TIP3   OH250227   5.110   2.587   5.053 -0.0313  0.4406  0.4410
 9579TIP3    H150228   5.074   2.673   5.032 -0.7644  0.1863  0.6324
 9579TIP3    H250229   5.033   2.533   5.072  0.4644 -0.0754  0.9994
 9580TIP3   OH250230   5.852   3.454   2.926 -0.4760  0.3874 -0.3895
 9580TIP3    H150231   5.946   3.434   2.928 -0.5818 -0.0590  0.1619
 9580TIP3    H250232   5.838   3.511   3.002 -0.7603 -0.0268 -0.1311
 9581TIP3   OH250233   0.756   0.899   5.558 -0.2625 -0.1761 -0.1015
 9581TIP3    H150234   0.668   0.936   5.557 -0.3432 -0.3749 -0.2889
 9581TIP3    H250235   0.743   0.808   5.586 -0.1348 -0.2525 -0.2938
 9582TIP3   OH250236   0.452   5.240  11.025 -0.1250 -0.2484 -0.0885
 9582TIP3    H150237   0.530   5.247  11.080  0.0424  0.1759 -0.3733
 9582TIP3    H250238   0.380   5.271  11.080 -0.4196 -2.4423  0.8324
 9583TIP3   OH250239   6.271   3.048  13.610  0.6035  0.4663 -0.4641
 9583TIP3    H150240   6.278   3.104  13.534 -1.0340 -0.1158 -1.0558
 9583TIP3    H250241   6.177   3.043  13.628  0.8334 -0.9542  0.4113
 9584TIP3   OH250242   3.210   5.988  11.012 -0.1745  0.5634  0.8261
 9584TIP3    H150243   3.127   5.947  11.036  0.1414  0.9396  2.6904
 9584TIP3    H250244   3.241   5.939  10.937 -2.5696  1.0459 -0.5263
 9585TIP3   OH250245   6.296   1.444  15.007 -0.3728  0.1302 -0.5566
 9585TIP3    H150246   6.350   1.365  15.008  0.3870  0.6458 -0.3710
 9585TIP3    H250247   6.226   1.425  14.945 -1.1048 -1.2963  0.6944
 9586TIP3   OH250248   6.069   5.223  12.550  0.1869  0.0631  0.4077
 9586TIP3    H150249   6.147   5.278  12.562  0.1791 -0.1084  1.2736
 9586TIP3    H250250   6.092   5.140  12.591 -0.0497 -0.3629 -0.3100
 9587TIP3   OH250251   0.270   3.098   6.396  0.6101 -0.4894 -0.1619
 9587TIP3    H150252   0.363   3.112   6.415  0.4209 -1.0829  1.2441
 9587TIP3    H250253   0.250   3.012   6.433 -1.0156  0.5650  1.5279
 9588TIP3   OH250254   0.657   1.840   0.352 -0.3188 -0.4919 -0.3627
 9588TIP3    H150255   0.747   1.843   0.383 -0.0992 -0.9977 -0.9356
 9588TIP3    H250256   0.635   1.747   0.351 -0.9708 -0.3431  0.1232
 9589TIP3   OH250257   2.058   3.548  15.676  0.4162  0.1446  0.5995
 9589TIP3    H150258   1.982   3.499  15.645  0.9987 -1.4825  1.6558
 9589TIP3    H250259   2.024   3.602  15.747  0.1901 -0.4158  0.9237
 9590TIP3   OH250260   0.087   5.325   1.610 -0.0857 -0.1123  0.2590
 9590TIP3    H150261   0.077   5.265   1.683  1.1347  1.0565  1.4127
 9590TIP3    H250262   0.002   5.324   1.565 -0.2542 -2.2152  0.6130
 9591TIP3   OH250263   1.028   2.859  16.025  0.5890  0.6519  0.3785
 9591TIP3    H150264   0.998   2.802  15.954  0.3819  0.0720  0.9301
 9591TIP3    H250265   1.101   2.908  15.987  0.8079 -0.0199 -0.0851
 9592TIP3   OH250266   1.211   0.367  16.850  0.0524 -0.4025 -0.2480
 9592TIP3    H150267   1.156   0.289  16.842  0.2335 -0.6478  0.7438
 9592TIP3    H250268   1.163   0.435  16.803 -2.1652 -0.0880  2.3396
 9593TIP3   OH250269   3.152   3.960  15.441 -0.2198  0.1172  0.0925
 9593TIP3    H150270   3.168   4.007  15.523 -0.4468  0.7002 -0.1946
 9593TIP3    H250271   3.238   3.953  15.400 -0.0944 -0.2383  0.4096
 9594TIP3   OH250272   2.566   0.802   2.376 -0.0003 -0.1073  0.0748
 9594TIP3    H150273   2.476   0.832   2.361  0.5330  0.8294 -1.4139
 9594TIP3    H250274   2.573   0.722   2.324 -0.3930 -0.9938  1.3519
 9595TIP3   OH250275   4.091   0.465   6.029  0.1373  0.1436 -0.0368
 9595TIP3    H150276   4.096   0.376   6.064 -2.0833  0.1183  0.2826
 9595TIP3    H250277   4.077   0.520   6.106 -0.6559  0.5152 -0.4345
 9596TIP3   OH250278   3.349   4.373  13.266 -1.1035 -0.1295 -0.0725
 9596TIP3    H150279   3.326   4.282  13.244 -2.1660  0.1500 -0.1310
 9596TIP3    H250280   3.375   4.369  13.358 -0.6954 -0.5728 -0.2041
 9597TIP3   OH250281   3.192   0.051  17.163  0.2542  0.0417  0.3061
 9597TIP3    H150282   3.257   0.108  17.202  0.7006 -1.2639  1.5195
 9597TIP3    H250283   3.243  -0.015  17.116 -0.2543  0.6790 -1.1638
 9598TIP3   OH250284   1.737   4.283  15.747 -0.0130 -0.3306 -0.1520
 9598TIP3    H150285   1.799   4.280  15.674 -0.2171 -0.2229 -0.3317
 9598TIP3    H250286   1.711   4.375  15.751  2.0568  0.2092  1.7967
 9599TIP3   OH250287   1.056   4.515   1.530  0.4317  0.0655  0.1389
 9599TIP3    H150288   1.115   4.539   1.601 -0.5565  0.3453  0.8812
 9599TIP3    H250289   1.111   4.468   1.467  1.6486  1.1966  0.3376
 9600TIP3   OH250290   0.137   0.280   2.234  0.1066  0.5467 -0.1624
 9600TIP3    H150291   0.138   0.352   2.171  0.6286  2.0868  1.5330
 9600TIP3    H250292   0.226   0.279   2.270  0.3160 -1.4668 -0.7114
 9601TIP3   OH250293   5.328   4.927   0.582 -0.3476  0.4471  0.2689
 9601TIP3    H150294   5.343   4.897   0.492 -2.4666  0.9055 -0.2571
 9601TIP3    H250295   5.390   4.999   0.594 -0.9950  1.2764 -1.2904
 9602TIP3   OH250296   1.032   6.594   3.441 -0.8931 -0.2108  0.8469
 9602TIP3    H150297   0.948   6.638   3.450 -0.3640  0.6872  1.4175
 9602TIP3    H250298   1.011   6.510   3.399 -1.9262  0.4836 -0.0407
 9603TIP3   OH250299   6.579   1.622  11.375 -0.5305  0.0549 -0.1373
 9603TIP3    H150300   6.622   1.596  11.293  0.0491  1.5400 -0.3132
 9603TIP3    H250301   6.486   1.624  11.353 -0.3633  0.6493 -0.8318
 9604TIP3   OH250302   4.886   1.480  17.081  0.1925 -0.0544 -0.0828
 9604TIP3    H150303   4.846   1.566  17.096 -0.1131  0.2020 -2.1684
 9604TIP3    H250304   4.978   1.492  17.104 -0.1881  0.3355  1.3082
 9605TIP3   OH250305   0.074   1.771   2.265  0.6921  0.0506 -0.3702
 9605TIP3    H150306   0.067   1.814   2.351 -1.4458 -0.8056 -0.0875
 9605TIP3    H250307   0.035   1.685   2.278  0.7609 -0.2600 -2.0963
 9606TIP3   OH250308   4.881   1.183  12.480  0.0247  0.2296 -0.8361
 9606TIP3    H150309   4.906   1.209  12.391  0.2967 -2.6054 -1.6217
 9606TIP3    H250310   4.950   1.122  12.508 -1.3948 -0.8852  0.3191
 9607TIP3   OH250311   1.421   4.211  11.931 -0.4684 -0.6407  0.2521
 9607TIP3    H150312   1.366   4.192  11.855 -0.2130 -0.4357  0.0173
 9607TIP3    H250313   1.494   4.262  11.896  0.3393 -1.6775  0.4171
 9608TIP3   OH250314   1.465   0.804  12.266  0.0859 -0.4590  0.0504
 9608TIP3    H150315   1.512   0.724  12.241 -0.5800  0.1864 -3.6152
 9608TIP3    H250316   1.373   0.777  12.270 -0.2175  0.2226 -1.8725
 9609TIP3   OH250317   0.032   4.822   6.579 -0.2260 -0.1155 -0.4936
 9609TIP3    H150318   0.035   4.783   6.491  0.8695 -0.0539 -0.4889
 9609TIP3    H250319  -0.002   4.910   6.564 -4.0269 -1.4653 -0.3359
 9610TIP3   OH250320   5.196   1.150  13.583 -0.1150  0.5242  0.7999
 9610TIP3    H150321   5.157   1.082  13.638 -1.2310  0.5032 -0.0103
 9610TIP3    H250322   5.186   1.230  13.634 -1.9598  0.6556  0.2556
 9611TIP3   OH250323   5.209   3.015  15.946 -0.0209 -0.1108  0.4806
 9611TIP3    H150324   5.205   2.922  15.967  2.9264 -0.6434 -0.9859
 9611TIP3    H250325   5.193   3.060  16.029  2.8339 -1.9916  2.1241
 9612TIP3   OH250326   1.755   5.859   5.716 -0.3117 -0.4773 -0.7737
 9612TIP3    H150327   1.812   5.837   5.642  0.6593 -1.5150  0.2631
 9612TIP3    H250328   1.798   5.819   5.792 -2.0135 -0.5761  0.1487
 9613TIP3   OH250329   4.159   4.099  17.185  0.2300 -0.1769  0.0977
 9613TIP3    H150330   4.122   4.058  17.107 -0.5750 -1.4877  1.1576
 9613TIP3    H250331   4.251   4.113  17.163  0.2268 -1.4192 -0.7462
 9614TIP3   OH250332   3.579   1.020  13.101  0.1840  0.3784  0.1474
 9614TIP3    H150333   3.641   0.951  13.127  0.6229  0.8847  0.4714
 9614TIP3    H250334   3.543   1.052  13.183  0.2202  0.7489  0.0207
 9615TIP3   OH250335   0.788   0.863  12.042  0.2479  0.1225  0.1574
 9615TIP3    H150336   0.859   0.920  12.012  1.0386 -0.7293  0.3805
 9615TIP3    H250337   0.710   0.896  11.998  1.1301 -0.1763 -1.6838
 9616TIP3   OH250338   1.711   3.213   4.945  0.1127 -0.3607  0.5559
 9616TIP3    H150339   1.678   3.292   4.902 -0.4823 -0.6338  0.5040
 9616TIP3    H250340   1.653   3.201   5.020 -0.1338 -1.0479  0.2617
 9617TIP3   OH250341   6.000   4.096   5.027  0.3551 -0.1804 -0.3635
 9617TIP3    H150342   6.077   4.039   5.023  1.1616  0.7418  1.6375
 9617TIP3    H250343   5.968   4.099   4.937  2.5735 -0.6899 -1.1973
 9618TIP3   OH250344   4.626   1.933  12.337 -0.1217  0.0155  0.1211
 9618TIP3    H150345   4.621   1.921  12.432  2.2784 -1.4801  0.0990
 9618TIP3    H250346   4.582   1.856  12.300  1.4441 -0.8542  0.0323
 9619TIP3   OH250347   2.141   6.381   0.312 -0.2022 -0.7428 -0.0719
 9619TIP3    H150348   2.082   6.435   0.260 -1.7772 -2.1484  0.2252
 9619TIP3    H250349   2.084   6.332   0.371  1.3893 -0.8905  1.3832
 9620TIP3   OH250350   1.355   4.064   5.245  0.5981 -0.7854  0.2867
 9620TIP3    H150351   1.393   4.102   5.166  0.7009  1.2506  1.2846
 9620TIP3    H250352   1.315   3.982   5.215  0.7825 -0.1350 -1.8345
 9621TIP3   OH250353   3.016   2.675   5.177 -0.1035 -0.2176  0.3437
 9621TIP3    H150354   3.105   2.662   5.146  0.6911  1.3132  1.8946
 9621TIP3    H250355   3.001   2.603   5.238  0.8265  0.6631  1.6372
 9622TIP3   OH250356   4.537   6.663  12.573  0.5622  0.0942 -0.3043
 9622TIP3    H150357   4.447   6.634  12.584 -0.1866  2.2109 -0.6914
 9622TIP3    H250358   4.564   6.627  12.489  0.2365 -0.9032  0.0081
 9623TIP3   OH250359   4.382   3.946  12.292 -0.3136 -0.6678  0.3644
 9623TIP3    H150360   4.328   4.009  12.244 -2.2739 -1.7494  1.0925
 9623TIP3    H250361   4.426   3.896  12.223  3.1200  2.9122 -0.2589
 9624TIP3   OH250362   3.373   1.738  13.702 -0.2134 -0.3179  0.2141
 9624TIP3    H150363   3.280   1.727  13.682 -0.1439  0.3786 -0.5174
 9624TIP3    H250364   3.375   1.759  13.796 -0.8476  0.4226  0.0649
 9625TIP3   OH250365   3.418   2.945  13.075  0.1344  0.6861 -0.0524
 9625TIP3    H150366   3.479   2.893  13.127  0.0843  0.8842  0.1992
 9625TIP3    H250367   3.339   2.950  13.128 -0.2189  0.1507 -0.5175
 9626TIP3   OH250368   5.668   5.219   5.933  0.0321  0.3142 -0.5689
 9626TIP3    H150369   5.688   5.213   5.839  2.5922 -1.5873  0.0303
 9626TIP3    H250370   5.721   5.292   5.964  0.7241 -0.3297 -0.2363
 9627TIP3   OH250371   4.506   5.417   2.711 -0.4402 -0.7602 -0.4927
 9627TIP3    H150372   4.524   5.467   2.631  1.5490 -2.3196 -1.0552
 9627TIP3    H250373   4.587   5.369   2.729 -1.0658 -0.9287  2.1277
 9628TIP3   OH250374   5.341   1.174   3.334  0.1521 -0.1250  0.2298
 9628TIP3    H150375   5.349   1.153   3.241  0.3739  0.6577  0.0711
 9628TIP3    H250376   5.280   1.247   3.337  0.2971 -0.0205  0.6847
 9629TIP3   OH250377   4.550   1.546   1.031  0.2078 -0.2406  0.4819
 9629TIP3    H150378   4.580   1.523   1.119 -0.8680  0.1243  0.9543
 9629TIP3    H250379   4.511   1.465   0.998 -0.5277 -0.0331  0.8339
 9630TIP3   OH250380   2.294   4.550   1.727  0.0546 -0.4069 -0.3289
 9630TIP3    H150381   2.279   4.528   1.819 -2.6285  0.3210 -0.5449
 9630TIP3    H250382   2.374   4.502   1.703 -0.5968 -2.5979  1.6863
 9631TIP3   OH250383   2.947   5.400   1.165 -0.0778  0.1431 -0.0429
 9631TIP3    H150384   2.975   5.464   1.100  0.0631 -1.1859 -1.3089
 9631TIP3    H250385   3.027   5.354   1.191 -0.6520 -1.8539 -1.7014
 9632TIP3   OH250386   3.432   2.474  14.714  0.3104 -0.0719  0.1691
 9632TIP3    H150387   3.467   2.520  14.790  1.5864 -0.0533 -0.4315
 9632TIP3    H250388   3.474   2.514  14.639 -0.0487 -0.9009 -0.4846
 9633TIP3   OH250389   5.976   4.695  16.743  0.2755 -0.0623 -0.2527
 9633TIP3    H150390   6.067   4.725  16.753  0.2786 -0.8265  2.3385
 9633TIP3    H250391   5.938   4.757  16.681  3.0111 -0.7500 -2.7030
 9634TIP3   OH250392   0.414   6.105   2.949  0.2401 -0.1455  0.1846
 9634TIP3    H150393   0.362   6.069   3.020 -0.0060 -1.2290 -0.5517
 9634TIP3    H250394   0.447   6.029   2.901  1.6863  0.5406  0.0561
 9635TIP3   OH250395   0.569   0.144   5.193  0.1540 -0.2484  0.4719
 9635TIP3    H150396   0.513   0.094   5.252  2.2815  0.0486  2.8293
 9635TIP3    H250397   0.600   0.218   5.245 -0.5755  1.9124 -2.0672
 9636TIP3   OH250398   0.443   3.239  16.831  0.7760 -0.0695 -0.6258
 9636TIP3    H150399   0.506   3.253  16.760  1.1070 -2.3036 -0.8286
 9636TIP3    H250400   0.400   3.157  16.808 -0.7649  0.3868  0.5850
 9637TIP3   OH250401   0.041   3.138   4.046 -0.1776  0.1072  0.0269
 9637TIP3    H150402   0.078   3.049   4.049 -0.0033  0.2107  1.1234
 9637TIP3    H250403   0.100   3.190   4.101 -0.9349  0.6540  0.3303
 9638TIP3   OH250404   0.532   2.168   3.645 -0.2538 -0.2254  0.2465
 9638TIP3    H150405   0.615   2.120   3.640  0.8103  1.4600  1.2310
 9638TIP3    H250406   0.468   2.103   3.673  1.0081 -1.2431  0.8194
 9639TIP3   OH250407   4.384   0.459  15.943 -0.0831 -0.3454  0.3673
 9639TIP3    H150408   4.345   0.452  15.856 -0.3034  0.3191  0.4056
 9639TIP3    H250409   4.309   0.473  16.002  0.1402  0.1120  0.5460
 9640TIP3   OH250410   5.254   5.350   5.208 -0.4248 -0.3304  0.4445
 9640TIP3    H150411   5.278   5.442   5.196 -1.5330  0.2437  2.3243
 9640TIP3    H250412   5.164   5.353   5.243 -0.6985 -2.1439 -0.0299
 9641TIP3   OH250413   0.877   0.923  16.179 -0.5394  0.0340 -0.3122
 9641TIP3    H150414   0.839   0.919  16.092 -1.8248  2.7580  0.0527
 9641TIP3    H250415   0.835   0.853  16.228 -0.9455 -0.5251 -1.4439
 9642TIP3   OH250416   4.074   1.469  13.007 -0.2963 -0.5966  0.7303
 9642TIP3    H150417   4.141   1.418  12.962 -1.7874 -1.7450 -0.2262
 9642TIP3    H250418   4.102   1.560  12.996  1.3814 -1.0818  0.8257
 9643TIP3   OH250419   6.536   0.037   6.294  0.6873  0.1781  0.5159
 9643TIP3    H150420   6.477  -0.038   6.309  0.3601 -0.0809 -1.9520
 9643TIP3    H250421   6.620   0.008   6.331  1.2604 -2.4823 -2.6120
 9644TIP3   OH250422   0.875   4.590  14.952  0.3056 -0.0301  0.0804
 9644TIP3    H150423   0.854   4.574  14.860 -0.6624  0.0643  0.2885
 9644TIP3    H250424   0.793   4.618  14.991  0.6051 -0.5471  1.0888
 9645TIP3   OH250425   5.488   2.522  14.851  0.3809 -0.3269 -0.1691
 9645TIP3    H150426   5.513   2.585  14.784  2.0279  1.7597  2.3286
 9645TIP3    H250427   5.424   2.569  14.905 -0.7776 -1.9074 -0.1469
 9646TIP3   OH250428   6.356   0.908   5.355  0.1600  0.0549  0.6943
 9646TIP3    H150429   6.263   0.930   5.356 -0.1219 -1.0898  2.2630
 9646TIP3    H250430   6.364   0.840   5.288 -0.0783  0.3712  0.3448
 9647TIP3   OH250431   1.066   6.111  17.219  0.3402  0.4298  0.3603
 9647TIP3    H150432   1.143   6.121  17.276  0.6563  0.1519 -0.0112
 9647TIP3    H250433   1.029   6.026  17.244  1.4035 -0.4287 -0.9477
 9648TIP3   OH250434   1.461   2.698   5.870  0.1613  0.9569 -0.0860
 9648TIP3    H150435   1.424   2.672   5.786  1.4310  1.4616 -0.8088
 9648TIP3    H250436   1.411   2.648   5.935 -3.1582  3.1129 -0.8781
 9649TIP3   OH250437   5.434   5.183   2.838  0.2254  0.6172 -0.3809
 9649TIP3    H150438   5.483   5.101   2.845  0.7164  0.6304 -3.0026
 9649TIP3    H250439   5.345   5.159   2.865  0.3496 -0.8264 -1.1467
 9650TIP3   OH250440   5.550   2.452   3.880  0.5289 -0.6729  0.1680
 9650TIP3    H150441   5.571   2.379   3.820  1.2427 -1.4901  1.3923
 9650TIP3    H250442   5.482   2.501   3.834  0.4483 -1.7821 -0.9399
 9651TIP3   OH250443   4.709   5.637  12.633 -0.0580  0.4718 -0.2093
 9651TIP3    H150444   4.637   5.685  12.591  0.2038  0.2127 -0.9723
 9651TIP3    H250445   4.682   5.628  12.724  0.0001  2.3007  0.0248
 9652TIP3   OH250446   0.531   1.619  10.826 -0.0642 -0.6861 -0.4819
 9652TIP3    H150447   0.544   1.714  10.833 -0.3522 -0.8578  3.7527
 9652TIP3    H250448   0.619   1.582  10.836 -0.1756 -0.9019 -0.2919
 9653TIP3   OH250449   1.606   5.654  16.407 -0.2654  0.0627  0.4568
 9653TIP3    H150450   1.663   5.609  16.345  0.5036  2.1712 -0.4377
 9653TIP3    H250451   1.666   5.703  16.463 -1.0645 -0.2058  1.5692
 9654TIP3   OH250452   1.978   3.468  16.869 -0.6358  0.3283 -0.0207
 9654TIP3    H150453   1.992   3.543  16.811 -1.0753 -0.2513 -0.8780
 9654TIP3    H250454   1.906   3.420  16.829 -0.8130 -0.1888  0.9018
 9655TIP3   OH250455   3.180   4.358   1.453  0.7320  0.0280  0.2024
 9655TIP3    H150456   3.261   4.353   1.401 -0.2861 -0.9635 -1.3378
 9655TIP3    H250457   3.182   4.280   1.508  0.4868 -0.3892 -0.3687
 9656TIP3   OH250458   4.072   1.276  15.707  0.1702 -0.0783 -0.8154
 9656TIP3    H150459   4.055   1.342  15.640 -2.3854  0.9246  0.7041
 9656TIP3    H250460   4.148   1.309  15.755  0.5957  0.3742 -1.8002
 9657TIP3   OH250461   4.108   2.266   5.070 -0.1731 -0.6206 -0.2940
 9657TIP3    H150462   4.047   2.213   5.122 -0.6972  0.3877  0.1392
 9657TIP3    H250463   4.149   2.325   5.134 -1.0106  0.8036 -1.0374
 9658TIP3   OH250464   5.687   3.306   2.006 -0.5325 -0.1911  0.6594
 9658TIP3    H150465   5.682   3.246   2.080 -1.4306 -0.4213  0.4147
 9658TIP3    H250466   5.747   3.264   1.945  1.2936  0.6381  1.8349
 9659TIP3   OH250467   5.062   3.808  11.898  0.2397  0.1175  0.6784
 9659TIP3    H150468   5.064   3.715  11.873  2.0354 -0.3318  2.3481
 9659TIP3    H250469   5.119   3.813  11.975  0.7897  2.7502  0.1372
 9660TIP3   OH250470   0.466   3.131   6.130 -0.3308  0.2675 -0.0005
 9660TIP3    H150471   0.530   3.061   6.115 -0.1490  0.4793 -0.2060
 9660TIP3    H250472   0.492   3.201   6.071  1.4501  1.8182  2.5762
 9661TIP3   OH250473   4.177   2.283   4.714  0.2721  0.1766 -0.2670
 9661TIP3    H150474   4.148   2.193   4.697  0.5740  0.4109 -2.1236
 9661TIP3    H250475   4.138   2.334   4.643  1.0329  1.3271  0.1380
 9662TIP3   OH250476   3.406   3.610  14.761  0.1976  0.1394  0.1136
 9662TIP3    H150477   3.422   3.577  14.850  1.2476 -0.7333 -0.3874
 9662TIP3    H250478   3.458   3.690  14.756 -0.7769  0.8125  0.6685
 9663TIP3   OH250479   0.691   3.272  15.125  0.2268 -0.3886  0.2699
 9663TIP3    H150480   0.647   3.276  15.210 -0.6998 -1.1183 -0.1686
 9663TIP3    H250481   0.622   3.248  15.063  0.7732  0.7052 -0.7812
 9664TIP3   OH250482   0.178   0.448  17.194 -0.0679 -0.0463  0.1578
 9664TIP3    H150483   0.144   0.362  17.218 -0.0363  0.1794  1.0018
 9664TIP3    H250484   0.174   0.499  17.274  0.8700  0.4378 -0.1009
 9665TIP3   OH250485   4.170   4.719   1.006 -0.7187  0.2129  0.1142
 9665TIP3    H150486   4.091   4.692   1.052 -0.5239  0.9914  0.9100
 9665TIP3    H250487   4.182   4.652   0.938 -1.8048 -0.1483  0.2720
 9666TIP3   OH250488   5.432   0.420   1.218  0.2347  0.0508  0.1177
 9666TIP3    H150489   5.510   0.375   1.249 -0.2544 -0.4454  0.6341
 9666TIP3    H250490   5.361   0.357   1.230 -0.5734  1.1697  1.4692
 9667TIP3   OH250491   2.586   0.927   3.956 -0.2461  0.7170 -0.6229
 9667TIP3    H150492   2.623   0.905   4.041 -0.4295 -0.1507 -0.7671
 9667TIP3    H250493   2.513   0.986   3.975  0.9350  2.1320 -0.3067
 9668TIP3   OH250494   5.266   6.601   2.851  0.0122  0.0462 -0.1976
 9668TIP3    H150495   5.245   6.561   2.767  0.4908 -1.6471  0.4750
 9668TIP3    H250496   5.229   6.541   2.916  0.4047  0.8937  0.8272
 9669TIP3   OH250497   6.799   6.225   1.587 -0.0126 -0.2591 -0.2478
 9669TIP3    H150498   6.854   6.302   1.573  0.8047 -0.0639  3.4381
 9669TIP3    H250499   6.716   6.260   1.619  0.1541 -0.8410  0.8677
 9670TIP3   OH250500   5.545   5.951  14.365  0.2516 -0.0272  0.2940
 9670TIP3    H150501   5.578   6.022  14.420  1.6923 -0.2951 -0.2211
 9670TIP3    H250502   5.553   5.872  14.419  0.5693 -0.1147  0.1164
 9671TIP3   OH250503   0.431   0.837   2.856 -0.2591 -0.1072 -0.2154
 9671TIP3    H150504   0.452   0.929   2.838  1.0890 -0.7367 -1.9225
 9671TIP3    H250505   0.338   0.830   2.837 -0.2650  0.7992 -0.5659
 9672TIP3   OH250506   3.345   2.507  13.719  0.2535 -0.0134 -0.7477
 9672TIP3    H150507   3.262   2.486  13.762  0.8265  1.5399  1.1428
 9672TIP3    H250508   3.345   2.452  13.641 -2.8754  0.4505 -1.1485
 9673TIP3   OH250509   6.377   2.852   6.240 -0.1018  0.2075  0.0994
 9673TIP3    H150510   6.384   2.871   6.333  1.4206 -1.4298  0.3522
 9673TIP3    H250511   6.291   2.809   6.231  0.4367 -1.1036  1.0395
 9674TIP3   OH250512   3.317   2.816  10.960 -0.2862 -0.3741  0.0706
 9674TIP3    H150513   3.232   2.797  10.921 -0.5513 -0.8021  0.8522
 9674TIP3    H250514   3.375   2.830  10.885 -1.2801  0.9805 -0.4690
 9675TIP3   OH250515   6.321   0.321  16.592  0.2613 -0.6948 -0.3496
 9675TIP3    H150516   6.364   0.341  16.509  0.0086 -0.8384 -0.5203
 9675TIP3    H250517   6.310   0.406  16.635  2.6195 -0.8551  0.6582
 9676TIP3   OH250518   4.236   5.993   3.745 -0.3148  0.0490  0.3208
 9676TIP3    H150519   4.300   6.002   3.816 -0.6163  1.5656  0.4182
 9676TIP3    H250520   4.165   6.053   3.769 -0.6197  0.2570 -1.0407
 9677TIP3   OH250521   0.918   3.418   4.844  0.2997 -0.1518 -0.1830
 9677TIP3    H150522   0.822   3.419   4.844  0.3127  0.6814 -0.0409
 9677TIP3    H250523   0.941   3.366   4.766 -0.2360  1.8059 -1.6930
 9678TIP3   OH250524   2.819   4.187   4.746 -0.1012 -0.1711 -0.0999
 9678TIP3    H150525   2.903   4.194   4.792  0.7704  0.3632 -1.7575
 9678TIP3    H250526   2.788   4.277   4.738 -0.0121 -0.2155 -0.9899
 9679TIP3   OH250527   2.220   1.417  12.816 -0.1072 -0.6093  0.2532
 9679TIP3    H150528   2.229   1.352  12.747 -1.6311 -0.3518 -0.2027
 9679TIP3    H250529   2.174   1.490  12.774 -0.6474 -0.2721  1.4056
 9680TIP3   OH250530   2.603   4.924   0.884  0.0843  0.0837  0.3395
 9680TIP3    H150531   2.591   4.861   0.814  1.7911  0.6756 -0.5046
 9680TIP3    H250532   2.556   5.002   0.855  0.3365  0.1467  0.1032
 9681TIP3   OH250533   0.407   1.571  11.172  0.2428  0.1343  0.3718
 9681TIP3    H150534   0.333   1.514  11.195  0.4777 -0.5052 -0.4313
 9681TIP3    H250535   0.427   1.618  11.253 -2.5043  2.0047  0.0231
 9682TIP3   OH250536   2.415   0.345  15.577  0.1333 -0.9028  0.0343
 9682TIP3    H150537   2.355   0.337  15.503 -2.0398 -2.1428  1.8880
 9682TIP3    H250538   2.371   0.404  15.638  0.8327 -1.7499  1.3852
 9683TIP3   OH250539   1.664   6.209  16.348 -0.1066  0.0980 -0.7899
 9683TIP3    H150540   1.575   6.175  16.353  0.5294 -1.5999 -0.8177
 9683TIP3    H250541   1.691   6.219  16.439 -0.0519 -0.1408 -0.7800
 9684TIP3   OH250542   0.542   5.746  15.311  0.4479  0.0747 -1.0919
 9684TIP3    H150543   0.488   5.798  15.251 -0.2941  0.6415  0.0329
 9684TIP3    H250544   0.608   5.807  15.344 -0.7715  0.5023  0.6649
 9685TIP3   OH250545   4.191   2.087   6.052  0.6990  0.1570  0.7428
 9685TIP3    H150546   4.209   2.050   6.139  0.8270  0.2314  0.7469
 9685TIP3    H250547   4.167   2.178   6.069 -2.4418 -0.6469  1.0191
 9686TIP3   OH250548   6.480   6.760  12.690  0.3740 -0.1344  0.2659
 9686TIP3    H150549   6.521   6.834  12.645 -0.4520  0.0164 -0.2467
 9686TIP3    H250550   6.386   6.774  12.677  0.2056 -1.0738  0.4879
 9687TIP3   OH250551   4.994   3.417   0.542  0.2459 -1.0806 -0.3777
 9687TIP3    H150552   4.984   3.352   0.472  0.7600 -1.6905  0.1105
 9687TIP3    H250553   5.014   3.365   0.620 -0.4361 -0.4104  0.2482
 9688TIP3   OH250554   4.108   3.123   2.768 -0.1474  0.3577 -0.3878
 9688TIP3    H150555   4.039   3.188   2.785 -0.8208 -0.5932  0.5923
 9688TIP3    H250556   4.081   3.046   2.818  1.3680 -0.2012 -0.4010
 9689TIP3   OH250557   0.449   0.228   1.077  0.1710  0.3206  0.4368
 9689TIP3    H150558   0.492   0.314   1.081 -1.9668  1.4112  0.7806
 9689TIP3    H250559   0.408   0.218   1.163 -1.0026 -0.2725 -0.1757
 9690TIP3   OH250560   3.980   3.946   6.240 -0.3579 -0.2073 -0.0240
 9690TIP3    H150561   3.955   4.032   6.273  0.7196  0.5127 -1.0754
 9690TIP3    H250562   4.075   3.943   6.246 -0.4162 -1.5820  0.6006
 9691TIP3   OH250563   2.026   4.624   3.591 -1.3101  0.0784  0.0795
 9691TIP3    H150564   1.983   4.542   3.566 -2.9054  0.8394  0.2395
 9691TIP3    H250565   1.994   4.688   3.527  0.5467  0.4167 -0.5353
 9692TIP3   OH250566   0.905   2.281   3.903  0.0044  0.1300 -0.0180
 9692TIP3    H150567   0.904   2.185   3.893  1.7387  0.1823 -1.0147
 9692TIP3    H250568   0.904   2.296   3.997  1.5861 -0.9307  0.1817
 9693TIP3   OH250569   6.476   3.766   2.127  0.0934  0.1802 -0.4960
 9693TIP3    H150570   6.487   3.674   2.104  1.1915  0.1548  0.1288
 9693TIP3    H250571   6.396   3.767   2.181  0.3876 -0.4875 -0.0337
 9694TIP3   OH250572   1.147   3.003   3.878  0.0689  0.2161  0.1667
 9694TIP3    H150573   1.120   2.911   3.871 -1.0835  0.5778 -0.2789
 9694TIP3    H250574   1.230   3.000   3.924  0.5094 -1.1284 -0.6829
 9695TIP3   OH250575   4.344   1.540  14.016  0.6684 -0.0818  0.0571
 9695TIP3    H150576   4.429   1.583  14.027  0.3806  0.3666  0.5178
 9695TIP3    H250577   4.366   1.446  14.009  1.2741  0.1111 -0.7346
 9696TIP3   OH250578   3.518   2.694  13.626 -0.2346  0.9950  0.1951
 9696TIP3    H150579   3.455   2.764  13.609  0.5077  1.4161 -0.9027
 9696TIP3    H250580   3.466   2.614  13.625 -0.7557  1.3317 -0.7914
 9697TIP3   OH250581   0.931   5.883   2.522  0.0257 -0.3971 -0.3957
 9697TIP3    H150582   0.906   5.791   2.521  0.8242 -0.6348  0.4923
 9697TIP3    H250583   0.929   5.910   2.430  0.1244 -1.3929 -0.6897
 9698TIP3   OH250584   3.842   5.612   1.734 -0.6699 -0.5755 -0.2923
 9698TIP3    H150585   3.843   5.658   1.650  1.3280 -0.9433 -0.4898
 9698TIP3    H250586   3.908   5.657   1.787 -1.0877 -1.0922  0.6971
 9699TIP3   OH250587   4.941   1.141  11.677 -0.5928 -0.1564  0.0582
 9699TIP3    H150588   4.986   1.133  11.593 -0.1327  0.7139  0.2156
 9699TIP3    H250589   4.894   1.058  11.687 -0.5405 -0.3190 -0.9886
 9700TIP3   OH250590   3.910   1.938   5.661  0.4644  0.0675  0.2611
 9700TIP3    H150591   3.957   1.917   5.742  1.9996  0.2434 -0.5669
 9700TIP3    H250592   3.976   1.928   5.593 -0.8953 -0.3650 -1.0049
 9701TIP3   OH250593   3.794   3.879   6.839  0.3988  0.1449 -0.3091
 9701TIP3    H150594   3.757   3.902   6.754  1.5047  0.9551 -0.5884
 9701TIP3    H250595   3.730   3.912   6.903  1.0525  2.3608 -0.7627
 9702TIP3   OH250596   0.545   1.578   0.261 -0.2537 -0.3815  0.2776
 9702TIP3    H150597   0.492   1.525   0.321  0.0324 -4.1922 -2.6515
 9702TIP3    H250598   0.483   1.609   0.195  0.0366  0.7653  0.5421
 9703TIP3   OH250599   2.705   1.746   1.511  0.5128 -0.7823 -0.2809
 9703TIP3    H150600   2.678   1.656   1.531  0.0427 -0.5188  0.2782
 9703TIP3    H250601   2.625   1.788   1.478  0.8190 -0.6708 -0.8865
 9704TIP3   OH250602   3.791   0.156  15.148 -1.0756  0.2446  0.1258
 9704TIP3    H150603   3.846   0.190  15.077 -0.9724  0.4209  0.2910
 9704TIP3    H250604   3.807   0.062  15.148  0.1840  0.4582  1.0057
 9705TIP3   OH250605   3.079   6.632  12.758  0.3817 -0.2611  0.2947
 9705TIP3    H150606   3.047   6.707  12.808 -0.9998  0.6023 -1.8025
 9705TIP3    H250607   3.032   6.637  12.675  0.2836 -3.4365  0.0821
 9706TIP3   OH250608   2.368   6.044   3.159 -0.1059 -0.3433 -0.7863
 9706TIP3    H150609   2.396   6.124   3.115  1.3808 -0.4955 -0.1248
 9706TIP3    H250610   2.437   6.025   3.222 -1.7850 -0.6292  1.0112
 9707TIP3   OH250611   0.569   2.348   6.802  0.9483 -0.0502 -0.4149
 9707TIP3    H150612   0.552   2.293   6.726  0.7781  0.5212 -0.7954
 9707TIP3    H250613   0.654   2.389   6.784  0.9282  0.0524 -0.2822
 9708TIP3   OH250614   5.389   0.262  16.382 -0.1486  0.4832 -0.1256
 9708TIP3    H150615   5.361   0.177  16.349  0.8908  0.0486  0.0906
 9708TIP3    H250616   5.388   0.254  16.477 -0.5804  0.8859 -0.0936
 9709TIP3   OH250617   2.976   6.609   5.159 -0.2865  0.4437  0.0061
 9709TIP3    H150618   2.947   6.636   5.246 -0.3174 -2.7838  1.0432
 9709TIP3    H250619   3.072   6.619   5.162 -0.3237  0.7277  0.2648
 9710TIP3   OH250620   5.730   3.779  11.541 -0.1081  0.1541 -0.0912
 9710TIP3    H150621   5.740   3.874  11.538 -1.6108  0.3274  0.2848
 9710TIP3    H250622   5.811   3.748  11.582  0.5711  1.2285 -0.5994
 9711TIP3   OH250623   3.532   6.726   4.852 -0.9393  0.4755  0.7236
 9711TIP3    H150624   3.551   6.635   4.829  0.8066  1.3111 -1.3559
 9711TIP3    H250625   3.464   6.752   4.790 -0.1037  1.1121  0.0526
 9712TIP3   OH250626   5.742   2.574   4.287  1.0574 -0.1926 -0.3161
 9712TIP3    H150627   5.831   2.545   4.272  0.4772 -1.0798 -2.0775
 9712TIP3    H250628   5.711   2.520   4.360  2.0048  0.2751  0.4516
 9713TIP3   OH250629   0.295   2.800   1.465  0.3716 -0.4806 -0.6176
 9713TIP3    H150630   0.236   2.846   1.524  0.8382 -0.6071 -0.0471
 9713TIP3    H250631   0.379   2.800   1.510  0.5906 -1.1056 -1.0171
 9714TIP3   OH250632   3.945   2.991  12.000  0.2645 -0.2396 -0.2737
 9714TIP3    H150633   3.965   3.004  12.092 -0.4802  0.3640 -0.1928
 9714TIP3    H250634   3.907   2.903  11.996 -3.3139  1.1734  0.6129
 9715TIP3   OH250635   0.733   2.522  13.617 -0.3252  0.3235 -0.2674
 9715TIP3    H150636   0.693   2.492  13.535  1.8923  1.0160 -1.6617
 9715TIP3    H250637   0.675   2.592  13.647 -1.1357  0.1203 -1.3125
 9716TIP3   OH250638   5.374   4.183  12.590  0.6717  0.5169  0.8701
 9716TIP3    H150639   5.311   4.111  12.585  0.1311  0.9994  0.6626
 9716TIP3    H250640   5.366   4.228  12.506  1.6909  0.2572  0.6307
 9717TIP3   OH250641   6.793   6.493  12.966 -0.4259  0.4975  0.1193
 9717TIP3    H150642   6.858   6.528  12.904  0.0472 -0.8306 -0.1350
 9717TIP3    H250643   6.825   6.520  13.052 -0.5166  1.4301 -0.1325
 9718TIP3   OH250644   1.097   6.363  16.784  0.6146 -0.1593 -0.4181
 9718TIP3    H150645   1.146   6.360  16.866  0.6162 -1.3827 -0.4580
 9718TIP3    H250646   1.137   6.295  16.730 -1.2485 -1.3217 -0.3792
 9719TIP3   OH250647   4.946   6.592  16.131  0.2928  0.2778 -0.3659
 9719TIP3    H150648   4.990   6.508  16.117 -1.6583 -0.7559 -0.3808
 9719TIP3    H250649   4.924   6.592  16.225  0.4348  0.8592 -0.3289
 9720TIP3   OH250650   0.724   6.189  15.599 -0.2060 -0.3074  0.6477
 9720TIP3    H150651   0.814   6.167  15.623 -0.5862 -0.1669  2.2758
 9720TIP3    H250652   0.671   6.117  15.632 -0.7978  0.0627  0.5303
 9721TIP3   OH250653   4.398   5.907  12.920 -0.1769  0.3094 -0.2399
 9721TIP3    H150654   4.449   5.988  12.915 -0.6805  0.6957  0.8040
 9721TIP3    H250655   4.307   5.935  12.911 -0.2526 -0.3152 -1.4977
 9722TIP3   OH250656   0.294   6.082  12.236  0.6887  0.0058 -0.0905
 9722TIP3    H150657   0.246   6.126  12.166 -0.7392  0.9862  1.4617
 9722TIP3    H250658   0.302   5.991  12.205 -0.4540  0.2774 -1.2523
 9723TIP3   OH250659   0.898   0.835   0.780 -0.4787  0.0014 -0.1636
 9723TIP3    H150660   0.988   0.853   0.809 -1.0753  0.6195  1.3427
 9723TIP3    H250661   0.887   0.889   0.702  0.4359 -0.0477 -0.3386
 9724TIP3   OH250662   2.301   1.528  15.360 -0.1004 -0.2322 -0.3653
 9724TIP3    H150663   2.332   1.476  15.286 -1.4380 -1.0627 -0.3711
 9724TIP3    H250664   2.380   1.563  15.400  0.7104 -0.7776 -1.4605
 9725TIP3   OH250665   3.575   2.664   2.745 -0.1566  0.8136 -0.5276
 9725TIP3    H150666   3.491   2.619   2.734 -1.1666  2.7582 -0.8518
 9725TIP3    H250667   3.578   2.686   2.838  0.9435 -1.0260 -0.0850
 9726TIP3   OH250668   2.557   3.876  10.608  0.7122  0.1290 -0.3975
 9726TIP3    H150669   2.492   3.939  10.640  2.1135  2.7653 -2.4741
 9726TIP3    H250670   2.636   3.897  10.656  1.1880 -0.0652 -1.0934
 9727TIP3   OH250671   6.398   6.740  11.639 -0.2665 -0.5451 -0.0267
 9727TIP3    H150672   6.337   6.756  11.566  0.0790  0.6283 -0.0573
 9727TIP3    H250673   6.485   6.752  11.601 -0.1002  0.7299  0.7266
 9728TIP3   OH250674   0.471   1.328   2.988  0.1596  0.1090 -0.0705
 9728TIP3    H150675   0.405   1.300   3.051 -1.2798  1.2844 -1.0419
 9728TIP3    H250676   0.471   1.424   2.994  1.0964  0.1652 -0.7763
 9729TIP3   OH250677   2.410   4.702   1.086  0.2324 -0.3620 -0.9525
 9729TIP3    H150678   2.323   4.675   1.115  0.0238 -0.5983 -1.7844
 9729TIP3    H250679   2.399   4.792   1.056  0.6951  0.3019  0.7670
 9730TIP3   OH250680   2.719   2.602   0.862  0.0630 -0.3007  0.1949
 9730TIP3    H150681   2.652   2.607   0.794 -0.0055  1.6174  0.3803
 9730TIP3    H250682   2.693   2.528   0.917 -2.2500  0.8088  0.6302
 9731TIP3   OH250683   0.282   5.898   5.612  0.2010  0.9443 -0.1515
 9731TIP3    H150684   0.321   5.898   5.699  2.0912 -1.4501 -0.9536
 9731TIP3    H250685   0.345   5.945   5.557 -0.6086  1.7455 -0.4118
 9732TIP3   OH250686   1.659   5.653  14.653 -0.5455  0.2463  0.2443
 9732TIP3    H150687   1.726   5.632  14.718  1.5069 -0.1188 -1.9010
 9732TIP3    H250688   1.672   5.746  14.635 -2.0235  0.6709  1.3651
 9733TIP3   OH250689   3.370   5.263  12.534  0.0113 -0.2689 -0.7451
 9733TIP3    H150690   3.297   5.318  12.510  1.0057  0.8966 -1.1216
 9733TIP3    H250691   3.331   5.192  12.585 -1.5358 -0.4112 -2.1098
 9734TIP3   OH250692   5.635   0.253  11.045  0.1235  0.6939 -0.7977
 9734TIP3    H150693   5.604   0.269  11.135  1.2476  0.3104 -0.3288
 9734TIP3    H250694   5.556   0.233  10.996 -0.6439  2.1000 -0.1587
 9735TIP3   OH250695   1.194   4.324   1.380  0.9609  0.5096  0.1249
 9735TIP3    H150696   1.263   4.307   1.315  1.0292  1.3489 -0.0196
 9735TIP3    H250697   1.218   4.269   1.455  1.7766  0.7814  0.0639
 9736TIP3   OH250698   0.451   5.383  11.892  0.3584 -0.2389 -0.6068
 9736TIP3    H150699   0.407   5.394  11.976 -0.2377 -0.5110 -0.8883
 9736TIP3    H250700   0.534   5.340  11.914 -0.1523 -1.0553 -0.2525
 9737TIP3   OH250701   6.571   4.400  14.315 -0.0796 -0.4563 -0.2796
 9737TIP3    H150702   6.577   4.418  14.409 -2.3793  0.7781 -0.3433
 9737TIP3    H250703   6.577   4.304  14.309 -0.0090 -0.5569  1.1211
 9738TIP3   OH250704   4.376   2.676   3.024  0.1517  0.2126 -0.2404
 9738TIP3    H150705   4.406   2.588   3.002  1.0461  0.5678 -0.4738
 9738TIP3    H250706   4.386   2.682   3.119  0.6653  0.2660 -0.2951
 9739TIP3   OH250707   0.135   6.583  10.624 -0.2154 -0.0084 -0.2658
 9739TIP3    H150708   0.107   6.535  10.546  0.4083 -0.3650 -0.2624
 9739TIP3    H250709   0.104   6.531  10.697 -2.1827  1.1006 -0.2564
 9740TIP3   OH250710   1.769   2.349  13.602 -0.3874 -0.3411  0.1182
 9740TIP3    H150711   1.810   2.263  13.599  0.3537  0.0501 -1.8294
 9740TIP3    H250712   1.839   2.410  13.580 -0.3475  1.0147  3.7155
 9741TIP3   OH250713   1.008   0.844   5.344 -0.3770 -0.3794  0.0315
 9741TIP3    H150714   0.918   0.842   5.313 -0.3380  1.5021 -0.2576
 9741TIP3    H250715   1.037   0.934   5.329  0.9605 -0.4869  1.8079
 9742TIP3   OH250716   1.943   4.206   2.968 -0.0525  0.0750 -0.6149
 9742TIP3    H150717   1.961   4.112   2.957 -0.6166  0.0937 -1.7299
 9742TIP3    H250718   2.021   4.240   3.012 -0.4025 -1.1503  1.0146
 9743TIP3   OH250719   4.267   1.770  17.074  0.1061 -0.1337  0.2828
 9743TIP3    H150720   4.201   1.743  17.011  0.7319  0.3023 -0.5825
 9743TIP3    H250721   4.282   1.693  17.129 -2.6263  0.3883  1.8432
 9744TIP3   OH250722   6.474   1.830   2.989  0.3224  0.1579  0.2170
 9744TIP3    H150723   6.516   1.769   3.049 -0.1417  1.6170  2.0826
 9744TIP3    H250724   6.469   1.783   2.905  1.2525 -1.7952  1.2356
 9745TIP3   OH250725   4.662   4.889   4.827 -0.4990  0.1577  0.1243
 9745TIP3    H150726   4.710   4.968   4.851  1.5764 -1.2610  0.7105
 9745TIP3    H250727   4.685   4.874   4.735  0.8133 -0.9221  0.6034
 9746TIP3   OH250728   1.130   1.229  11.448 -0.1992  0.5593  0.5878
 9746TIP3    H150729   1.096   1.267  11.529  0.8639  2.0146  0.3797
 9746TIP3    H250730   1.160   1.305  11.397 -1.8135 -0.2195 -1.6389
 9747TIP3   OH250731   5.995   0.986  14.736  0.6484 -0.5882 -0.2898
 9747TIP3    H150732   5.976   0.920  14.669 -1.6144 -0.4127  0.1506
 9747TIP3    H250733   5.954   0.953  14.815 -2.9396  2.5683 -0.6697
 9748TIP3   OH250734   0.646   6.305  16.504  0.1533 -0.4058 -0.3000
 9748TIP3    H150735   0.579   6.359  16.545  1.6266  2.0373 -0.9684
 9748TIP3    H250736   0.602   6.264  16.430 -0.1888  2.6913 -1.8888
 9749TIP3   OH250737   3.709   1.301  13.030  0.0847  0.3866  0.1176
 9749TIP3    H150738   3.693   1.395  13.024  0.7471  0.5701  1.0291
 9749TIP3    H250739   3.739   1.288  13.120 -0.1356 -0.7193  0.0415
 9750TIP3   OH250740   0.479   6.678   2.472  0.2193 -0.4755 -0.2601
 9750TIP3    H150741   0.422   6.676   2.548  2.1136  1.0055  1.2357
 9750TIP3    H250742   0.493   6.771   2.454 -0.6683 -0.7869 -2.8071
 9751TIP3   OH250743   0.684   3.625  12.531 -0.5366 -0.2925  0.8137
 9751TIP3    H150744   0.717   3.697  12.477  0.4416  0.0948  1.8967
 9751TIP3    H250745   0.616   3.665  12.586 -0.1521 -0.2339  1.2544
 9752TIP3   OH250746   0.725   0.878   3.568 -0.1900  0.0632 -0.4881
 9752TIP3    H150747   0.788   0.927   3.622 -2.0320  0.4203  1.3983
 9752TIP3    H250748   0.754   0.895   3.478  2.1187  0.6052  0.3004
 9753TIP3   OH250749   1.063   3.710   4.040 -0.5486  0.3771  0.3014
 9753TIP3    H150750   0.968   3.698   4.048 -0.7109  0.8300 -0.8084
 9753TIP3    H250751   1.079   3.707   3.945  0.7928 -1.5896  0.5715
 9754TIP3   OH250752   5.344   5.207  16.217 -0.1179 -0.3622  0.1201
 9754TIP3    H150753   5.412   5.142  16.198  0.0661 -0.8036  2.1287
 9754TIP3    H250754   5.374   5.249  16.298  0.7398  3.5911 -2.1050
 9755TIP3   OH250755   3.681   3.315   3.774 -0.0928  0.1803 -0.2223
 9755TIP3    H150756   3.737   3.356   3.708 -0.5974  1.0619 -0.1032
 9755TIP3    H250757   3.728   3.328   3.856  0.1713 -0.2540 -0.3046
 9756TIP3   OH250758   4.081   2.678   4.323 -0.0661  0.3202 -0.4023
 9756TIP3    H150759   4.091   2.647   4.413 -1.4401  1.6920  0.2429
 9756TIP3    H250760   4.155   2.639   4.276 -0.9003 -2.6835  0.6844
 9757TIP3   OH250761   0.037   2.103  12.402  0.4452 -0.8840  0.2359
 9757TIP3    H150762   0.113   2.046  12.412  0.7689 -0.5224 -0.1137
 9757TIP3    H250763   0.040   2.160  12.479  0.2725 -1.1632  0.4518
 9758TIP3   OH250764   2.276   0.531  15.753 -0.4661 -0.1819 -0.2257
 9758TIP3    H150765   2.341   0.595  15.783  0.0394 -0.4766 -0.6837
 9758TIP3    H250766   2.197   0.552  15.803 -0.1391  0.4423  0.0370
 9759TIP3   OH250767   5.175   5.193  17.048 -0.2559  0.4372  0.6140
 9759TIP3    H150768   5.116   5.252  17.000  0.7490  1.9817  1.2086
 9759TIP3    H250769   5.121   5.117  17.069 -1.4920  0.9792 -0.5114
 9760TIP3   OH250770   2.362   3.096   3.103 -0.0179  0.5230  0.3477
 9760TIP3    H150771   2.396   3.157   3.168  0.1547  1.5048 -0.6488
 9760TIP3    H250772   2.283   3.139   3.069 -0.3244 -0.1614  0.1779
 9761TIP3   OH250773   1.137   5.536  15.562  0.5469 -0.4227  0.1566
 9761TIP3    H150774   1.172   5.497  15.642 -1.1244 -2.5104 -0.0934
 9761TIP3    H250775   1.138   5.631  15.579  0.7800 -0.7995  2.4035
 9762TIP3   OH250776   1.002   6.648  15.259  0.1076 -0.0550 -0.1116
 9762TIP3    H150777   0.918   6.608  15.235  0.4854 -1.1051  0.2865
 9762TIP3    H250778   0.982   6.703  15.335 -0.6174  1.3662 -1.2976
 9763TIP3   OH250779   5.191   5.932  12.086 -0.1603  0.6975 -0.1166
 9763TIP3    H150780   5.131   5.858  12.102  0.3723  0.8099  2.6861
 9763TIP3    H250781   5.134   6.006  12.068 -0.7221 -0.1856 -2.1011
 9764TIP3   OH250782   4.167   6.560   4.021  0.1065  0.2641  0.3903
 9764TIP3    H150783   4.222   6.573   3.943  0.5247  2.4294  1.0180
 9764TIP3    H250784   4.230   6.547   4.092 -0.2272  0.6236  0.7515
 9765TIP3   OH250785   3.378   3.233   4.993  0.5252 -0.0305  0.2728
 9765TIP3    H150786   3.469   3.258   5.011  1.0405 -2.1259  0.6592
 9765TIP3    H250787   3.339   3.221   5.079  0.1726 -0.1921  0.0904
 9766TIP3   OH250788   4.399   3.743  16.336  0.0700 -0.3366  0.0310
 9766TIP3    H150789   4.396   3.755  16.431  0.9838 -0.2204  0.0477
 9766TIP3    H250790   4.492   3.739  16.315 -0.1309 -0.9956 -0.7834
 9767TIP3   OH250791   3.235   3.516  16.242 -0.0862  0.7555 -0.2495
 9767TIP3    H150792   3.321   3.481  16.222 -0.2594 -0.5240  1.1725
 9767TIP3    H250793   3.192   3.526  16.157  1.7242  2.1740 -1.0410
 9768TIP3   OH250794   3.285   2.598   5.553  0.1678  0.3230  0.5029
 9768TIP3    H150795   3.300   2.517   5.603 -2.1234 -0.3365  0.1814
 9768TIP3    H250796   3.204   2.634   5.589  0.0172  1.3495 -0.8128
 9769TIP3   OH250797   0.475   2.757   2.288  0.0914  0.5656 -0.0388
 9769TIP3    H150798   0.461   2.682   2.231  0.6374  0.8648 -0.5832
 9769TIP3    H250799   0.527   2.818   2.235 -2.3670  2.3686 -0.4576
 9770TIP3   OH250800   3.079   4.002  15.127  0.4748 -0.7254 -0.3479
 9770TIP3    H150801   3.062   4.020  15.219  1.5197 -0.5615 -0.1799
 9770TIP3    H250802   3.034   4.072  15.080  0.1342 -0.6775  0.0460
 9771TIP3   OH250803   4.075   0.614  11.275 -0.3449 -0.0476 -0.1619
 9771TIP3    H150804   4.037   0.563  11.346 -0.4791 -0.5268 -0.5681
 9771TIP3    H250805   4.170   0.606  11.286 -0.3104  2.2468  1.6402
 9772TIP3   OH250806   2.984   3.106  17.078 -0.0602  0.0266 -0.3332
 9772TIP3    H150807   2.899   3.063  17.090 -0.6963  1.3106 -0.1518
 9772TIP3    H250808   2.992   3.118  16.984 -0.5171  0.7342 -0.2890
 9773TIP3   OH250809   4.729   0.971   0.101 -0.6096  0.6379 -0.8662
 9773TIP3    H150810   4.825   0.967   0.099 -0.6045  0.4036 -0.3782
 9773TIP3    H250811   4.701   0.887   0.066 -0.6113 -0.0050  0.6295
 9774TIP3   OH250812   0.055   2.335   5.126  0.1983  0.5126 -0.1899
 9774TIP3    H150813   0.015   2.333   5.039 -0.0951  1.2491 -0.0793
 9774TIP3    H250814   0.143   2.300   5.113  0.4946  1.5290 -0.9820
 9775TIP3   OH250815   0.251   5.271   2.100  0.4414 -0.0138  0.2502
 9775TIP3    H150816   0.169   5.307   2.135 -1.5434 -2.7768 -1.3773
 9775TIP3    H250817   0.278   5.206   2.164  1.6047  1.1576  0.9702
 9776TIP3   OH250818   2.147   1.335  16.123  0.1147 -0.2456 -0.8792
 9776TIP3    H150819   2.206   1.322  16.048  1.1269  1.3424 -0.3873
 9776TIP3    H250820   2.101   1.416  16.103 -1.1875 -0.9497 -0.7741
 9777TIP3   OH250821   0.205   1.188   2.726  0.5231 -0.6223 -0.0608
 9777TIP3    H150822   0.201   1.249   2.801  2.5273 -0.7972  0.2225
 9777TIP3    H250823   0.299   1.174   2.712  0.1961 -0.2740 -2.8972
 9778TIP3   OH250824   2.696   0.353   4.956  0.3191 -0.1951  0.5753
 9778TIP3    H150825   2.614   0.330   4.911  1.1434  0.1225 -1.0866
 9778TIP3    H250826   2.764   0.308   4.906  1.3275  0.8238  1.0260
 9779TIP3   OH250827   5.016   6.011  12.808 -0.2472 -0.8210  0.3329
 9779TIP3    H150828   4.981   5.960  12.735 -0.0004  0.4481 -0.6860
 9779TIP3    H250829   5.104   5.976  12.822  0.8309  0.8963 -1.9328
 9780TIP3   OH250830   2.554   1.961  16.350  0.7963 -0.1792 -0.6431
 9780TIP3    H150831   2.622   2.006  16.300 -0.2193  2.3034  0.1055
 9780TIP3    H250832   2.480   1.956  16.289  0.7641 -0.4307 -0.5803
 9781TIP3   OH250833   6.675   2.385  10.499 -0.4103 -0.3979 -0.1793
 9781TIP3    H150834   6.717   2.470  10.490 -0.4604 -0.4587 -0.9995
 9781TIP3    H250835   6.583   2.400  10.476 -0.5115 -0.5948  0.0773
 9782TIP3   OH250836   1.162   0.605  16.732 -0.2476 -0.2242  0.2496
 9782TIP3    H150837   1.134   0.659  16.658  0.6498  0.3857  0.3429
 9782TIP3    H250838   1.244   0.645  16.761 -0.5774 -0.4639  1.5576
 9783TIP3   OH250839   3.170   2.611   3.547  0.1025 -0.0208  0.3154
 9783TIP3    H150840   3.261   2.586   3.567  0.4377 -1.0132 -2.1583
 9783TIP3    H250841   3.129   2.529   3.518 -0.9852  0.8064 -0.5180
 9784TIP3   OH250842   2.119   3.741   2.026  0.9711 -0.3446  0.2628
 9784TIP3    H150843   2.188   3.805   2.040  0.3027  0.4873 -0.2257
 9784TIP3    H250844   2.128   3.680   2.100  1.7246  0.1982  0.6290
 9785TIP3   OH250845   6.698   5.697  15.695  0.0990  0.3662  0.1053
 9785TIP3    H150846   6.606   5.684  15.720 -0.1865  2.4589  0.2351
 9785TIP3    H250847   6.726   5.612  15.661 -1.2731 -0.8897  2.0041
 9786TIP3   OH250848   1.591   1.306   0.617  0.2785 -0.5681  0.7003
 9786TIP3    H150849   1.621   1.227   0.662 -0.1843 -2.2957 -1.9202
 9786TIP3    H250850   1.651   1.375   0.648  1.7041 -2.2574  1.8076
 9787TIP3   OH250851   5.347   1.197   2.838 -0.6442  0.0595 -0.0688
 9787TIP3    H150852   5.294   1.245   2.774  0.2362  1.3081  0.1228
 9787TIP3    H250853   5.427   1.173   2.790  0.3290  1.6006  0.7174
 9788TIP3   OH250854   2.582   3.475   5.365  0.0025  0.6001  0.0369
 9788TIP3    H150855   2.546   3.492   5.278  1.4888  0.6714 -0.5836
 9788TIP3    H250856   2.628   3.391   5.356  1.7799  1.5308  0.2207
 9789TIP3   OH250857   4.731   6.538  13.942  0.1411  0.9209 -0.0084
 9789TIP3    H150858   4.727   6.633  13.954 -0.0248  1.0498 -1.1182
 9789TIP3    H250859   4.657   6.517  13.886 -1.7108 -0.2808  2.7714
 9790TIP3   OH250860   4.095   6.617   0.543 -0.2709  0.5269 -0.0725
 9790TIP3    H150861   4.076   6.711   0.542  0.2936  0.6418 -0.5170
 9790TIP3    H250862   4.046   6.583   0.618  1.4603  1.5804  1.5674
 9791TIP3   OH250863   2.250   1.549  15.701  0.6125 -0.3137 -0.4476
 9791TIP3    H150864   2.207   1.570  15.784  2.5494 -0.8772  0.7657
 9791TIP3    H250865   2.313   1.620  15.688 -0.0993  0.0813 -1.7583
 9792TIP3   OH250866   5.795   1.801   5.236 -0.0040  0.2687 -0.3028
 9792TIP3    H150867   5.704   1.827   5.251 -0.0236  0.5448 -0.8627
 9792TIP3    H250868   5.829   1.870   5.178  0.5239  0.1022 -0.1854
 9793TIP3   OH250869   5.899   3.444  14.917  0.5628 -0.5587 -0.2123
 9793TIP3    H150870   5.938   3.465  15.003 -0.3006 -1.6396  0.4543
 9793TIP3    H250871   5.830   3.510  14.906  1.1884  0.0676 -0.4420
 9794TIP3   OH250872   6.707   3.444  16.654 -0.6407  0.1814  0.1987
 9794TIP3    H150873   6.678   3.528  16.691  0.8559  1.2010 -0.8832
 9794TIP3    H250874   6.642   3.424  16.587  0.7975  2.2281 -1.9010
 9795TIP3   OH250875   6.266   1.658  14.747  0.2301 -1.1577 -0.5207
 9795TIP3    H150876   6.198   1.635  14.810 -0.1803  2.2496  0.4129
 9795TIP3    H250877   6.331   1.705  14.799  0.5650  0.4665 -2.3350
 9796TIP3   OH250878   2.931   1.342  14.532 -0.5850 -0.0447 -0.4311
 9796TIP3    H150879   2.985   1.369  14.606 -0.8777 -0.1886 -0.1662
 9796TIP3    H250880   2.946   1.409  14.466 -1.6013  0.9748  0.3560
 9797TIP3   OH250881   2.543   1.363   0.585  0.0127 -0.3915  0.8763
 9797TIP3    H150882   2.517   1.381   0.675  0.6323 -0.1042  1.0031
 9797TIP3    H250883   2.477   1.404   0.531  0.5079  0.8138  1.1808
 9798TIP3   OH250884   0.306   6.345   4.365 -0.0834 -0.0188 -0.1794
 9798TIP3    H150885   0.361   6.386   4.431  0.1963  0.3712 -0.6543
 9798TIP3    H250886   0.320   6.251   4.377 -0.4328  0.0281  0.6564
 9799TIP3   OH250887   6.244   2.464  14.033 -0.0515  0.2742 -0.2684
 9799TIP3    H150888   6.193   2.405  14.088 -1.5601 -0.8413 -2.7633
 9799TIP3    H250889   6.330   2.422  14.027 -0.9086 -1.3943 -1.4796
 9800TIP3   OH250890   6.185   3.420  14.371  0.7317 -0.1237  0.3284
 9800TIP3    H150891   6.117   3.483  14.348  0.9447 -0.3330 -0.8948
 9800TIP3    H250892   6.150   3.335  14.342  0.9614 -0.4051  0.8645
 9801TIP3   OH250893   1.346   3.065  13.651 -0.4224 -0.2674  0.0186
 9801TIP3    H150894   1.280   3.076  13.720 -0.0211  1.1907  0.1940
 9801TIP3    H250895   1.394   3.148  13.651  2.9056 -2.0973  1.4436
 9802TIP3   OH250896   2.495   0.614   0.581  0.4310 -0.3127  0.1606
 9802TIP3    H150897   2.569   0.673   0.569 -0.6467  0.7210 -1.7327
 9802TIP3    H250898   2.532   0.526   0.571  1.6876  0.1245  0.9621
 9803TIP3   OH250899   2.443   1.585   5.626 -0.0484  0.4318 -0.0717
 9803TIP3    H150900   2.417   1.665   5.582 -2.1996 -1.2125 -1.8775
 9803TIP3    H250901   2.361   1.544   5.653  0.9864 -1.4008  0.4011
 9804TIP3   OH250902   4.865   5.869  16.154 -0.1967  0.5885  0.0551
 9804TIP3    H150903   4.858   5.799  16.089 -2.0835  1.2748 -0.5445
 9804TIP3    H250904   4.815   5.941  16.116  0.4800  1.7404  1.3183
 9805TIP3   OH250905   6.637   6.700   3.059  0.0791 -0.2885  0.4335
 9805TIP3    H150906   6.725   6.726   3.085  0.7979 -1.0044 -1.2223
 9805TIP3    H250907   6.616   6.626   3.116  0.9655 -0.7770  0.1384
 9806TIP3   OH250908   3.292   2.636   5.169 -0.1709  0.0365  0.6808
 9806TIP3    H150909   3.303   2.551   5.126  0.3645  0.1204  0.6477
 9806TIP3    H250910   3.354   2.634   5.242  0.0387  0.5051  0.5178
 9807TIP3   OH250911   5.756   4.651   5.388 -0.5583  0.3095  0.4731
 9807TIP3    H150912   5.693   4.707   5.345  0.2087  0.0510 -1.0225
 9807TIP3    H250913   5.727   4.562   5.369  1.4683  0.1467 -2.1601
 9808TIP3   OH250914   5.652   1.798   0.282  0.2271  0.3417  0.2997
 9808TIP3    H150915   5.744   1.789   0.259 -0.0679  1.5315 -1.4208
 9808TIP3    H250916   5.650   1.868   0.347  0.5945 -0.0611  0.7459
 9809TIP3   OH250917   3.646   3.500   4.474  0.0260 -0.2668  0.1801
 9809TIP3    H150918   3.678   3.588   4.493 -0.2252 -0.4293  1.3838
 9809TIP3    H250919   3.561   3.495   4.517  0.2852 -1.2863  0.5914
 9810TIP3   OH250920   3.610   1.845  11.367  0.1697 -0.2495 -0.1897
 9810TIP3    H150921   3.669   1.782  11.409 -0.6943 -0.2237  1.0650
 9810TIP3    H250922   3.527   1.836  11.413 -0.3506  0.8709 -0.8785
 9811TIP3   OH250923   3.366   0.061   5.054 -0.3078  0.3930 -0.0348
 9811TIP3    H150924   3.336   0.148   5.028 -0.8598  0.3069  0.3116
 9811TIP3    H250925   3.421   0.032   4.981 -0.0380  1.0736 -0.1028
 9812TIP3   OH250926   1.173   2.109   0.374  0.5022 -0.2415  0.3338
 9812TIP3    H150927   1.227   2.186   0.357  2.4806 -1.8228 -0.6325
 9812TIP3    H250928   1.161   2.108   0.469 -0.4844  1.8495  0.2685
 9813TIP3   OH250929   4.187   3.853  11.516  0.2522  0.0498  0.7945
 9813TIP3    H150930   4.262   3.843  11.574  0.2035 -0.1576  0.8207
 9813TIP3    H250931   4.111   3.845  11.573  0.2055 -0.0662  0.7145
 9814TIP3   OH250932   2.563   1.427   5.971  0.0608 -0.2897  0.1222
 9814TIP3    H150933   2.530   1.346   6.011 -1.3767  0.0674 -0.3336
 9814TIP3    H250934   2.655   1.408   5.951  0.2971 -1.1086  1.8908
 9815TIP3   OH250935   0.993   0.259   1.857 -0.1008  0.2689  0.4984
 9815TIP3    H150936   1.073   0.249   1.909 -1.4210 -0.6089  2.4279
 9815TIP3    H250937   0.923   0.227   1.914 -1.8262  0.9045 -1.1980
 9816TIP3   OH250938   5.603   2.544  16.043  0.1515 -1.1404  0.2874
 9816TIP3    H150939   5.669   2.593  15.994 -1.8576  0.1500 -1.2021
 9816TIP3    H250940   5.642   2.530  16.129  1.6260  1.1848  0.0238
 9817TIP3   OH250941   6.337   6.355  13.534  0.6986  0.8671  0.0868
 9817TIP3    H150942   6.385   6.436  13.553  2.4858 -0.4198  1.2294
 9817TIP3    H250943   6.406   6.290  13.520 -0.7240 -0.8945  1.1361
 9818TIP3   OH250944   6.241   2.486   3.205 -0.0909  0.5223  0.5097
 9818TIP3    H150945   6.255   2.391   3.206 -0.2833  0.4896  0.0870
 9818TIP3    H250946   6.148   2.496   3.186 -0.2760  0.7768  1.5585
 9819TIP3   OH250947   3.863   5.041  12.098 -1.3039 -0.0819  0.0762
 9819TIP3    H150948   3.855   4.950  12.125 -0.2701 -0.2853 -0.2650
 9819TIP3    H250949   3.873   5.090  12.179 -1.8429 -0.2686  0.2596
 9820TIP3   OH250950   1.052   1.373   1.662 -0.4818  0.2203  0.1235
 9820TIP3    H150951   1.038   1.339   1.750 -0.2194 -1.6791 -0.5442
 9820TIP3    H250952   1.146   1.360   1.646 -0.8060 -0.8253 -0.9888
 9821TIP3   OH250953   2.370   6.271   5.914 -0.0617  0.0129 -0.1767
 9821TIP3    H150954   2.416   6.352   5.891  0.9195 -0.0541  1.4914
 9821TIP3    H250955   2.432   6.221   5.966 -1.8798 -0.2172  1.8685
 9822TIP3   OH250956   1.329   4.489   3.447  0.0229  0.2436 -0.4652
 9822TIP3    H150957   1.241   4.495   3.411 -0.2118 -0.2252  0.0284
 9822TIP3    H250958   1.380   4.443   3.380 -0.1157  0.4607 -0.7231
 9823TIP3   OH250959   5.877   6.019   5.772 -0.0529  0.0571 -0.1608
 9823TIP3    H150960   5.857   6.095   5.828 -1.3961 -0.8775  0.6579
 9823TIP3    H250961   5.909   6.058   5.691  0.9469  1.4707  0.8712
 9824TIP3   OH250962   6.534   0.715   3.908  0.0384 -0.4351  0.3805
 9824TIP3    H150963   6.581   0.779   3.962 -1.7443  1.0437  0.2469
 9824TIP3    H250964   6.529   0.756   3.821 -2.3728 -0.0550  0.6474
 9825TIP3   OH250965   2.034   6.733  17.291 -0.1307 -0.4266  0.5164
 9825TIP3    H150966   2.029   6.822  17.326  2.4451 -0.6184  1.4743
 9825TIP3    H250967   2.078   6.744  17.206 -0.6342 -0.7003  0.2154
 9826TIP3   OH250968   4.571   0.978  15.592  0.6280  0.8209 -0.5719
 9826TIP3    H150969   4.595   0.892  15.626 -1.0738 -0.0196 -1.4325
 9826TIP3    H250970   4.652   1.028  15.594  1.2977 -0.2568  1.5406
 9827TIP3   OH250971   1.060   4.783  16.018  0.2064 -0.3978  0.2135
 9827TIP3    H150972   1.137   4.732  16.044 -0.2339 -1.1168  0.1192
 9827TIP3    H250973   1.041   4.754  15.929  1.0368  1.2539 -0.5323
 9828TIP3   OH250974   6.576   3.049   6.211 -0.4232  0.0034 -0.3229
 9828TIP3    H150975   6.520   3.102   6.267 -1.3043 -1.2295 -0.0364
 9828TIP3    H250976   6.520   2.980   6.178  0.8003 -0.9768 -0.4082
 9829TIP3   OH250977   6.074   6.206   5.600 -0.5002  0.1077 -0.2400
 9829TIP3    H150978   6.146   6.143   5.587  1.4745  2.4513 -0.9557
 9829TIP3    H250979   6.088   6.239   5.689 -0.8082  0.4715 -0.3298
 9830TIP3   OH250980   2.826   5.312  10.992  0.0650  0.5980  0.5551
 9830TIP3    H150981   2.795   5.402  10.989 -0.5501  0.3821  0.2302
 9830TIP3    H250982   2.882   5.308  11.069 -1.7670  0.6951  1.9447
 9831TIP3   OH250983   0.340   1.426  10.811  0.1596  0.0894  0.5880
 9831TIP3    H150984   0.411   1.490  10.815  1.0786 -0.9374  1.0649
 9831TIP3    H250985   0.317   1.421  10.719  1.5045 -0.4116  0.2657
 9832TIP3   OH250986   2.323   0.007   1.633 -0.0432  0.4546 -0.2469
 9832TIP3    H150987   2.355  -0.068   1.583  0.2724  0.5919 -0.2506
 9832TIP3    H250988   2.234   0.021   1.602 -0.4817 -0.6000  0.5217
 9833TIP3   OH250989   5.609   6.378  12.220  0.2071 -0.0907  0.0488
 9833TIP3    H150990   5.548   6.391  12.293 -0.5301  4.5101 -1.2596
 9833TIP3    H250991   5.568   6.310  12.167 -1.1307 -0.7809  1.8982
 9834TIP3   OH250992   1.814   1.228  16.876 -0.4568  0.4903  0.1854
 9834TIP3    H150993   1.866   1.308  16.873  1.1680 -0.5644 -0.8042
 9834TIP3    H250994   1.786   1.221  16.967  1.3040  0.9936  0.7958
 9835TIP3   OH250995   6.073   0.425  16.896  0.1612  0.2121  0.5718
 9835TIP3    H150996   6.038   0.495  16.952 -1.1225 -0.9077  1.1855
 9835TIP3    H250997   6.167   0.443  16.891 -0.0286  1.4902  1.4235
 9836TIP3   OH250998   1.593   3.536   1.670 -0.6326  0.5203  0.0750
 9836TIP3    H150999   1.499   3.531   1.687 -0.8607  1.0887 -0.9595
 9836TIP3    H251000   1.608   3.472   1.601  0.0189 -0.7131  1.3562
 9837TIP3   OH251001   6.681   4.632  11.128  0.0881  0.3099  0.1597
 9837TIP3    H151002   6.602   4.616  11.179 -0.0833 -0.4912 -0.3534
 9837TIP3    H251003   6.752   4.595  11.181  0.0129  0.2431  0.2123
 9838TIP3   OH251004   5.061   4.115   3.642 -0.1842  0.0361 -0.2786
 9838TIP3    H151005   5.075   4.096   3.549  0.7154  1.8245 -0.5216
 9838TIP3    H251006   5.133   4.070   3.687  0.5403  0.8372 -0.6316
 9839TIP3   OH251007   1.846   3.155  16.326  0.0095  0.0778  0.1042
 9839TIP3    H151008   1.925   3.114  16.362  1.7631  2.0158 -1.4372
 9839TIP3    H251009   1.806   3.086  16.273 -0.2371 -1.4261  2.1663
 9840TIP3   OH251010   0.662   2.904   6.114  0.6698  0.2153 -0.0684
 9840TIP3    H151011   0.616   2.823   6.090  2.2832 -0.2303 -1.6961
 9840TIP3    H251012   0.653   2.908   6.210 -1.7637 -0.4384 -0.2243
 9841TIP3   OH251013   2.732   4.283   3.374  0.7066  0.4319 -0.1905
 9841TIP3    H151014   2.728   4.245   3.461  0.2197  1.6623  0.3372
 9841TIP3    H251015   2.654   4.249   3.329 -0.3621  1.6913  0.6621
 9842TIP3   OH251016   3.886   5.536  11.641  0.6778  0.2511 -0.0833
 9842TIP3    H151017   3.879   5.579  11.556  1.4727 -0.1938 -0.3800
 9842TIP3    H251018   3.971   5.492  11.638  1.3256  1.3727  1.4677
 9843TIP3   OH251019   0.527   5.835   0.983  0.3261  0.1542  0.1684
 9843TIP3    H151020   0.583   5.848   0.906  0.4810  0.1938  0.2877
 9843TIP3    H251021   0.452   5.785   0.950  0.3428  0.2613 -0.0300
 9844TIP3   OH251022   5.266   2.392  12.099  0.0219  0.4786 -0.0708
 9844TIP3    H151023   5.254   2.431  12.185 -1.6384  2.7673 -1.2700
 9844TIP3    H251024   5.195   2.328  12.092  0.9803 -0.6852  0.7758
 9845TIP3   OH251025   5.908   5.714  15.259  0.0698 -0.0303 -0.2399
 9845TIP3    H151026   5.918   5.619  15.265 -0.9383 -0.0243  2.2271
 9845TIP3    H251027   5.992   5.750  15.288  0.1286 -0.1567 -0.2545
 9846TIP3   OH251028   6.240   3.296  16.327 -0.0643 -0.0314  1.1258
 9846TIP3    H151029   6.153   3.320  16.359 -1.2485 -0.5804 -1.5447
 9846TIP3    H251030   6.246   3.202  16.343 -0.2874 -0.1386  0.5815
 9847TIP3   OH251031   1.631   3.005   2.400  0.1107  0.1506  0.1522
 9847TIP3    H151032   1.703   2.961   2.355 -0.6056  0.5740 -1.4418
 9847TIP3    H251033   1.552   2.968   2.361 -0.5200  1.0596  0.5579
 9848TIP3   OH251034   3.572   1.786   6.158 -0.3746 -0.1843  0.5160
 9848TIP3    H151035   3.503   1.798   6.093 -0.2417 -0.0588  0.3970
 9848TIP3    H251036   3.574   1.692   6.175 -0.5530 -0.1916  0.4959
 9849TIP3   OH251037   3.037   5.621  13.672  0.5741 -0.6376 -0.2509
 9849TIP3    H151038   2.946   5.591  13.669  1.0186 -2.2652  1.3427
 9849TIP3    H251039   3.082   5.555  13.726  2.1718  1.4916  1.1153
 9850TIP3   OH251040   1.624   2.198   4.714  0.0987  0.0789 -0.0265
 9850TIP3    H151041   1.585   2.113   4.731  1.5430 -0.5891 -0.0056
 9850TIP3    H251042   1.718   2.186   4.730  0.5170  1.3087 -1.3964
 9851TIP3   OH251043   2.630   4.290  14.625 -0.1515 -0.4771 -0.0312
 9851TIP3    H151044   2.606   4.255  14.540  1.6722  0.4425 -0.9410
 9851TIP3    H251045   2.571   4.364  14.638 -0.8975 -1.0428 -0.1767
 9852TIP3   OH251046   4.581   2.338  12.212  0.3725 -0.0576  0.2693
 9852TIP3    H151047   4.659   2.364  12.262 -0.1052  0.7201  0.6258
 9852TIP3    H251048   4.616   2.305  12.129  1.0295  1.6815 -0.1828
 9853TIP3   OH251049   0.329   3.249   1.984 -0.3630  0.1077  0.2070
 9853TIP3    H151050   0.295   3.332   1.950 -0.4270 -0.1170 -0.2754
 9853TIP3    H251051   0.423   3.265   1.993 -0.5453  0.6475  1.3135
 9854TIP3   OH251052   3.769   2.876  15.632  0.0497 -0.0884  0.3751
 9854TIP3    H151053   3.820   2.943  15.587 -1.4802  1.1183  0.4014
 9854TIP3    H251054   3.804   2.874  15.721  1.7876 -1.1269 -0.3029
 9855TIP3   OH251055   1.746   5.155   0.206  0.3833  0.0765 -0.2696
 9855TIP3    H151056   1.659   5.191   0.220  0.5176  0.5601 -0.6357
 9855TIP3    H251057   1.753   5.083   0.268 -0.3664 -0.1197 -0.4079
 9856TIP3   OH251058   2.693   1.503  13.884 -0.4123  0.5515  0.2895
 9856TIP3    H151059   2.705   1.592  13.851  2.1765  0.3627  0.5899
 9856TIP3    H251060   2.625   1.465  13.828 -0.9766  2.4554 -0.3351
 9857TIP3   OH251061   3.040   4.373  17.044  0.2240 -0.3588  0.1817
 9857TIP3    H151062   3.052   4.348  17.136 -0.0771 -0.2846  0.2423
 9857TIP3    H251063   2.952   4.342  17.023 -0.0489  0.4176  0.1757
 9858TIP3   OH251064   4.474   3.194   5.869  0.2575 -0.3081  0.3904
 9858TIP3    H151065   4.514   3.199   5.783  1.4252 -2.6528  0.7643
 9858TIP3    H251066   4.506   3.272   5.916 -2.6530  2.5850 -2.1315
 9859TIP3   OH251067   4.804   5.776   4.842 -0.3883 -0.3650 -0.0376
 9859TIP3    H151068   4.802   5.708   4.910 -0.9584 -1.5603 -1.2112
 9859TIP3    H251069   4.895   5.805   4.839 -0.0847 -1.2758  0.2960
 9860TIP3   OH251070   5.762   6.381   2.472 -0.0154 -0.3100 -0.4522
 9860TIP3    H151071   5.734   6.296   2.505 -1.2249 -0.1219 -0.9589
 9860TIP3    H251072   5.815   6.361   2.395 -0.9533 -0.5812 -1.0317
 9861TIP3   OH251073   4.253   4.501   0.132  0.3572  0.1168 -0.2322
 9861TIP3    H151074   4.328   4.453   0.166  0.4886 -0.8488 -1.8552
 9861TIP3    H251075   4.253   4.583   0.182  2.8142  0.3721 -0.5648
 9862TIP3   OH251076   0.487   4.932   1.742  0.8879 -0.1378  0.2221
 9862TIP3    H151077   0.528   4.977   1.816  0.7148  2.0084 -0.9381
 9862TIP3    H251078   0.394   4.931   1.765  1.1151 -1.6538  1.1307
 9863TIP3   OH251079   0.002   0.560   2.738  0.4625  0.5895 -0.0516
 9863TIP3    H151080   0.043   0.542   2.653 -2.7574  0.9529 -1.7773
 9863TIP3    H251081   0.013   0.480   2.788  0.4821 -0.4395 -1.6562
 9864TIP3   OH251082   5.091   0.720  15.558 -0.5638  0.0457 -0.0634
 9864TIP3    H151083   5.087   0.754  15.647 -0.4535  0.8557 -0.3623
 9864TIP3    H251084   5.000   0.722  15.527 -0.5010  0.4756 -0.2257
 9865TIP3   OH251085   0.775   4.010   1.131  0.4241  0.0869 -0.1153
 9865TIP3    H151086   0.734   3.927   1.110 -0.2361 -0.3418  2.7054
 9865TIP3    H251087   0.703   4.066   1.161  1.3747  0.4565  1.5448
 9866TIP3   OH251088   1.249   0.481   4.804 -0.4704  0.8245 -0.2022
 9866TIP3    H151089   1.344   0.473   4.817 -0.6948 -1.2842  0.3582
 9866TIP3    H251090   1.235   0.574   4.788  1.8306  1.0120 -1.3702
 9867TIP3   OH251091   5.535   0.660   5.636 -0.1140 -0.3653  0.3057
 9867TIP3    H151092   5.590   0.728   5.675  0.5961 -1.0385  0.5143
 9867TIP3    H251093   5.463   0.707   5.596  0.9565  0.5867 -0.5345
 9868TIP3   OH251094   2.660   5.924  11.765 -0.7888  0.7921  0.1373
 9868TIP3    H151095   2.642   5.986  11.836 -0.1303  1.4357 -0.2557
 9868TIP3    H251096   2.620   5.963  11.687 -4.1947 -1.3425  0.6786
 9869TIP3   OH251097   5.590   0.307   3.747  0.5729  0.3718  0.3310
 9869TIP3    H151098   5.532   0.335   3.676  0.3757  0.7772  0.6422
 9869TIP3    H251099   5.665   0.366   3.741  0.7726  0.0944  0.1604
 9870TIP3   OH251100   0.725   3.738   0.921  0.1616 -0.3150 -0.0830
 9870TIP3    H151101   0.644   3.748   0.971  0.9101  0.3134  1.0007
 9870TIP3    H251102   0.741   3.644   0.920 -3.0688 -1.0229 -4.2786
 9871TIP3   OH251103   0.210   0.933  16.128 -0.1633  0.2984  0.1154
 9871TIP3    H151104   0.238   1.009  16.077 -0.4620  1.0979  1.1207
 9871TIP3    H251105   0.209   0.861  16.065 -3.8676  1.9200 -1.8202
 9872TIP3   OH251106   0.039   4.591   1.255 -0.0835 -0.0689 -0.4682
 9872TIP3    H151107   0.075   4.517   1.205  1.8344  0.1722  0.5313
 9872TIP3    H251108   0.115   4.638   1.287 -1.3025  1.2363  0.5753
 9873TIP3   OH251109   0.606   1.504  16.076  0.5255  0.3750  0.9240
 9873TIP3    H151110   0.647   1.438  16.132 -2.3664  0.1424  2.8932
 9873TIP3    H251111   0.564   1.453  16.007  2.6442  0.5567 -0.5573
 9874TIP3   OH251112   5.567   6.331   2.925 -0.3800  0.0085 -0.5894
 9874TIP3    H151113   5.544   6.331   2.832  0.8321 -0.0360 -0.8914
 9874TIP3    H251114   5.510   6.398   2.963 -0.3136  0.5965 -1.5018
 9875TIP3   OH251115   1.265   2.404  14.799  0.4770 -0.0569  0.6107
 9875TIP3    H151116   1.294   2.330  14.852  1.4500  1.2987  2.0349
 9875TIP3    H251117   1.314   2.397  14.718  2.3536  0.3264  1.6798
 9876TIP3   OH251118   3.427   3.947   4.721 -0.3840 -0.2120 -0.0006
 9876TIP3    H151119   3.468   4.008   4.782  0.2230  0.0287 -0.6430
 9876TIP3    H251120   3.350   3.994   4.688 -1.5064 -0.8703  1.6088
 9877TIP3   OH251121   4.302   3.311   5.374  0.1724 -0.7185 -0.4861
 9877TIP3    H151122   4.235   3.247   5.398  1.8449 -2.8329 -1.2895
 9877TIP3    H251123   4.275   3.343   5.287 -0.0230 -1.2435 -0.6196
 9878TIP3   OH251124   4.888   2.510   4.161  0.5711  0.3188 -0.2014
 9878TIP3    H151125   4.793   2.500   4.166  0.7127 -0.6637  0.5924
 9878TIP3    H251126   4.916   2.528   4.250  1.2516 -0.5049 -0.2416
 9879TIP3   OH251127   0.759   4.182  16.071 -0.1640 -0.2400 -0.0055
 9879TIP3    H151128   0.674   4.153  16.035 -1.0904 -0.0345  1.9606
 9879TIP3    H251129   0.754   4.277  16.068 -1.0236 -0.1864  2.3740
 9880TIP3   OH251130   0.987   2.840  12.846 -0.4201 -0.4863  0.0280
 9880TIP3    H151131   0.956   2.787  12.919  0.5040  0.7104  1.3283
 9880TIP3    H251132   0.982   2.782  12.770  1.3231 -2.6979  1.5428
 9881TIP3   OH251133   6.419   4.975   4.569 -0.0873 -0.4929 -0.5121
 9881TIP3    H151134   6.440   4.888   4.534  1.0165 -0.9170  1.1147
 9881TIP3    H251135   6.503   5.021   4.570 -0.6657  0.5996 -1.3524
 9882TIP3   OH251136   3.888   2.495   3.518  0.1419 -0.2836 -0.2767
 9882TIP3    H151137   3.911   2.579   3.479 -0.5349 -0.2443 -0.5926
 9882TIP3    H251138   3.861   2.517   3.607  6.7048 -0.8832  2.1513
 9883TIP3   OH251139   1.989   2.541   1.327 -0.3007  0.3580 -0.2370
 9883TIP3    H151140   1.940   2.543   1.409  1.5295  0.2234  0.8883
 9883TIP3    H251141   1.937   2.486   1.269 -1.4136  0.1257  0.9631
 9884TIP3   OH251142   2.346   5.541   4.095 -0.2267  0.2898  0.1387
 9884TIP3    H151143   2.373   5.499   4.013 -0.6259  3.3702 -1.6755
 9884TIP3    H251144   2.253   5.560   4.082 -0.6641 -0.5278  1.9457
 9885TIP3   OH251145   6.284   5.497   5.324  0.0773 -0.4772  0.2765
 9885TIP3    H151146   6.375   5.511   5.297  0.4125 -1.3718  0.9245
 9885TIP3    H251147   6.273   5.557   5.398 -0.2768  0.6113 -0.6397
 9886TIP3   OH251148   2.301   1.427  17.224  0.0057  0.3791  0.4064
 9886TIP3    H151149   2.318   1.490  17.154 -0.3695 -0.7057 -0.6925
 9886TIP3    H251150   2.322   1.342  17.184  1.5654 -0.1053  2.2065
 9887TIP3   OH251151   2.616   4.011   2.155 -0.5596 -0.2168 -0.6363
 9887TIP3    H151152   2.582   4.080   2.212  1.5515  1.2790 -1.1327
 9887TIP3    H251153   2.648   3.944   2.215  0.6981  0.8828 -0.0448
 9888TIP3   OH251154   1.195   3.883  17.125  0.3674  0.0135  0.0886
 9888TIP3    H151155   1.270   3.845  17.171  0.6367  1.3176  0.7565
 9888TIP3    H251156   1.234   3.938  17.057  0.0547  1.3996  1.0052
 9889TIP3   OH251157   6.647   5.730   2.395 -1.0318 -1.2724  0.2361
 9889TIP3    H151158   6.567   5.752   2.445 -0.7578 -3.0255  1.4761
 9889TIP3    H251159   6.691   5.815   2.383 -3.5192 -0.1271 -1.2893
 9890TIP3   OH251160   6.789   1.184  14.827  0.0745 -0.1677 -0.4659
 9890TIP3    H151161   6.764   1.172  14.918  0.7317  0.0422 -0.2519
 9890TIP3    H251162   6.797   1.095  14.792  2.5697 -0.3483  0.4574
 9891TIP3   OH251163   5.148   1.875  12.864  0.0147 -0.0408 -0.2539
 9891TIP3    H151164   5.153   1.799  12.922 -1.6249 -0.0527 -0.1223
 9891TIP3    H251165   5.202   1.941  12.907  1.0346 -0.9503 -0.1127
 9892TIP3   OH251166   4.794   5.484   0.881  0.2829  0.3201  0.0793
 9892TIP3    H151167   4.887   5.462   0.883  0.1055 -0.3349  1.9612
 9892TIP3    H251168   4.756   5.419   0.822  1.0407  0.7195 -0.8615
 9893TIP3   OH251169   6.014   2.428  14.632  0.2853  0.0243  0.1253
 9893TIP3    H151170   5.947   2.416  14.699  1.3075 -3.1787  0.6834
 9893TIP3    H251171   6.091   2.460  14.679  0.6700 -1.1851  0.3429
 9894TIP3   OH251172   0.451   1.512   4.806  0.6317 -0.5939 -0.2461
 9894TIP3    H151173   0.379   1.572   4.791  1.1248  0.1592  0.3688
 9894TIP3    H251174   0.409   1.431   4.837  0.0613 -0.1317  0.1925
 9895TIP3   OH251175   2.534   2.587  13.439 -0.1253  0.3657  0.3967
 9895TIP3    H151176   2.463   2.649  13.457 -0.9198 -0.1004 -1.0783
 9895TIP3    H251177   2.571   2.617  13.356  2.5111  1.5914  1.9288
 9896TIP3   OH251178   4.201   2.232  13.684  0.2041  0.0851  0.6154
 9896TIP3    H151179   4.259   2.166  13.646  0.1855  0.3816  0.0650
 9896TIP3    H251180   4.203   2.215  13.778 -1.4279 -2.0391  0.3126
 9897TIP3   OH251181   5.689   5.507   4.099  0.3527  0.2904  0.2851
 9897TIP3    H151182   5.602   5.547   4.106  0.2952  0.4558 -1.2284
 9897TIP3    H251183   5.680   5.422   4.142 -0.1282  0.9634  1.5341
 9898TIP3   OH251184   3.642   6.134   0.467 -0.4111  0.5949  0.3841
 9898TIP3    H151185   3.726   6.144   0.423  0.4996  1.2281  2.2150
 9898TIP3    H251186   3.578   6.126   0.396  1.0891  0.9005 -1.0239
 9899TIP3   OH251187   5.020   3.839   4.178  0.8264  0.3414  0.3698
 9899TIP3    H151188   5.020   3.781   4.254  0.6519 -0.9275 -0.5900
 9899TIP3    H251189   5.096   3.811   4.128 -0.2104 -0.1768 -0.9367
 9900TIP3   OH251190   0.071   3.897  11.508  0.0691  0.5472  0.2956
 9900TIP3    H151191   0.125   3.926  11.434 -0.1863 -0.1859 -0.1892
 9900TIP3    H251192   0.020   3.824  11.473 -0.3028  0.4128  1.1057
 9901TIP3   OH251193   2.437   2.721   1.398 -0.2375  0.1456 -0.6053
 9901TIP3    H151194   2.382   2.689   1.326 -2.0502  0.0046  0.8034
 9901TIP3    H251195   2.465   2.808   1.370 -1.9251  0.5834 -0.9770
 9902TIP3   OH251196   4.198   4.922  11.704  0.2771 -0.1377  0.6714
 9902TIP3    H151197   4.280   4.918  11.655  1.0387  0.7411  1.8599
 9902TIP3    H251198   4.153   4.841  11.681  0.1504  0.7154 -2.2996
 9903TIP3   OH251199   2.341   6.481  13.084  0.5018 -1.0820 -0.4992
 9903TIP3    H151200   2.285   6.446  13.014 -1.1779  0.4175  0.0558
 9903TIP3    H251201   2.357   6.572  13.058 -0.1678 -0.5053  1.0914
 9904TIP3   OH251202   3.669   6.270   5.172 -0.4041  0.3688 -0.2794
 9904TIP3    H151203   3.756   6.289   5.207 -0.6832  1.2201 -0.0337
 9904TIP3    H251204   3.657   6.176   5.185  0.2975  0.3330  0.0968
 9905TIP3   OH251205   4.316   6.803   5.318 -0.1554 -0.1884 -0.1553
 9905TIP3    H151206   4.378   6.731   5.327  0.5361  0.4747  0.4283
 9905TIP3    H251207   4.251   6.787   5.386  1.1388  0.8696  1.3681
 9906TIP3   OH251208   3.704   1.671   4.597 -0.1439 -0.3177  0.3555
 9906TIP3    H151209   3.742   1.733   4.660 -1.3973 -1.7066  2.5235
 9906TIP3    H251210   3.770   1.665   4.528  2.2377 -0.3571  2.5370
 9907TIP3   OH251211   1.744   4.991   0.835  0.0439 -0.1206 -0.3231
 9907TIP3    H151212   1.799   4.944   0.772 -1.7134 -1.6822 -0.7461
 9907TIP3    H251213   1.655   4.974   0.805 -0.8341 -1.0924  2.7295
 9908TIP3   OH251214   0.115   0.475   3.713  0.4341  0.2593 -0.4143
 9908TIP3    H151215   0.111   0.430   3.798  2.1384  0.5310 -0.1736
 9908TIP3    H251216   0.206   0.504   3.706  0.1977  0.5951 -2.1604
 9909TIP3   OH251217   0.021   0.413   2.993 -0.0915 -0.3057 -0.5808
 9909TIP3    H151218  -0.074   0.413   2.987 -0.0256  0.6481 -1.6521
 9909TIP3    H251219   0.040   0.463   3.073 -0.5037 -1.3288  0.1724
 9910TIP3   OH251220   6.619   4.312  13.154  0.1422 -0.0270  0.0708
 9910TIP3    H151221   6.563   4.387  13.173 -0.4304 -0.8274  1.6268
 9910TIP3    H251222   6.558   4.244  13.123  0.3903 -0.5432  0.7090
 9911TIP3   OH251223   0.304   2.218   5.175  0.2835  0.1515  0.3081
 9911TIP3    H151224   0.314   2.124   5.162 -0.6139  0.0813  0.1150
 9911TIP3    H251225   0.393   2.253   5.162  0.6835 -0.6978  0.7300
 9912TIP3   OH251226   1.213   1.439   4.070  0.6023  0.5467 -0.1578
 9912TIP3    H151227   1.294   1.411   4.113  0.5754 -1.4763 -1.3802
 9912TIP3    H251228   1.149   1.372   4.094  0.4132 -0.2406 -2.7760
 9913TIP3   OH251229   2.126   6.271   5.335 -0.6151  0.2002  0.6512
 9913TIP3    H151230   2.090   6.360   5.328 -0.0915  0.3370 -0.4862
 9913TIP3    H251231   2.110   6.245   5.426 -1.0603  1.3361  0.9033
 9914TIP3   OH251232   3.838   4.082  13.165  0.3356  0.8576 -0.2709
 9914TIP3    H151233   3.884   3.997  13.164 -1.9789 -0.4356  0.3551
 9914TIP3    H251234   3.884   4.132  13.233  1.8687  0.2173 -0.7975
 9915TIP3   OH251235   0.520   2.695  13.659  0.3215 -0.1345  0.5220
 9915TIP3    H151236   0.500   2.734  13.574 -0.5694  0.0254  0.7949
 9915TIP3    H251237   0.438   2.701  13.708  0.1035 -2.5775  0.4913
 9916TIP3   OH251238   2.699   5.527   2.867 -0.0895  0.7928 -0.3321
 9916TIP3    H151239   2.679   5.618   2.844  0.9933  0.7830 -1.3689
 9916TIP3    H251240   2.659   5.476   2.796 -2.8898  0.2511  1.5383
 9917TIP3   OH251241   5.949   5.569   5.934  0.5217  0.2748  0.0899
 9917TIP3    H151242   5.864   5.613   5.941  1.5423  2.1807  1.0291
 9917TIP3    H251243   5.928   5.480   5.906 -1.7392  0.8778 -0.2377
 9918TIP3   OH251244   2.452   1.374  12.390  0.7070  1.0569 -0.3142
 9918TIP3    H151245   2.514   1.421  12.335  2.4655 -1.1111 -0.2783
 9918TIP3    H251246   2.381   1.437  12.407  2.4044  3.2614 -1.1747
 9919TIP3   OH251247   1.788   1.911   1.728  0.2575  0.2117  0.0549
 9919TIP3    H151248   1.756   2.001   1.720  0.5694  0.4049  0.9201
 9919TIP3    H251249   1.853   1.902   1.659 -0.4201  0.3657 -0.6032
 9920TIP3   OH251250   6.674   2.413   1.959 -0.1512 -0.1631 -0.3768
 9920TIP3    H151251   6.759   2.455   1.944 -1.1273  1.5931 -1.1486
 9920TIP3    H251252   6.694   2.319   1.963  1.7884  0.2092 -0.7265
 9921TIP3   OH251253   0.796   4.573  16.497  0.2747 -0.1738  0.0133
 9921TIP3    H151254   0.806   4.634  16.424  0.0167 -0.5325 -0.3227
 9921TIP3    H251255   0.851   4.499  16.473  0.7311  0.0024  0.5064
 9922TIP3   OH251256   2.141   2.876   4.069 -0.0594 -0.0350  0.4323
 9922TIP3    H151257   2.102   2.948   4.119 -0.1683 -0.8205  1.4922
 9922TIP3    H251258   2.067   2.840   4.019 -0.3030 -0.2936  0.9695
 9923TIP3   OH251259   2.183   2.213   4.298  0.7058 -0.2141 -0.5219
 9923TIP3    H151260   2.266   2.214   4.250  0.8152 -0.6938 -0.3425
 9923TIP3    H251261   2.127   2.275   4.250  1.0916 -0.0556 -0.7701
 9924TIP3   OH251262   2.036   6.798  12.156  0.2847 -0.6039 -0.5574
 9924TIP3    H151263   2.028   6.713  12.197  0.0075 -0.0170  0.6254
 9924TIP3    H251264   2.049   6.779  12.063 -0.2742 -1.9142 -0.3777
 9925TIP3   OH251265   6.104   3.185   5.104 -0.1624  0.1292 -0.5582
 9925TIP3    H151266   6.148   3.146   5.028 -0.1970 -0.0458 -0.4892
 9925TIP3    H251267   6.030   3.232   5.067 -0.8310 -0.8851 -0.5391
 9926TIP3   OH251268   6.179   3.228  11.308  0.4058 -0.0641 -0.2768
 9926TIP3    H151269   6.207   3.312  11.272  1.2510  0.2956  1.1703
 9926TIP3    H251270   6.261   3.184  11.330 -0.0950  0.1752  2.1905
 9927TIP3   OH251271   5.120   3.750  11.028  0.2884  0.4893  0.5442
 9927TIP3    H151272   5.030   3.766  10.999  0.6883  2.0369  0.0921
 9927TIP3    H251273   5.154   3.837  11.050  1.3642 -0.1837  1.6464
 9928TIP3   OH251274   5.880   2.527   2.335 -0.0310 -0.5895 -0.1777
 9928TIP3    H151275   5.810   2.533   2.270 -0.6410  0.5648  0.5588
 9928TIP3    H251276   5.841   2.563   2.415  0.8331 -1.6352  0.7229
 9929TIP3   OH251277   5.275   4.774   2.723 -0.6154 -0.0479 -0.2786
 9929TIP3    H151278   5.213   4.702   2.729 -1.2450  0.5088  0.0236
 9929TIP3    H251279   5.357   4.738   2.756  0.0817 -1.7094 -3.5955
 9930TIP3   OH251280   0.034   6.038  13.449  0.0189 -0.5130 -0.2983
 9930TIP3    H151281   0.122   6.039  13.411  0.2055 -1.1898  0.1108
 9930TIP3    H251282  -0.024   6.047  13.373  0.4440  0.3067 -0.5325
 9931TIP3   OH251283   0.717   6.477  17.223 -1.0228  0.4919  0.4225
 9931TIP3    H151284   0.778   6.514  17.160  0.2307 -1.3339  0.5286
 9931TIP3    H251285   0.643   6.538  17.224 -0.0462  1.7256 -1.1107
 9932TIP3   OH251286   0.726   6.107  16.216  0.1578 -0.0411 -0.6647
 9932TIP3    H151287   0.723   6.135  16.124  0.9737 -0.2926 -0.7762
 9932TIP3    H251288   0.652   6.152  16.257 -0.3596 -0.1157 -1.4955
 9933TIP3   OH251289   0.037   4.652  10.391  0.6636  0.5364  0.1084
 9933TIP3    H151290   0.085   4.702  10.458 -1.1829  1.4457  0.7957
 9933TIP3    H251291  -0.033   4.711  10.363 -0.5346 -1.0490 -0.2967
 9934TIP3   OH251292   3.126   5.906  10.560  0.1796  0.0704  0.2852
 9934TIP3    H151293   3.062   5.926  10.628  1.3661 -0.6701  1.6623
 9934TIP3    H251294   3.097   5.822  10.525 -1.3328  1.2056 -1.2546
 9935TIP3   OH251295   6.003   3.739   0.231 -0.0326 -0.4558  0.1879
 9935TIP3    H151296   6.012   3.805   0.163 -0.8877 -2.0352 -1.4775
 9935TIP3    H251297   6.073   3.760   0.293  1.0694  0.7021 -1.3971
 9936TIP3   OH251298   3.884   0.805  17.121 -0.1407  0.1536 -0.1131
 9936TIP3    H151299   3.795   0.770  17.133  0.6031 -1.8304 -0.1027
 9936TIP3    H251300   3.879   0.854  17.039 -0.8155 -1.5075 -1.0932
 9937TIP3   OH251301   1.170   2.404  12.624  0.0571  0.4704  0.2127
 9937TIP3    H151302   1.122   2.375  12.702 -1.1668  1.2375 -0.2381
 9937TIP3    H251303   1.261   2.379  12.641 -0.1882  0.6738  1.9204
 9938TIP3   OH251304   2.067   5.307  14.838 -0.1003  0.1689  0.5239
 9938TIP3    H151305   2.117   5.281  14.916  0.6390 -1.9812 -0.6386
 9938TIP3    H251306   1.986   5.256  14.844  0.4547 -0.8638 -0.6997
 9939TIP3   OH251307   5.061   2.718   2.605 -0.2718  0.5783  0.4952
 9939TIP3    H151308   5.153   2.732   2.581 -0.7959  0.2916 -1.8032
 9939TIP3    H251309   5.063   2.643   2.664  0.7326 -1.2480 -1.7885
 9940TIP3   OH251310   6.416   0.904  15.398  0.0080  0.7062  0.0377
 9940TIP3    H151311   6.357   0.861  15.460 -1.1944  0.5309 -1.2050
 9940TIP3    H251312   6.373   0.988  15.378 -0.1703  0.2921 -1.3771
 9941TIP3   OH251313   5.640   5.101  13.545  0.1126  0.7242  0.1157
 9941TIP3    H151314   5.732   5.118  13.522  1.1560 -0.5667  3.0476
 9941TIP3    H251315   5.615   5.176  13.599 -0.4839  0.9689 -0.5052
 9942TIP3   OH251316   3.739   6.368  13.613  0.6646 -0.3939  0.0777
 9942TIP3    H151317   3.723   6.372  13.519  2.2031  0.6977 -0.1514
 9942TIP3    H251318   3.678   6.431  13.650 -0.6131 -1.5116 -0.0783
 9943TIP3   OH251319   1.544   0.653  16.458  1.0376 -0.1059  0.0222
 9943TIP3    H151320   1.578   0.571  16.423  1.4653  0.1934 -0.2820
 9943TIP3    H251321   1.483   0.684  16.392  0.5828 -0.3725  0.3158
 9944TIP3   OH251322   5.860   0.816  15.424  0.4291  0.0444  0.9289
 9944TIP3    H151323   5.937   0.763  15.405  0.2258 -0.3013  1.0513
 9944TIP3    H251324   5.788   0.769  15.383  0.3835  0.7339  0.2171
 9945TIP3   OH251325   0.282   0.620  11.616  0.2200  0.0538  0.0712
 9945TIP3    H151326   0.295   0.647  11.525  0.3561 -1.0891 -0.2489
 9945TIP3    H251327   0.187   0.622  11.629  0.2042  0.2599 -0.0778
 9946TIP3   OH251328   2.919   0.560  17.151 -0.7977  0.3076  0.1704
 9946TIP3    H151329   2.862   0.595  17.082 -1.2762 -0.6811  0.0550
 9946TIP3    H251330   2.897   0.612  17.228 -0.6435  1.0593 -0.2826
 9947TIP3   OH251331   2.731   2.993  12.471 -0.2823  0.5597  0.1267
 9947TIP3    H151332   2.714   2.952  12.556  2.3624 -1.0765 -0.0688
 9947TIP3    H251333   2.767   3.079  12.493 -0.0329  0.3215  0.6633
 9948TIP3   OH251334   5.335   5.059  13.587 -0.1232 -0.8338  0.3049
 9948TIP3    H151335   5.417   5.017  13.561  0.8369  1.5566 -0.6872
 9948TIP3    H251336   5.273   5.036  13.518  1.1285  1.5033 -1.7068
 9949TIP3   OH251337   5.340   2.751   0.713  0.3254  0.1720  0.3656
 9949TIP3    H151338   5.325   2.712   0.627  1.3100  0.5539  0.0130
 9949TIP3    H251339   5.435   2.761   0.719  0.3604 -0.8634  1.9547
 9950TIP3   OH251340   2.190   1.117   2.869  0.4910  0.0934 -0.5517
 9950TIP3    H151341   2.125   1.093   2.936  1.5856 -1.0591  0.1154
 9950TIP3    H251342   2.142   1.113   2.786 -0.0493 -1.7516 -0.1651
 9951TIP3   OH251343   5.655   4.844  12.396 -0.2643  0.7662  0.4671
 9951TIP3    H151344   5.665   4.897  12.316  0.5225  1.7803  1.2219
 9951TIP3    H251345   5.740   4.801  12.406 -0.3606  0.6459  0.7558
 9952TIP3   OH251346   6.315   2.738  11.332 -0.3238  0.3682 -0.1069
 9952TIP3    H151347   6.394   2.743  11.386 -2.3801  1.2188  3.0091
 9952TIP3    H251348   6.329   2.803  11.263  1.4400  0.9890  0.7883
 9953TIP3   OH251349   0.068   5.276  16.399 -0.5830 -0.2315  0.4115
 9953TIP3    H151350  -0.016   5.323  16.402 -1.6156 -2.0762  1.1555
 9953TIP3    H251351   0.119   5.322  16.332 -1.6979  1.7085  0.8568
 9954TIP3   OH251352   1.656   1.091   2.402 -0.1558 -0.4128 -0.4691
 9954TIP3    H151353   1.694   1.004   2.398  1.5846  0.3805 -1.6959
 9954TIP3    H251354   1.660   1.115   2.495  1.7666 -0.5932 -0.4996
 9955TIP3   OH251355   5.316   4.240   2.309 -0.1886 -0.5696 -0.2566
 9955TIP3    H151356   5.266   4.235   2.228 -0.8553 -0.2866  0.1331
 9955TIP3    H251357   5.269   4.304   2.363  1.2508  0.6160 -0.3519
 9956TIP3   OH251358   3.639   5.682  16.992 -0.4102  0.1965  0.3830
 9956TIP3    H151359   3.572   5.681  17.060  0.1925 -1.9072  0.9839
 9956TIP3    H251360   3.719   5.707  17.037 -0.7244  2.5647 -0.3076
 9957TIP3   OH251361   6.418   1.175   3.184 -0.0677 -0.1779 -0.2169
 9957TIP3    H151362   6.452   1.229   3.114 -0.5204  0.6841  0.2118
 9957TIP3    H251363   6.333   1.215   3.206 -0.6295 -1.3400 -0.2155
 9958TIP3   OH251364   2.502   5.611  14.302 -0.6891 -0.6401 -0.1661
 9958TIP3    H151365   2.528   5.555  14.228  0.3626  0.7666 -0.8856
 9958TIP3    H251366   2.485   5.550  14.374 -1.4505 -2.0166 -1.4832
 9959TIP3   OH251367   6.759   3.654   5.023 -0.0151 -0.0716  0.0849
 9959TIP3    H151368   6.834   3.596   5.035 -0.2527 -0.4155 -0.0753
 9959TIP3    H251369   6.683   3.598   5.041 -0.3787 -0.4772 -2.4713
 9960TIP3   OH251370   2.300   4.421  13.864 -0.2287 -0.0796  0.1127
 9960TIP3    H151371   2.389   4.386  13.860 -0.2072  0.0582 -0.7332
 9960TIP3    H251372   2.301   4.481  13.939  0.7077  0.7716 -0.5629
 9961TIP3   OH251373   2.636   1.920  14.696 -0.3393 -0.4013  0.2929
 9961TIP3    H151374   2.676   1.892  14.778  1.8209  1.4346 -0.1042
 9961TIP3    H251375   2.677   2.004  14.676 -3.2355  0.7776 -0.9835
 9962TIP3   OH251376   6.095   0.139   1.674 -0.3322 -0.1092 -0.7521
 9962TIP3    H151377   6.157   0.172   1.739 -0.6028 -1.7596  0.3522
 9962TIP3    H251378   6.010   0.142   1.718 -0.5763 -0.8545 -1.1679
 9963TIP3   OH251379   4.637   6.292  15.204 -0.3699  0.5488  0.4250
 9963TIP3    H151380   4.585   6.239  15.143 -1.6244  0.5815  1.4247
 9963TIP3    H251381   4.628   6.382  15.172 -0.4990  0.4841  0.2826
 9964TIP3   OH251382   3.128   3.156   1.781 -0.3050 -0.0190 -0.1087
 9964TIP3    H151383   3.168   3.233   1.742  0.7742  0.5429  2.0506
 9964TIP3    H251384   3.192   3.086   1.768 -0.8810 -0.3647 -1.2211
 9965TIP3   OH251385   3.767   5.143   1.907 -0.3965 -0.3610  0.1219
 9965TIP3    H151386   3.697   5.193   1.865 -0.5377  0.7525  1.6490
 9965TIP3    H251387   3.779   5.067   1.851 -0.1365  1.4199 -2.2989
 9966TIP3   OH251388   4.847   2.860  15.811 -0.5649 -0.3131 -0.1965
 9966TIP3    H151389   4.938   2.844  15.834 -0.8563 -0.5394  0.7966
 9966TIP3    H251390   4.796   2.825  15.883 -1.3472  1.9012  0.3900
 9967TIP3   OH251391   2.510   0.004  12.624  0.3809 -0.2010  0.1429
 9967TIP3    H151392   2.595  -0.002  12.667 -0.6194  0.0921  2.2697
 9967TIP3    H251393   2.491   0.097  12.621 -0.1323 -0.2986  0.2643
 9968TIP3   OH251394   5.809   0.107   5.548 -0.4448  0.0676 -0.2944
 9968TIP3    H151395   5.756   0.184   5.563  1.8440  1.7735 -0.5932
 9968TIP3    H251396   5.825   0.107   5.453 -1.5871 -1.5709 -0.5012
 9969TIP3   OH251397   0.448   4.179   0.753  0.6865 -0.5028  0.7477
 9969TIP3    H151398   0.409   4.251   0.704  0.8410 -0.6637  0.3871
 9969TIP3    H251399   0.387   4.106   0.740  0.8663 -0.6211  0.5717
 9970TIP3   OH251400   6.801   6.107   3.076  0.0742  0.4353 -0.3853
 9970TIP3    H151401   6.779   6.016   3.057  2.2947 -0.3122  0.5065
 9970TIP3    H251402   6.803   6.150   2.990 -2.1009 -0.0637 -0.7164
 9971TIP3   OH251403   5.921   0.660   0.727 -0.2176 -0.0266  0.0100
 9971TIP3    H151404   5.919   0.631   0.818 -0.6713  0.5481  0.1884
 9971TIP3    H251405   6.004   0.707   0.719  0.3268 -1.0144 -0.1697
 9972TIP3   OH251406   1.206   5.164  10.313  0.0845  0.0542 -0.6004
 9972TIP3    H151407   1.118   5.154  10.276  0.2370 -1.5120 -0.5554
 9972TIP3    H251408   1.228   5.078  10.348  1.6957  0.4066 -0.7091
 9973TIP3   OH251409   2.177   1.423   2.017 -0.1806  0.1862  0.1688
 9973TIP3    H151410   2.163   1.329   2.015  0.9339  0.0172  0.1162
 9973TIP3    H251411   2.117   1.455   2.084 -0.2483 -0.6098  0.4894
 9974TIP3   OH251412   2.146   2.093   0.379  0.0865  0.3585  0.0021
 9974TIP3    H151413   2.166   2.154   0.309  0.7560  2.1291  1.7030
 9974TIP3    H251414   2.051   2.084   0.376  0.2321 -0.9040 -2.1751
 9975TIP3   OH251415   1.005   5.881  16.425 -0.1562 -0.2660 -0.4176
 9975TIP3    H151416   0.961   5.966  16.422 -1.0414 -0.6636  0.7553
 9975TIP3    H251417   0.950   5.823  16.374  0.5678 -0.0962 -1.4080
 9976TIP3   OH251418   1.861   0.877   0.812 -0.0012  0.2209  0.0388
 9976TIP3    H151419   1.868   0.782   0.802 -0.5460  0.1785  0.0919
 9976TIP3    H251420   1.942   0.911   0.773  0.8190 -0.3405  1.2428
 9977TIP3   OH251421   6.198   1.205   3.883 -0.1341 -0.1260  0.4877
 9977TIP3    H151422   6.131   1.242   3.940 -0.4219  0.5372 -0.2757
 9977TIP3    H251423   6.272   1.265   3.891 -0.2969  0.1567 -0.0945
 9978TIP3   OH251424   1.910   1.763  12.149 -0.0435 -0.1637  0.0487
 9978TIP3    H151425   1.985   1.784  12.093  1.8037 -1.2145  2.0473
 9978TIP3    H251426   1.909   1.834  12.214 -0.0038 -0.8053  0.7587
 9979TIP3   OH251427   3.826   6.515  11.024  0.8389 -0.0683  0.3864
 9979TIP3    H151428   3.886   6.558  10.963 -0.4258 -0.6197 -1.2815
 9979TIP3    H251429   3.739   6.545  10.998  0.2687 -0.3509  1.9017
 9980TIP3   OH251430   3.263   0.228   1.916 -0.2116  0.0649 -0.2993
 9980TIP3    H151431   3.246   0.135   1.928  0.1264 -0.1760 -1.5541
 9980TIP3    H251432   3.266   0.264   2.004 -0.6562 -1.0601  0.1803
 9981TIP3   OH251433   3.543   4.233   3.391 -0.2377 -0.0976  0.2344
 9981TIP3    H151434   3.603   4.220   3.319 -0.3890 -0.1238  0.1124
 9981TIP3    H251435   3.504   4.319   3.374 -0.6770 -0.3422 -0.0106
 9982TIP3   OH251436   0.851   3.813   0.149  0.1063 -0.5109 -0.3100
 9982TIP3    H151437   0.923   3.868   0.179 -0.4420  0.4785 -0.7965
 9982TIP3    H251438   0.872   3.794   0.058  0.2217 -1.0011 -0.1839
 9983TIP3   OH251439   3.145   4.668   4.004 -0.1679  0.5297  0.7281
 9983TIP3    H151440   3.084   4.651   4.075 -1.5112  0.2138 -0.4955
 9983TIP3    H251441   3.129   4.599   3.941 -0.0345  1.6785 -0.5774
 9984TIP3   OH251442   3.197   3.764   5.625  0.6213  0.1522  0.0332
 9984TIP3    H151443   3.275   3.819   5.617 -0.3208  1.5451  0.0932
 9984TIP3    H251444   3.127   3.826   5.650 -1.0719 -0.5806 -2.6398
 9985TIP3   OH251445   1.033   4.301   6.525 -0.0324  0.2190  0.4787
 9985TIP3    H151446   1.073   4.214   6.530  1.9721  1.1769  1.5911
 9985TIP3    H251447   1.100   4.356   6.485 -0.8026  1.5528  0.9817
 9986TIP3   OH251448   6.508   4.816   6.313 -0.1414  0.1691  0.6186
 9986TIP3    H151449   6.415   4.804   6.294 -0.5391  3.4981  0.2921
 9986TIP3    H251450   6.511   4.891   6.371  2.3256 -0.3664  1.2329
 9987TIP3   OH251451   3.855   5.398  12.521 -0.6795 -0.0719  0.1407
 9987TIP3    H151452   3.767   5.391  12.483 -0.3346  1.0317 -0.8663
 9987TIP3    H251453   3.880   5.489  12.509  0.5119 -0.3197  0.6558
 9988TIP3   OH251454   1.763   0.670   6.435  0.7061 -0.3710  0.4127
 9988TIP3    H151455   1.670   0.647   6.437  0.9143 -1.3706 -0.5256
 9988TIP3    H251456   1.768   0.757   6.473 -0.6519 -0.2082  0.2297
 9989TIP3   OH251457   3.864   0.194  11.175 -0.1323  0.0009  0.0872
 9989TIP3    H151458   3.773   0.167  11.187  0.1372 -0.3055  1.6420
 9989TIP3    H251459   3.899   0.132  11.111 -1.3183  0.8611 -1.4381
 9990TIP3   OH251460   1.805   4.203  16.864 -0.8611 -0.7748 -0.6012
 9990TIP3    H151461   1.827   4.121  16.907 -0.9175  0.0052  0.9620
 9990TIP3    H251462   1.819   4.187  16.771 -2.0673 -2.9231 -0.4368
 9991TIP3   OH251463   3.186   0.400   4.698  0.1768 -0.2161  0.3638
 9991TIP3    H151464   3.101   0.361   4.682 -0.0191 -0.5927  2.1745
 9991TIP3    H251465   3.219   0.424   4.612 -1.5401 -0.5276 -0.3875
 9992TIP3   OH251466   5.352   2.063   6.240  0.0826 -0.2058  0.0219
 9992TIP3    H151467   5.355   2.018   6.156  0.4899  1.8132 -1.0945
 9992TIP3    H251468   5.273   2.029   6.283 -1.1422  0.0198 -1.9542
 9993TIP3   OH251469   2.750   4.400   4.514  0.1602  0.2599  0.6429
 9993TIP3    H151470   2.776   4.333   4.451  0.1845  2.5851 -1.8889
 9993TIP3    H251471   2.826   4.410   4.571  0.9116 -0.3561 -0.2431
 9994TIP3   OH251472   2.384   3.717   5.876 -0.1101 -0.2834  0.0916
 9994TIP3    H151473   2.436   3.798   5.874  2.2502 -1.7638 -0.1223
 9994TIP3    H251474   2.409   3.671   5.796 -2.1005 -0.8517 -0.2190
 9995TIP3   OH251475   1.157   4.924  10.812 -0.4414  0.2153  0.0436
 9995TIP3    H151476   1.189   4.839  10.782  1.1095  0.0833  1.9865
 9995TIP3    H251477   1.172   4.982  10.737 -1.6357 -1.2107 -1.3457
 9996TIP3   OH251478   2.502   0.385   5.525  0.0410  0.7894  0.0018
 9996TIP3    H151479   2.421   0.417   5.485  0.8223  1.1424 -1.3659
 9996TIP3    H251480   2.532   0.317   5.465 -0.0609 -0.4691  1.3456
 9997TIP3   OH251481   4.989   1.410   0.289  0.3700  0.0503 -0.0897
 9997TIP3    H151482   5.054   1.438   0.353  0.1049  0.8819 -0.1784
 9997TIP3    H251483   4.965   1.321   0.317 -0.3035  0.6742  1.4257
 9998TIP3   OH251484   3.840   4.089  15.664 -0.7967  0.5728 -0.1175
 9998TIP3    H151485   3.825   4.183  15.670 -1.0089  0.5067  0.4370
 9998TIP3    H251486   3.910   4.072  15.727  0.4080  0.6086 -1.4102
 9999TIP3   OH251487   3.343   2.263   0.407 -0.0126  0.5598 -0.0021
 9999TIP3    H151488   3.389   2.336   0.449  0.6501 -0.3862  0.9406
 9999TIP3    H251489   3.263   2.252   0.458 -0.5625  1.2024 -0.7029
10000TIP3   OH251490   5.880   5.030   5.997 -0.5759  0.0099 -0.0310
10000TIP3    H151491   5.786   5.043   6.010 -0.4981  0.6979 -0.1396
10000TIP3    H251492   5.906   4.972   6.068 -1.1176 -0.3164 -0.0997
10001TIP3   OH251493   3.806   5.347  15.792  0.1989 -0.5132 -0.2697
10001TIP3    H151494   3.760   5.415  15.841  1.7053 -0.3712  0.9558
10001TIP3    H251495   3.736   5.302  15.744 -0.8814  1.5202 -0.6724
10002TIP3   OH251496   5.744   1.459   4.959  0.1866 -0.0050  0.1795
10002TIP3    H151497   5.695   1.380   4.936  0.3361 -0.3408  0.9774
10002TIP3    H251498   5.678   1.521   4.989  0.1940 -0.3245  0.8856
10003TIP3   OH251499   3.792   5.809   0.328 -0.1861  0.4107 -0.2805
10003TIP3    H151500   3.721   5.818   0.263 -1.3568  1.5670  1.1236
10003TIP3    H251501   3.866   5.777   0.277 -1.3784  0.2856 -2.0113
10004TIP3   OH251502   1.672   3.570   0.518 -0.4961 -0.3075  0.0934
10004TIP3    H151503   1.688   3.500   0.455  1.3065 -0.1048  0.3095
10004TIP3    H251504   1.740   3.634   0.500 -0.2418 -0.0346  1.9593
10005TIP3   OH251505   1.962   6.258   0.475 -0.9617  0.6764 -0.2040
10005TIP3    H151506   2.017   6.279   0.551 -1.2958  0.9160 -0.0267
10005TIP3    H251507   1.872   6.265   0.508 -1.1216  1.5226 -0.8092
10006TIP3   OH251508   2.257   6.033  13.710 -0.4549  0.4066 -0.3608
10006TIP3    H151509   2.326   6.091  13.741 -0.2920 -0.3211  0.6766
10006TIP3    H251510   2.227   5.987  13.789 -0.4415 -1.0479 -1.1865
10007TIP3   OH251511   3.272   0.862  14.795 -0.1306  0.2619  0.0967
10007TIP3    H151512   3.194   0.808  14.776 -1.3606  1.7421  0.8153
10007TIP3    H251513   3.344   0.813  14.756 -1.0699 -2.3361  1.4265
10008TIP3   OH251514   3.001   6.204  17.225 -0.1156  0.1080 -0.0874
10008TIP3    H151515   3.005   6.188  17.130  0.4124  1.8149 -0.3808
10008TIP3    H251516   2.917   6.249  17.237 -1.0251 -1.7277  0.5314
10009TIP3   OH251517   2.865   6.090  15.306  0.4125  0.0639 -0.1636
10009TIP3    H151518   2.853   5.996  15.291 -0.1119  0.1467 -0.2840
10009TIP3    H251519   2.804   6.131  15.245  0.1888  0.4648  0.3302
10010TIP3   OH251520   4.018   3.022   1.237 -0.0928  0.0725 -0.6616
10010TIP3    H151521   3.960   3.062   1.173 -0.4293 -0.4100 -0.6680
10010TIP3    H251522   4.057   3.095   1.284 -1.0536  0.3958 -0.3541
10011TIP3   OH251523   4.216   6.249   4.101  0.1831  0.0027 -0.0225
10011TIP3    H151524   4.203   6.339   4.070 -1.0337  0.3238  1.3439
10011TIP3    H251525   4.297   6.252   4.153  1.0357 -0.0605 -1.3405
10012TIP3   OH251526   5.720   3.274  16.872  0.6938 -0.1314 -0.3275
10012TIP3    H151527   5.722   3.330  16.949  2.4188  0.6850 -0.9302
10012TIP3    H251528   5.629   3.275  16.843  0.0397 -0.4587  1.6939
10013TIP3   OH251529   5.034   1.997  14.112  0.0235 -0.3517  0.4156
10013TIP3    H151530   4.997   1.924  14.062 -2.7275  1.2853 -0.0416
10013TIP3    H251531   5.049   1.961  14.199 -0.4230 -1.7005 -0.0500
10014TIP3   OH251532   4.525   3.816  16.736  0.0430  0.1858 -0.0533
10014TIP3    H151533   4.505   3.829  16.828  0.6550  0.5287  0.0315
10014TIP3    H251534   4.584   3.888  16.713 -2.0537  1.5496 -1.3481
10015TIP3   OH251535   3.009   1.453  15.027 -0.1489  0.1995  0.0995
10015TIP3    H151536   3.082   1.400  15.060 -0.6253  0.7969  2.1691
10015TIP3    H251537   3.050   1.515  14.966  0.4250 -2.4249 -2.2891
10016TIP3   OH251538   2.481   0.944   0.403 -0.3837 -0.3492  0.5442
10016TIP3    H151539   2.418   0.877   0.374  0.0415 -0.3267 -0.4599
10016TIP3    H251540   2.471   1.015   0.339 -0.4813  0.3354  1.3212
10017TIP3   OH251541   6.070   0.927  11.478 -0.7353 -0.9729 -0.1877
10017TIP3    H151542   5.988   0.974  11.466 -0.9738 -1.2145  0.4489
10017TIP3    H251543   6.119   0.941  11.397 -1.7035 -1.4162 -0.8595
10018TIP3   OH251544   4.671   3.780   5.766  0.1546 -0.5872  0.5377
10018TIP3    H151545   4.663   3.738   5.852 -1.2474 -0.5742  0.4351
10018TIP3    H251546   4.636   3.868   5.779 -2.2500 -1.3280 -0.5556
10019TIP3   OH251547   5.979   5.486  11.893 -0.0581  0.1582 -0.1174
10019TIP3    H151548   6.006   5.568  11.852 -0.8036  0.1830 -0.5603
10019TIP3    H251549   5.899   5.461  11.847 -1.0782  0.3441  1.5483
10020TIP3   OH251550   0.226   2.900   2.713  0.0337  0.0368  0.1544
10020TIP3    H151551   0.181   2.821   2.742 -1.9426  0.6889 -1.0351
10020TIP3    H251552   0.300   2.868   2.661 -0.7919 -1.0321 -0.3761
10021TIP3   OH251553   5.517   4.017   4.353  0.0897 -0.5109 -0.2052
10021TIP3    H151554   5.573   3.943   4.332 -0.2514 -0.8489  0.0756
10021TIP3    H251555   5.431   3.978   4.370  0.0724 -0.1187  0.5975
10022TIP3   OH251556   2.118   4.041  16.695 -0.7989 -0.2867 -0.0626
10022TIP3    H151557   2.200   4.000  16.669 -0.9988 -0.3420 -0.6255
10022TIP3    H251558   2.098   4.101  16.623 -0.9387  0.1795  0.3587
10023TIP3   OH251559   3.016   0.081  10.483 -0.0501 -0.2666  0.5674
10023TIP3    H151560   2.930   0.096  10.442  0.3003  0.5628  0.1174
10023TIP3    H251561   3.007  -0.003  10.527 -0.5278 -1.0417 -0.9862
10024TIP3   OH251562   6.311   6.558  14.258 -0.1501  0.2735 -0.1748
10024TIP3    H151563   6.265   6.589  14.181  1.6049  0.2686 -1.2499
10024TIP3    H251564   6.390   6.612  14.262 -0.1979  0.2408  1.5914
10025TIP3   OH251565   0.615   5.319   4.967 -0.6397 -0.4177  0.1255
10025TIP3    H151566   0.633   5.344   5.058 -0.9687 -3.3947  1.0636
10025TIP3    H251567   0.624   5.224   4.966 -1.9211 -0.5653 -2.6751
10026TIP3   OH251568   5.551   0.730   4.875  0.0963  0.2243 -0.3228
10026TIP3    H151569   5.498   0.669   4.824 -1.8782  2.1378 -0.6738
10026TIP3    H251570   5.520   0.720   4.965  0.9256 -0.4638 -0.1142
10027TIP3   OH251571   3.116   3.095   2.655  0.2504 -0.1070  0.8608
10027TIP3    H151572   3.126   3.063   2.745  1.0936  0.6171  1.0444
10027TIP3    H251573   3.135   3.189   2.662  3.1434 -0.5266 -0.5109
10028TIP3   OH251574   4.891   3.097   3.872  0.3341  0.4533 -0.2177
10028TIP3    H151575   4.838   3.176   3.866  1.7272  1.6793  2.6355
10028TIP3    H251576   4.955   3.105   3.801  1.9866  3.1338  1.4892
10029TIP3   OH251577   4.494   5.739   5.042 -0.4303 -0.3640 -0.0999
10029TIP3    H151578   4.513   5.780   4.958  1.9108 -1.0189  0.0865
10029TIP3    H251579   4.467   5.812   5.098  0.6684  0.4722 -0.6491
10030TIP3   OH251580   0.114   3.419   0.047 -0.1086  0.8286  0.6944
10030TIP3    H151581   0.086   3.471  -0.028  1.4925 -0.1411 -0.6170
10030TIP3    H251582   0.208   3.439   0.055  0.7709 -2.5558 -0.4476
10031TIP3   OH251583   6.635   4.186   2.664 -0.5021  0.3167  1.1783
10031TIP3    H151584   6.569   4.155   2.727  0.6059  1.1063  2.7570
10031TIP3    H251585   6.696   4.238   2.716  0.5930  0.7883 -0.5184
10032TIP3   OH251586   4.578   3.388  11.527  0.1239  0.0721  0.8062
10032TIP3    H151587   4.673   3.387  11.517  0.0490 -0.0335  0.0634
10032TIP3    H251588   4.545   3.354  11.444 -0.4942 -1.9594  1.8455
10033TIP3   OH251589   6.030   1.735   5.830 -0.1386  0.0151  0.0420
10033TIP3    H151590   6.096   1.680   5.872 -0.7771 -0.1000  0.9030
10033TIP3    H251591   6.080   1.802   5.783  0.5843  0.2135  1.0826
10034TIP3   OH251592   1.712   1.623   2.921  0.0041 -0.7198  0.5259
10034TIP3    H151593   1.710   1.533   2.891  0.7455 -0.4722 -0.2860
10034TIP3    H251594   1.651   1.669   2.864  0.8310 -0.4013 -0.1159
10035TIP3   OH251595   4.326   4.906   3.881 -0.0468 -0.1292 -0.3247
10035TIP3    H151596   4.300   4.881   3.970 -1.7433  1.0859 -0.4621
10035TIP3    H251597   4.399   4.967   3.894  0.4504 -0.8105  0.1757
10036TIP3   OH251598   4.578   6.002   3.199 -0.5656  0.4222  0.9421
10036TIP3    H151599   4.553   5.950   3.122 -0.1751  1.4294  0.1168
10036TIP3    H251600   4.496   6.039   3.231 -0.6444  0.5497  0.5964
10037TIP3   OH251601   3.854   2.986   2.645 -0.2554 -0.1317 -0.3784
10037TIP3    H151602   3.767   2.950   2.626 -1.3149  2.6981 -1.1219
10037TIP3    H251603   3.844   3.025   2.732  0.4912 -0.4089 -0.1673
10038TIP3   OH251604   5.352   2.596   4.954  0.0490 -0.6001  0.3143
10038TIP3    H151605   5.272   2.576   5.003 -0.1291  0.7876  0.6143
10038TIP3    H251606   5.342   2.688   4.929  1.4640 -0.4770  0.1729
10039TIP3   OH251607   6.081   2.365  15.011  0.2073 -0.9866  0.1030
10039TIP3    H151608   6.089   2.450  14.967  0.7913 -1.3820 -0.5612
10039TIP3    H251609   6.003   2.374  15.066 -0.3390 -0.3720 -0.7616
10040TIP3   OH251610   5.780   5.131  11.646  0.3449 -0.1699 -0.1151
10040TIP3    H151611   5.746   5.071  11.579  1.9988 -1.6394  0.3388
10040TIP3    H251612   5.867   5.097  11.667  1.7044  2.9169 -0.5082
10041TIP3   OH251613   2.529   5.048   1.163 -0.1971  0.2798  0.3084
10041TIP3    H151614   2.529   5.013   1.074  1.7719  0.4216  0.2450
10041TIP3    H251615   2.571   5.133   1.156 -0.6506  0.6021  1.2748
10042TIP3   OH251616   4.508   2.350  13.557 -0.6443 -0.1634  0.2936
10042TIP3    H151617   4.510   2.390  13.644 -0.7467 -0.8692  0.6215
10042TIP3    H251618   4.470   2.264  13.571  0.8973 -0.9386 -0.1883
10043TIP3   OH251619   3.192   2.703  16.108 -0.3478 -0.7169 -0.4299
10043TIP3    H151620   3.138   2.781  16.121 -2.3270 -1.5773 -3.2032
10043TIP3    H251621   3.260   2.732  16.047 -1.0253 -1.1044 -1.3825
10044TIP3   OH251622   2.222   6.650  13.797 -0.5068  0.3626 -0.1273
10044TIP3    H151623   2.279   6.573  13.794 -0.9005  0.1298 -2.0798
10044TIP3    H251624   2.162   6.632  13.869  0.0343 -0.7091  0.0690
10045TIP3   OH251625   3.082   2.504  11.864  0.0939  0.7893  0.1302
10045TIP3    H151626   3.168   2.468  11.886  0.5938  2.4180  1.0187
10045TIP3    H251627   3.099   2.567  11.794 -0.2315  1.6898  0.8379
10046TIP3   OH251628   4.051   5.891  14.197  0.2234 -0.3918 -0.1642
10046TIP3    H151629   4.142   5.866  14.183  0.0324 -1.3566  0.3127
10046TIP3    H251630   4.011   5.885  14.110  1.0374  1.8627 -0.7427
10047TIP3   OH251631   1.668   3.506   2.668 -0.3596 -0.1815  0.0289
10047TIP3    H151632   1.586   3.471   2.700 -0.2925 -0.4145 -0.0539
10047TIP3    H251633   1.692   3.450   2.594 -1.0585  1.0011 -1.1284
10048TIP3   OH251634   6.306   1.554   5.716 -0.1943  0.1601 -0.0723
10048TIP3    H151635   6.305   1.460   5.735  2.6405 -0.0081 -0.5552
10048TIP3    H251636   6.331   1.595   5.799 -3.3803  0.7040  0.6895
10049TIP3   OH251637   6.506   5.298  14.056 -0.2358 -0.1366  0.3027
10049TIP3    H151638   6.561   5.244  14.113 -0.2355 -0.1719  0.2692
10049TIP3    H251639   6.417   5.277  14.083 -0.2797 -1.0451 -0.5125
10050TIP3   OH251640   5.668   5.471  14.617 -0.4351  0.3186 -0.3282
10050TIP3    H151641   5.597   5.518  14.574  0.1821  1.3007 -0.2970
10050TIP3    H251642   5.675   5.513  14.703  1.5382  1.6352 -1.0982
10051TIP3   OH251643   4.715   2.855  13.246  0.0498 -0.5119 -0.5946
10051TIP3    H151644   4.767   2.849  13.326  0.8590 -0.7500 -1.1258
10051TIP3    H251645   4.626   2.833  13.272  0.3930 -1.0124  0.1524
10052TIP3   OH251646   1.094   6.296   2.540  0.1569 -0.4242  0.0816
10052TIP3    H151647   1.081   6.201   2.545  0.0605 -0.4715 -0.8829
10052TIP3    H251648   1.104   6.313   2.446  1.4825  0.3470  0.3468
10053TIP3   OH251649   6.579   0.436  12.633 -0.3524 -0.0141 -0.2130
10053TIP3    H151650   6.654   0.451  12.691 -0.2423 -0.7491 -0.1623
10053TIP3    H251651   6.564   0.521  12.591 -0.1389  0.3969  0.5400
10054TIP3   OH251652   2.397   5.639   0.511  0.2733  0.2446  0.3256
10054TIP3    H151653   2.429   5.559   0.470  0.5439 -0.0058  1.0174
10054TIP3    H251654   2.411   5.707   0.445 -0.2092 -0.3241 -0.3598
10055TIP3   OH251655   2.744   6.536   2.882 -0.4326  0.0479 -0.2259
10055TIP3    H151656   2.699   6.506   2.802  0.0380 -2.6006  0.4469
10055TIP3    H251657   2.672   6.560   2.941 -0.8489  0.1686 -0.7728
10056TIP3   OH251658   0.217   0.613  16.990  0.2721  0.0464 -0.0291
10056TIP3    H151659   0.265   0.565  16.922  0.1356 -0.9625  0.5767
10056TIP3    H251660   0.200   0.547  17.058 -0.4015  0.8284  0.5645
10057TIP3   OH251661   0.505   4.079  14.450 -0.7825  0.9804 -0.3466
10057TIP3    H151662   0.497   4.150  14.387 -1.9986  0.7396 -0.4805
10057TIP3    H251663   0.432   4.091  14.510 -0.6398  0.2080 -0.0059
10058TIP3   OH251664   2.608   5.897  12.810  0.2024  0.4810 -0.4335
10058TIP3    H151665   2.559   5.965  12.856 -0.7986 -1.9286  2.1521
10058TIP3    H251666   2.696   5.901  12.848  0.0182  0.0458  0.0454
10059TIP3   OH251667   0.172   3.712  11.868 -0.0502  0.5092  0.0282
10059TIP3    H151668   0.138   3.627  11.840 -0.9938  0.6278  0.8082
10059TIP3    H251669   0.188   3.759  11.786  0.6612 -0.4839 -0.4167
10060TIP3   OH251670   4.516   2.877  15.373  0.2259  0.1123 -0.0659
10060TIP3    H151671   4.516   2.954  15.316 -0.7081  0.1939  0.0467
10060TIP3    H251672   4.588   2.894  15.435  0.0458  0.8848 -0.0614
10061TIP3   OH251673   5.967   2.027   6.616  0.4348 -0.7025 -0.0641
10061TIP3    H151674   6.012   1.944   6.598  1.2828 -0.0972 -0.7870
10061TIP3    H251675   5.941   2.059   6.530  0.1366 -0.2056  0.2130
10062TIP3   OH251676   1.055   2.977   3.601 -0.1567  0.4084  0.9797
10062TIP3    H151677   1.048   3.047   3.536  2.0046 -1.4258 -1.2939
10062TIP3    H251678   1.103   3.018   3.674  0.1320  1.5918  0.1429
10063TIP3   OH251679   6.129   4.524  13.444  0.1840 -0.3258  0.3683
10063TIP3    H151680   6.218   4.557  13.433 -0.2615  0.6691 -0.3901
10063TIP3    H251681   6.129   4.481  13.529  1.8402 -1.8447 -0.3922
10064TIP3   OH251682   3.708   0.323  12.614  0.2401  0.2130  0.4471
10064TIP3    H151683   3.728   0.279  12.531  1.8190  0.9736  0.3884
10064TIP3    H251684   3.762   0.277  12.678 -0.4883  0.0450  0.9356
10065TIP3   OH251685   6.050   3.628  16.102  0.1965  0.6159  0.4837
10065TIP3    H151686   5.999   3.613  16.181  1.1232 -0.8734  0.8124
10065TIP3    H251687   6.012   3.571  16.036 -0.1498  1.3600  0.0259
10066TIP3   OH251688   5.661   3.728   5.314  0.3578  0.0899 -0.0207
10066TIP3    H151689   5.647   3.758   5.224 -0.0752  0.5985  0.2136
10066TIP3    H251690   5.647   3.633   5.310  1.8547 -0.1151 -0.7879
10067TIP3   OH251691   4.398   0.249   6.020 -0.0779 -0.3608  0.4433
10067TIP3    H151692   4.312   0.209   6.033  0.0773 -0.6530  0.5964
10067TIP3    H251693   4.458   0.189   6.064  0.3758 -0.9421 -0.9197
10068TIP3   OH251694   5.473   5.924  14.972 -0.0212 -0.2501 -0.1379
10068TIP3    H151695   5.418   5.929  15.049 -1.9602 -2.2149 -1.3427
10068TIP3    H251696   5.549   5.872  15.000 -1.2492 -1.9110  0.1496
10069TIP3   OH251697   1.381   3.043  16.561  0.1462  0.0319  0.2758
10069TIP3    H151698   1.467   3.078  16.584  1.5631 -0.5016 -3.7656
10069TIP3    H251699   1.322   3.118  16.565  1.2364  0.8583  0.8995
10070TIP3   OH251700   5.120   3.581   2.754 -0.2018  0.5686 -0.3315
10070TIP3    H151701   5.117   3.621   2.841 -0.0657 -0.7683  0.2932
10070TIP3    H251702   5.028   3.563   2.733 -0.1735  0.1732 -0.1243
10071TIP3   OH251703   5.614   1.760   2.802 -0.1981 -0.3706  0.0858
10071TIP3    H151704   5.632   1.832   2.862 -0.2990  1.2566 -1.8050
10071TIP3    H251705   5.558   1.701   2.851  1.4982 -0.1742  2.3577
10072TIP3   OH251706   5.597   6.621   0.664  0.0204 -0.1380  0.3652
10072TIP3    H151707   5.554   6.648   0.745 -0.5413  1.3271 -0.3975
10072TIP3    H251708   5.683   6.588   0.692  0.5277  1.9831  1.4401
10073TIP3   OH251709   5.077   4.786   3.886  0.2285  0.3091  0.2134
10073TIP3    H151710   5.017   4.713   3.904 -0.2908 -0.0011 -2.6310
10073TIP3    H251711   5.032   4.840   3.823  1.4933  2.0243  0.7400
10074TIP3   OH251712   5.546   3.612  12.161  0.3541 -0.4479 -0.4506
10074TIP3    H151713   5.575   3.626  12.251  0.4279 -0.9791 -0.3875
10074TIP3    H251714   5.479   3.545  12.167  0.8382 -0.9816 -0.8589
10075TIP3   OH251715   4.265   1.329  12.818  0.0344 -0.0546 -0.0387
10075TIP3    H151716   4.246   1.262  12.753 -1.2725  0.4913 -0.2409
10075TIP3    H251717   4.361   1.327  12.828  0.2159 -0.4079 -1.6872
10076TIP3   OH251718   2.352   6.169  14.110 -0.2853 -0.0224 -0.3441
10076TIP3    H151719   2.408   6.131  14.178 -0.3681 -1.9524 -1.3054
10076TIP3    H251720   2.307   6.242  14.154 -0.6688 -1.4841  1.7901
10077TIP3   OH251721   4.271   3.277   4.023 -0.4659 -0.1829 -0.6571
10077TIP3    H151722   4.232   3.364   4.036 -0.6658 -0.7132  2.6494
10077TIP3    H251723   4.202   3.216   4.049  1.0150 -1.2389  0.8582
10078TIP3   OH251724   2.099   1.542   4.560  0.2758 -0.1554 -0.1131
10078TIP3    H151725   2.056   1.612   4.511  0.5587 -0.3058 -0.5744
10078TIP3    H251726   2.046   1.532   4.639  0.1570  0.4905 -0.1096
10079TIP3   OH251727   4.767   5.440   6.687 -0.0511  0.3632 -0.8079
10079TIP3    H151728   4.742   5.532   6.680  1.2483  0.6925 -1.3302
10079TIP3    H251729   4.767   5.423   6.781  0.9428  1.2682 -0.6290
10080TIP3   OH251730   5.413   4.348   3.509 -0.1416 -0.1119  0.1584
10080TIP3    H151731   5.455   4.395   3.581 -0.4979  0.9672 -0.3315
10080TIP3    H251732   5.458   4.381   3.431 -0.6537 -0.3064 -0.2150
10081TIP3   OH251733   2.535   0.515  17.292 -0.2809 -0.4112 -0.4374
10081TIP3    H151734   2.451   0.555  17.313 -1.0896 -0.5704 -3.1411
10081TIP3    H251735   2.526   0.486  17.201  1.5148 -3.5444  0.3045
10082TIP3   OH251736   0.587   6.046  13.015 -0.6483  0.5349 -0.8647
10082TIP3    H151737   0.531   6.077  13.086 -0.8581  1.1857 -1.3096
10082TIP3    H251738   0.538   5.976  12.974 -0.1175 -0.5022  0.2287
10083TIP3   OH251739   5.143   5.691   5.472  0.0744  0.4091  0.3012
10083TIP3    H151740   5.077   5.745   5.516  0.9697 -0.1969  2.4432
10083TIP3    H251741   5.122   5.601   5.498  1.4511  0.1745  0.6678
10084TIP3   OH251742   1.532   2.278  11.371 -0.2875  0.0848 -0.1479
10084TIP3    H151743   1.438   2.263  11.385  0.2099 -1.8821  1.2302
10084TIP3    H251744   1.549   2.362  11.415 -1.4039  0.4934 -0.4675
10085TIP3   OH251745   5.636   3.647   0.452  0.3614 -0.2226 -0.1449
10085TIP3    H151746   5.706   3.642   0.517 -0.4282 -3.3339  0.5197
10085TIP3    H251747   5.561   3.680   0.502  0.3687 -0.3583 -0.0454
10086TIP3   OH251748   5.588   2.949  17.009  0.4913  0.2146  0.7721
10086TIP3    H151749   5.562   3.035  16.976 -0.8014 -0.0359  1.1179
10086TIP3    H251750   5.588   2.959  17.105 -1.6203 -0.6981  0.8975
10087TIP3   OH251751   3.888   2.942   5.155 -0.4271  0.1330  0.6651
10087TIP3    H151752   3.910   2.969   5.066  1.2068  0.4514  1.1560
10087TIP3    H251753   3.849   2.855   5.145  2.3184 -1.0478 -0.1033
10088TIP3   OH251754   0.806   4.083   5.243  0.1655 -0.1717 -0.2020
10088TIP3    H151755   0.855   4.088   5.161 -0.8114  1.7373 -0.7113
10088TIP3    H251756   0.767   3.996   5.242  0.6384 -0.3833 -1.5045
10089TIP3   OH251757   6.618   0.581  16.569  0.1882 -0.2510 -0.3618
10089TIP3    H151758   6.583   0.521  16.502  0.1557 -0.8928  0.2282
10089TIP3    H251759   6.558   0.656  16.568 -0.1463 -0.5211 -0.6409
10090TIP3   OH251760   1.116   4.281   3.537  0.3329 -0.3652 -0.5812
10090TIP3    H151761   1.038   4.236   3.505 -0.0292  1.1881 -1.9749
10090TIP3    H251762   1.139   4.342   3.467  1.4055  0.8818  0.8080
10091TIP3   OH251763   3.603   6.799   5.958 -0.0858  0.1717  0.3159
10091TIP3    H151764   3.530   6.850   5.921 -0.7312 -1.0154 -0.0693
10091TIP3    H251765   3.680   6.854   5.942 -0.7799  1.0774 -0.0057
10092TIP3   OH251766   2.803   2.220   5.081  0.2207 -0.1235  0.2333
10092TIP3    H151767   2.861   2.277   5.031 -0.3026 -0.1270 -0.3808
10092TIP3    H251768   2.733   2.197   5.020  1.2213 -2.6549 -0.0042
10093TIP3   OH251769   0.150   0.614   5.080  0.3742 -0.2889  0.2571
10093TIP3    H151770   0.101   0.583   5.004  1.7403  1.7098 -1.4996
10093TIP3    H251771   0.115   0.702   5.097  1.7300  0.2231  0.4464
10094TIP3   OH251772   1.970   1.687  14.107  0.1552 -0.4467 -0.3780
10094TIP3    H151773   1.886   1.642  14.104 -0.5264  0.8369 -1.2112
10094TIP3    H251774   1.958   1.754  14.175  0.8095 -0.8316  0.1244
10095TIP3   OH251775   6.360   5.416  16.226  0.4026 -0.4009 -0.2731
10095TIP3    H151776   6.364   5.401  16.131  0.1534 -0.5257 -0.2671
10095TIP3    H251777   6.284   5.365  16.255  0.4742 -0.3560 -0.0080
10096TIP3   OH251778   5.990   2.539   1.024  0.4395 -0.4413  0.8442
10096TIP3    H151779   5.947   2.615   1.062  0.0601  0.1500 -0.7345
10096TIP3    H251780   5.958   2.465   1.076 -4.8776 -0.4162 -1.9976
10097TIP3   OH251781   2.361   0.559  13.760  0.0093 -0.0220  0.4771
10097TIP3    H151782   2.408   0.627  13.711 -1.0255  0.8097  0.6165
10097TIP3    H251783   2.420   0.483  13.759  0.9471  0.7053 -0.1396
10098TIP3   OH251784   6.053   3.704   3.303  0.3078  0.0529 -0.4464
10098TIP3    H151785   6.054   3.789   3.347  0.8333 -0.5111  0.6236
10098TIP3    H251786   6.084   3.723   3.214  0.8206  0.9121 -0.0877
10099TIP3   OH251787   4.128   0.002   4.014 -0.4964 -0.3095 -0.2924
10099TIP3    H151788   4.136   0.000   3.918 -1.5651  0.2669 -0.4030
10099TIP3    H251789   4.104  -0.087   4.038  1.0105 -0.7731 -0.4305
10100TIP3   OH251790   2.931   1.273  16.925 -0.1318 -0.9628  0.0997
10100TIP3    H151791   2.843   1.240  16.908 -0.0351 -0.0521 -2.2992
10100TIP3    H251792   2.982   1.248  16.848  0.6092  2.3161 -0.5538
10101TIP3   OH251793   1.916   5.608   2.548  0.2132  0.4589  0.1981
10101TIP3    H151794   1.913   5.704   2.541 -0.4659  0.4199 -0.1135
10101TIP3    H251795   1.866   5.589   2.628 -3.2269  0.1434 -1.9020
10102TIP3   OH251796   3.915   1.995  15.086  0.3964  0.0825 -0.7108
10102TIP3    H151797   3.996   2.028  15.048  0.1636 -0.3003 -1.5400
10102TIP3    H251798   3.943   1.949  15.165  1.0272 -0.3861 -1.2033
10103TIP3   OH251799   6.515   0.674  17.041  0.2641  0.2418 -0.1420
10103TIP3    H151800   6.467   0.744  16.998 -4.0202 -1.1097  2.1562
10103TIP3    H251801   6.554   0.716  17.118  1.3661  0.9781 -1.0886
10104TIP3   OH251802   5.923   4.612  13.294 -0.9386 -0.1905  0.6903
10104TIP3    H151803   6.005   4.580  13.333  0.1043 -0.9427 -2.0177
10104TIP3    H251804   5.855   4.560  13.336  0.3853 -3.0305 -0.5137
10105TIP3   OH251805   4.318   1.239   0.674 -0.8481 -0.6768 -0.3897
10105TIP3    H151806   4.401   1.206   0.710 -0.2201  1.1692 -0.0677
10105TIP3    H251807   4.312   1.198   0.588 -0.4591 -2.1720  0.2794
10106TIP3   OH251808   6.450   3.444  14.342  0.1196 -0.2620  0.3668
10106TIP3    H151809   6.464   3.380  14.271  0.4573  2.0776 -1.7569
10106TIP3    H251810   6.356   3.442  14.357 -0.2299  0.5501 -1.5096
10107TIP3   OH251811   0.454   2.686  16.882 -0.0635 -0.2930 -0.0390
10107TIP3    H151812   0.542   2.708  16.914 -0.1089  0.0693 -0.1632
10107TIP3    H251813   0.417   2.630  16.950  1.1597 -2.4515 -1.0833
10108TIP3   OH251814   5.080   0.770   4.791 -0.1037  0.1830  0.1897
10108TIP3    H151815   5.066   0.831   4.863 -0.0840  0.2747  0.1157
10108TIP3    H251816   5.082   0.684   4.832  2.6305  0.4396  0.6242
10109TIP3   OH251817   4.616   3.660   0.031 -0.0803 -0.3376 -0.2458
10109TIP3    H151818   4.547   3.721   0.057  0.6913  0.8309 -0.9080
10109TIP3    H251819   4.659   3.636   0.113 -1.5907 -1.4868  0.2337
10110TIP3   OH251820   5.291   5.859  15.199  0.1175 -0.4581 -0.0182
10110TIP3    H151821   5.332   5.935  15.240  0.5307  0.4607 -2.1047
10110TIP3    H251822   5.340   5.784  15.233  0.5201  0.2884  1.0679
10111TIP3   OH251823   1.277   1.866  14.531 -0.2208  0.3275 -0.0927
10111TIP3    H151824   1.326   1.817  14.597 -0.4474  2.1757  1.4765
10111TIP3    H251825   1.238   1.798  14.476  0.8066 -1.2273  1.0324
10112TIP3   OH251826   2.842   0.775  13.136 -0.2678 -0.2945  0.1211
10112TIP3    H151827   2.922   0.723  13.131  1.5419  2.3995  0.1937
10112TIP3    H251828   2.826   0.803  13.046 -1.4043 -1.1687  0.0364
10113TIP3   OH251829   6.024   5.923  13.197  0.5385  0.2580  0.0171
10113TIP3    H151830   6.102   5.941  13.145  0.8680  0.0837  0.4482
10113TIP3    H251831   5.978   6.006  13.201  0.7608  0.3901 -0.1400
10114TIP3   OH251832   0.045   2.714   3.085  0.4179 -0.5212 -0.1671
10114TIP3    H151833   0.116   2.690   3.026  0.7726 -0.9364  0.4231
10114TIP3    H251834   0.085   2.775   3.147  0.3995 -1.1714  0.4930
10115TIP3   OH251835   3.337   3.700   0.420  0.7297  0.5100 -0.2205
10115TIP3    H151836   3.376   3.786   0.409  0.5702  0.4605 -1.1744
10115TIP3    H251837   3.409   3.638   0.407  0.8713  0.4944  0.5869
10116TIP3   OH251838   0.648   5.505   5.536 -0.3396 -0.3608  0.1180
10116TIP3    H151839   0.671   5.560   5.461 -0.2611  1.1628  1.2465
10116TIP3    H251840   0.631   5.419   5.497  0.1336  0.2867 -1.5966
10117TIP3   OH251841   0.175   0.927   4.769  0.4467 -0.2824  0.0289
10117TIP3    H151842   0.221   0.899   4.848 -0.0747 -0.3067  0.3254
10117TIP3    H251843   0.245   0.948   4.707  0.8950  0.9370  0.9113
10118TIP3   OH251844   5.666   0.439   0.455  0.2032 -0.2825 -0.4810
10118TIP3    H151845   5.677   0.532   0.478 -0.2397  0.5113 -3.2421
10118TIP3    H251846   5.572   0.423   0.470  0.1523 -0.0992 -0.5928
10119TIP3   OH251847   1.384   1.197   1.867 -0.3988 -0.4308  0.4452
10119TIP3    H151848   1.314   1.147   1.908  0.8862 -3.1541 -0.5960
10119TIP3    H251849   1.463   1.170   1.913  0.5556 -0.7651 -1.3704
10120TIP3   OH251850   5.019   6.097  15.342  0.8728  0.1078  0.1080
10120TIP3    H151851   5.047   6.143  15.262 -0.8835 -0.7127 -1.0124
10120TIP3    H251852   4.998   6.009  15.312 -1.0730  0.1644  1.2584
10121TIP3   OH251853   2.447   0.975  13.753  0.5008  0.3943  0.0550
10121TIP3    H151854   2.362   0.992  13.714  0.7632 -0.8687 -1.1158
10121TIP3    H251855   2.445   1.021  13.837 -0.3808  2.4862 -1.0681
10122TIP3   OH251856   4.099   4.647   6.062 -0.2455 -0.1417  0.3218
10122TIP3    H151857   4.097   4.742   6.048  0.5516 -0.1788 -0.0420
10122TIP3    H251858   4.006   4.623   6.069 -0.4176  1.0370  3.0463
10123TIP3   OH251859   0.333   0.831  15.629 -0.1157  0.4432 -0.0731
10123TIP3    H151860   0.354   0.740  15.608  1.7243  1.2665 -2.0398
10123TIP3    H251861   0.252   0.849  15.582  0.6093  0.3938 -1.3655
10124TIP3   OH251862   4.934   4.677  15.931  0.1863  0.7835 -0.0862
10124TIP3    H151863   4.999   4.620  15.889  0.8722  0.4940  1.3296
10124TIP3    H251864   4.968   4.689  16.020 -1.4976  0.9696  0.5405
10125TIP3   OH251865   0.105   3.910  16.023 -0.5140 -0.5780 -0.6918
10125TIP3    H151866   0.119   3.998  16.058 -1.2467  0.0862 -2.0123
10125TIP3    H251867   0.013   3.909  15.998 -0.6458 -1.9112 -0.1880
10126TIP3   OH251868   2.281   1.396  15.066  0.3619 -0.1194 -0.1922
10126TIP3    H151869   2.356   1.455  15.063  0.8898 -0.5939  2.7584
10126TIP3    H251870   2.319   1.308  15.059 -0.1538 -0.2651 -1.2891
10127TIP3   OH251871   6.431   4.255  13.472 -0.4155 -0.2569  0.2106
10127TIP3    H151872   6.442   4.323  13.539  0.0441 -0.9248  0.8186
10127TIP3    H251873   6.477   4.290  13.396 -1.0758  0.5787  0.1915
10128TIP3   OH251874   2.616   3.859  13.073  0.4823 -0.4701 -0.0010
10128TIP3    H151875   2.532   3.881  13.113 -0.8111  1.2965 -3.5401
10128TIP3    H251876   2.680   3.876  13.143 -1.8681  0.3870  2.0225
10129TIP3   OH251877   0.237   5.926   2.224  0.1085 -0.7233 -1.0604
10129TIP3    H151878   0.257   5.862   2.156 -0.9750 -1.6107 -0.5609
10129TIP3    H251879   0.315   5.981   2.230  1.1806 -2.2047 -1.2651
10130TIP3   OH251880   1.500   1.806  11.342  0.4478 -0.7930 -0.0196
10130TIP3    H151881   1.555   1.870  11.296 -0.9998 -0.2168 -0.9886
10130TIP3    H251882   1.554   1.727  11.346  1.3318 -0.2561 -0.9949
10131TIP3   OH251883   0.922   1.837  14.437 -0.2149  0.5217  0.8015
10131TIP3    H151884   0.828   1.845  14.455 -0.3750 -0.6185  0.5719
10131TIP3    H251885   0.943   1.912  14.382 -0.7627  1.3731  1.7392
10132TIP3   OH251886   3.043   3.592  10.651 -0.6123 -0.1585 -0.8530
10132TIP3    H151887   3.015   3.501  10.656 -0.4441 -0.1298  0.8717
10132TIP3    H251888   2.982   3.632  10.589 -1.2688 -1.2307 -0.9141
10133TIP3   OH251889   4.803   1.868   6.574  0.2469  0.4603 -0.4851
10133TIP3    H151890   4.890   1.865   6.535  0.6287 -0.4426  0.4404
10133TIP3    H251891   4.789   1.961   6.593  1.9590  0.3450  1.4860
10134TIP3   OH251892   3.878   3.143  16.296  0.0555  0.5164  0.3989
10134TIP3    H151893   3.923   3.223  16.325 -0.3059  0.9708 -0.2737
10134TIP3    H251894   3.856   3.097  16.377  1.9051  0.1836  0.7471
10135TIP3   OH251895   6.148   1.852   4.717  0.1280  0.1026 -0.0570
10135TIP3    H151896   6.221   1.834   4.658 -0.1103  0.2355 -0.3993
10135TIP3    H251897   6.089   1.908   4.665  1.6708  3.3684  1.5318
10136TIP3   OH251898   3.765   1.768  16.084 -0.0882 -0.5812 -0.6261
10136TIP3    H151899   3.814   1.830  16.031 -1.0570  0.4622 -0.3089
10136TIP3    H251900   3.673   1.783  16.062 -0.3984 -1.2114  0.1868
10137TIP3   OH251901   3.311   0.988  15.085 -0.1615  0.2967 -0.0778
10137TIP3    H151902   3.308   1.045  15.008 -2.1370  1.9252  1.1605
10137TIP3    H251903   3.222   0.990  15.120  0.3745 -1.5052  1.4927
10138TIP3   OH251904   0.857   2.491   2.818  0.7177 -0.6791  0.3933
10138TIP3    H151905   0.826   2.564   2.872 -0.3897  0.3921 -1.6426
10138TIP3    H251906   0.781   2.434   2.809  0.2854  0.1948 -1.7293
10139TIP3   OH251907   5.036   3.506  13.310  0.4627  0.7596 -0.2751
10139TIP3    H151908   4.973   3.436  13.291 -0.7172  1.6835  0.1968
10139TIP3    H251909   5.122   3.465  13.297 -0.1213 -1.6196  2.7093
10140TIP3   OH251910   3.601   2.444   0.300 -0.0623  0.2223  0.0705
10140TIP3    H151911   3.518   2.479   0.268  0.5275  1.9329  0.3238
10140TIP3    H251912   3.592   2.444   0.395  0.5143  1.2115  0.1355
10141TIP3   OH251913   5.090   0.641  11.889 -0.3733 -0.3305 -0.2885
10141TIP3    H151914   5.052   0.553  11.897  0.1524 -0.5195  0.1269
10141TIP3    H251915   5.080   0.679  11.976  0.1840 -0.2952 -0.2431
10142TIP3   OH251916   0.734   6.368  12.695 -0.2510 -0.5261 -0.1339
10142TIP3    H151917   0.646   6.406  12.690 -0.0759 -0.2616 -1.6280
10142TIP3    H251918   0.790   6.433  12.652  0.2370 -1.9110 -1.6519
10143TIP3   OH251919   1.304   4.843   6.221  0.4678 -0.1493  0.0488
10143TIP3    H151920   1.309   4.897   6.299 -1.0674  1.0170 -0.6447
10143TIP3    H251921   1.316   4.904   6.148  1.6800 -1.1903 -0.6388
10144TIP3   OH251922   5.352   3.273   0.528 -0.0421 -0.9529 -0.1778
10144TIP3    H151923   5.398   3.195   0.497 -0.6781 -1.3504 -0.1452
10144TIP3    H251924   5.344   3.261   0.622  2.6135  0.6431  0.3067
10145TIP3   OH251925   4.679   1.529   5.516 -0.5947  0.1303 -0.1548
10145TIP3    H151926   4.612   1.481   5.564 -0.8020 -1.4152 -1.9102
10145TIP3    H251927   4.762   1.499   5.553 -0.8271  1.1045  1.1695
10146TIP3   OH251928   0.026   2.911  16.107 -0.2925  0.1142  0.1717
10146TIP3    H151929   0.012   2.888  16.015 -0.6326 -2.7829  0.9125
10146TIP3    H251930   0.118   2.937  16.111 -0.2733  0.2709 -0.9781
10147TIP3   OH251931   6.476   1.880   0.247 -0.0374  0.2224 -0.3773
10147TIP3    H151932   6.402   1.820   0.258  0.6503 -0.8402 -1.4282
10147TIP3    H251933   6.443   1.949   0.188  0.5107 -1.5695 -2.8849
10148TIP3   OH251934   3.634   6.261   1.241  0.2774 -0.6538 -0.1337
10148TIP3    H151935   3.700   6.267   1.309 -0.7828  2.8404  0.6752
10148TIP3    H251936   3.551   6.251   1.288 -0.2617 -0.1670 -0.9610
10149TIP3   OH251937   6.061   1.029  15.601  0.1378 -0.1603 -0.6176
10149TIP3    H151938   6.105   0.955  15.559 -0.5119 -0.4257 -0.8526
10149TIP3    H251939   6.098   1.106  15.559  3.4102 -0.1630  2.1313
10150TIP3   OH251940   4.919   6.107  15.815  0.1330 -0.0914  0.6059
10150TIP3    H151941   4.956   6.021  15.832 -0.3592 -0.5407 -0.5369
10150TIP3    H251942   4.932   6.155  15.896  1.2515 -0.9382  0.9450
10151TIP3   OH251943   1.317   1.531  11.583  0.7371 -0.5765  0.1741
10151TIP3    H151944   1.236   1.571  11.615  0.3074 -1.1189 -0.2222
10151TIP3    H251945   1.300   1.512  11.491  1.4987 -0.2289 -0.0473
10152TIP3   OH251946   3.635   4.469  12.637 -0.4289  0.2013 -0.7586
10152TIP3    H151947   3.716   4.457  12.587 -0.0156  0.8091 -0.2452
10152TIP3    H251948   3.578   4.398  12.608  0.3805 -0.3798 -0.9409
10153TIP3   OH251949   2.551   4.147   4.927  0.5327 -0.0980 -0.2348
10153TIP3    H151950   2.629   4.157   4.873 -0.5545 -2.1457 -2.2599
10153TIP3    H251951   2.478   4.160   4.867 -0.7089 -0.8324  1.0788
10154TIP3   OH251952   0.688   5.419   5.208  0.0168 -1.0217 -0.0261
10154TIP3    H151953   0.765   5.469   5.178 -0.7026  0.3568  0.4065
10154TIP3    H251954   0.720   5.368   5.282  0.9266 -1.7710 -0.9020
10155TIP3   OH251955   1.123   1.107   5.339 -0.3036  0.0807 -0.2047
10155TIP3    H151956   1.136   1.158   5.418  0.3767  2.0587 -1.5386
10155TIP3    H251957   1.043   1.142   5.300  1.2528  1.6056 -2.1630
10156TIP3   OH251958   1.394   3.571   4.001 -0.6766 -0.6749 -0.5854
10156TIP3    H151959   1.402   3.481   4.032 -4.0788 -0.9785 -0.4407
10156TIP3    H251960   1.442   3.623   4.066  0.0878 -2.2143  0.1012
10157TIP3   OH251961   3.388   6.775  12.255  0.5512  0.3057 -0.1625
10157TIP3    H151962   3.406   6.866  12.232  0.5687  0.4275  0.3301
10157TIP3    H251963   3.473   6.738  12.279  0.7073 -0.1191 -1.2955
10158TIP3   OH251964   0.557   1.432  13.651 -0.1842  0.8618 -0.1087
10158TIP3    H151965   0.594   1.509  13.694 -2.3140  0.9389  1.6911
10158TIP3    H251966   0.473   1.461  13.617  1.2351  0.6535 -4.0130
10159TIP3   OH251967   4.909   1.003  14.731  0.4256  0.0358 -0.4381
10159TIP3    H151968   4.866   1.088  14.722 -1.2905 -0.8844 -1.1284
10159TIP3    H251969   4.840   0.939  14.715  1.9075 -1.4934 -0.9035
10160TIP3   OH251970   4.435   6.637   1.929  0.5236  0.4713 -0.4298
10160TIP3    H151971   4.372   6.618   1.860  2.4268 -2.2098 -1.4958
10160TIP3    H251972   4.497   6.698   1.890  0.4710  0.5151 -0.4443
10161TIP3   OH251973   2.139   4.820  12.979 -0.5497 -0.1305  0.7846
10161TIP3    H151974   2.129   4.878  13.055  0.0875  1.1180 -0.0574
10161TIP3    H251975   2.167   4.879  12.908  0.0158 -1.4657 -0.1159
10162TIP3   OH251976   4.826   6.761  15.889  0.4929 -0.4729  0.0146
10162TIP3    H151977   4.817   6.736  15.981 -0.1199  0.0912  0.1152
10162TIP3    H251978   4.901   6.711  15.857  0.5697 -0.8376  0.7635
10163TIP3   OH251979   5.364   3.872  15.295 -0.3454 -0.2660  0.1354
10163TIP3    H151980   5.455   3.852  15.275 -0.1074  0.7686  0.1223
10163TIP3    H251981   5.366   3.901  15.387 -0.6164  0.0247  0.0496
10164TIP3   OH251982   6.327   2.394   1.562 -0.0470 -0.9052  0.1995
10164TIP3    H151983   6.248   2.360   1.519 -1.5210  2.9561 -0.4041
10164TIP3    H251984   6.325   2.354   1.649 -3.3450 -0.0471  0.5992
10165TIP3   OH251985   1.681   5.783  12.680  1.0625  0.3081  0.2081
10165TIP3    H151986   1.720   5.777  12.593 -0.0577 -0.2652 -0.2713
10165TIP3    H251987   1.668   5.692  12.707  0.9948  0.4831  0.7843
10166TIP3   OH251988   0.385   5.723   4.681  0.4262  0.0812  0.0594
10166TIP3    H151989   0.331   5.799   4.702  0.8823  0.4182  0.0074
10166TIP3    H251990   0.374   5.665   4.757  0.9374  0.6734  0.5929
10167TIP3   OH251991   2.809   0.890  14.789 -0.6756  0.6236 -0.0908
10167TIP3    H151992   2.841   0.824  14.727  0.6060 -0.2345  1.4683
10167TIP3    H251993   2.835   0.974  14.750  0.2224  0.0896 -0.6551
10168TIP3   OH251994   2.550   3.958  15.016 -0.0356  0.1278 -0.5961
10168TIP3    H151995   2.459   3.954  14.987 -0.4310  0.7046  0.5182
10168TIP3    H251996   2.544   3.966  15.111  1.1415  1.9088 -0.6393
10169TIP3   OH251997   0.598   2.415  16.347 -0.5949  0.0712  0.0119
10169TIP3    H151998   0.688   2.391  16.325 -0.5683  2.0074 -2.1066
10169TIP3    H251999   0.565   2.340  16.397  1.5595 -1.4901 -0.8449
10170TIP3   OH252000   6.702   1.345   2.129  0.8137 -0.1383  0.5758
10170TIP3    H152001   6.756   1.281   2.176 -0.2701 -0.0212  2.0070
10170TIP3    H252002   6.649   1.292   2.069  4.0025 -0.1041 -2.4723
10171TIP3   OH252003   2.281   1.913   2.423  0.1903  0.3427 -0.5615
10171TIP3    H152004   2.194   1.910   2.463 -0.6683 -0.7326 -2.4392
10171TIP3    H252005   2.339   1.941   2.494 -1.1937 -1.9129  1.5452
10172TIP3   OH252006   4.852   0.167  12.678  0.1424  0.1063  0.9813
10172TIP3    H152007   4.811   0.253  12.681  0.3749  0.2123  1.2078
10172TIP3    H252008   4.811   0.122  12.605  1.1243  0.9722 -0.1131
10173TIP3   OH252009   3.551   5.697  15.218  0.1952  0.4566 -0.4054
10173TIP3    H152010   3.457   5.705  15.234  0.1915 -1.6308  0.8256
10173TIP3    H252011   3.590   5.703  15.305  1.0406 -0.5992 -0.7078
10174TIP3   OH252012   1.334   4.092   0.243  0.2687  0.3459  0.2760
10174TIP3    H152013   1.417   4.060   0.207 -0.8473 -3.1892  0.6833
10174TIP3    H252014   1.342   4.078   0.337 -1.6336 -2.3028  0.1110
10175TIP3   OH252015   5.003   2.210   5.025 -0.2130  0.0793  0.2261
10175TIP3    H152016   4.947   2.279   5.062 -2.1362 -0.7752 -1.0014
10175TIP3    H252017   4.962   2.188   4.942  1.8572 -0.7601 -0.6081
10176TIP3   OH252018   4.285   1.087  12.011 -0.0172  0.0441 -0.1860
10176TIP3    H152019   4.282   1.088  11.915 -0.0815  1.3261 -0.1828
10176TIP3    H252020   4.372   1.053  12.031  0.2195  0.3369 -0.7003
10177TIP3   OH252021   0.420   4.200  14.832 -0.3638  0.4370 -0.3641
10177TIP3    H152022   0.516   4.201  14.841 -0.4044  0.5567  0.0931
10177TIP3    H252023   0.394   4.291  14.846 -0.6695  0.1459  1.0563
10178TIP3   OH252024   3.988   4.756  15.956 -0.0039 -0.3844 -0.0913
10178TIP3    H152025   4.067   4.763  16.010  0.3095  1.2332 -0.7412
10178TIP3    H252026   3.921   4.806  16.004  0.3617  1.3258 -1.3353
10179TIP3   OH252027   5.037   3.419  15.005 -0.1917 -0.0703  0.0645
10179TIP3    H152028   5.032   3.479  14.931 -1.9188 -0.0958  0.1499
10179TIP3    H252029   4.948   3.414  15.038  1.1120  2.5630  4.2763
10180TIP3   OH252030   3.269   5.876   3.642  0.2312 -0.0593 -0.5365
10180TIP3    H152031   3.250   5.898   3.550  0.2345 -1.5816 -0.9173
10180TIP3    H252032   3.195   5.912   3.691 -0.4940 -0.4620 -1.3122
10181TIP3   OH252033   4.923   4.264   5.597 -0.1028 -0.3293  0.4066
10181TIP3    H152034   4.898   4.332   5.660  0.4498 -1.0453  1.4234
10181TIP3    H252035   4.928   4.309   5.513 -3.5913  0.0977  0.3607
10182TIP3   OH252036   6.254   1.825  16.986  0.3724  0.0414  0.2901
10182TIP3    H152037   6.248   1.921  16.989 -0.1784  0.0815 -1.5079
10182TIP3    H252038   6.327   1.808  16.926 -1.9561 -0.6413 -2.5008
10183TIP3   OH252039   6.296   6.558   5.657 -0.3549 -0.3586 -0.0761
10183TIP3    H152040   6.201   6.551   5.642 -0.4477 -2.6375  1.2812
10183TIP3    H252041   6.320   6.473   5.694  1.9576  0.7479  1.0300
10184TIP3   OH252042   1.145   2.872  14.197 -0.4138 -0.4183  0.1260
10184TIP3    H152043   1.184   2.925  14.267  1.7930 -0.7544 -0.8121
10184TIP3    H252044   1.208   2.802  14.183 -1.5104 -1.1481 -1.2603
10185TIP3   OH252045   0.644   3.320  13.508  0.2307 -0.1400 -0.1853
10185TIP3    H152046   0.594   3.244  13.480  0.4915 -0.2843 -0.2557
10185TIP3    H252047   0.696   3.289  13.581  0.2469  0.0038 -0.1341
10186TIP3   OH252048   5.805   2.338   1.116 -0.0696 -0.2449 -0.0705
10186TIP3    H152049   5.740   2.346   1.046  0.3756  0.4188 -0.4079
10186TIP3    H252050   5.873   2.281   1.079  1.7904  2.7328 -1.4058
10187TIP3   OH252051   0.293   1.281   4.298  0.2369 -0.6906  0.1753
10187TIP3    H152052   0.313   1.336   4.222  0.5178  0.0985  0.8149
10187TIP3    H252053   0.311   1.337   4.374  0.6856 -1.7111  0.8384
10188TIP3   OH252054   2.300   3.267  16.599  0.6614  0.0417 -0.2948
10188TIP3    H152055   2.245   3.336  16.563 -0.0098 -0.5008 -0.3197
10188TIP3    H252056   2.260   3.247  16.684  2.9850  2.2203  1.3783
10189TIP3   OH252057   4.297   2.900   4.731  0.4056 -0.1578 -0.0710
10189TIP3    H152058   4.249   2.921   4.812  1.1297 -0.9052  0.5660
10189TIP3    H252059   4.388   2.892   4.759  0.7185 -0.0750 -1.0395
10190TIP3   OH252060   4.370   5.044   4.276  0.1211  0.3265 -0.1429
10190TIP3    H152061   4.438   4.997   4.227 -1.2251  0.5457 -2.2757
10190TIP3    H252062   4.316   4.974   4.312  1.5536  0.1456  1.7187
10191TIP3   OH252063   1.036   2.599  16.812  0.3743 -0.4738  0.6710
10191TIP3    H152064   0.952   2.584  16.767 -0.0416  0.5756  1.0890
10191TIP3    H252065   1.100   2.606  16.741 -0.1992  0.6733  0.2661
10192TIP3   OH252066   1.432   3.265   0.287  0.8936 -0.1986 -0.2703
10192TIP3    H152067   1.420   3.170   0.294  0.6388 -0.1869 -0.5578
10192TIP3    H252068   1.519   3.275   0.248  1.5027 -0.2917  1.0214
10193TIP3   OH252069   0.473   0.877   3.656 -0.1494  0.0727 -0.7447
10193TIP3    H152070   0.561   0.859   3.626  0.2728 -0.3469  0.6911
10193TIP3    H252071   0.416   0.850   3.584  0.7701 -1.8139 -0.7764
10194TIP3   OH252072   6.407   2.966  15.734  0.4048  0.3049  0.0138
10194TIP3    H152073   6.452   2.892  15.693  1.5565  0.2443  1.3458
10194TIP3    H252074   6.350   2.927  15.800 -0.1412  0.4990 -0.3459
10195TIP3   OH252075   1.643   2.654   6.272  0.5535 -0.2230  0.2065
10195TIP3    H152076   1.708   2.610   6.218  0.1390 -1.3029  0.5844
10195TIP3    H252077   1.636   2.741   6.234  2.0449 -0.1637  0.0052
10196TIP3   OH252078   5.534   1.548   2.524 -0.3405 -0.3262  0.3022
10196TIP3    H152079   5.444   1.575   2.506  0.0777  0.4957 -0.6136
10196TIP3    H252080   5.580   1.630   2.546  0.2890 -0.6712  0.3014
10197TIP3   OH252081   4.876   6.702   3.402 -0.3912  0.3048 -0.4140
10197TIP3    H152082   4.792   6.740   3.429 -0.4522 -1.1331  1.5012
10197TIP3    H252083   4.942   6.756   3.446 -0.3712  0.3083 -0.4478
10198TIP3   OH252084   4.201   2.260  14.540  0.0659  0.4390  0.3752
10198TIP3    H152085   4.147   2.214  14.604 -2.2129  1.3230 -0.8602
10198TIP3    H252086   4.207   2.350  14.573 -0.7866  0.8009 -0.4560
10199TIP3   OH252087   0.939   6.352  14.311  0.1929 -0.4579 -0.6022
10199TIP3    H152088   0.968   6.441  14.290 -2.0100  0.7220  1.2038
10199TIP3    H252089   1.016   6.311  14.349  0.7231  1.2718  0.2457
10200TIP3   OH252090   0.004   1.008  16.291  0.2304  0.6378  0.0639
10200TIP3    H152091   0.074   1.041  16.349  0.6354  2.6328 -1.4898
10200TIP3    H252092   0.051   0.961  16.222 -0.0234  1.0044 -0.3594
10201TIP3   OH252093   5.706   2.328   2.389  0.2007 -0.1169  0.3872
10201TIP3    H152094   5.691   2.257   2.452 -0.1000  0.9406  1.5256
10201TIP3    H252095   5.801   2.342   2.390  0.4646 -1.6393 -1.1184
10202TIP3   OH252096   4.865   5.459  13.300  0.1998  0.0947 -0.0828
10202TIP3    H152097   4.914   5.534  13.266 -0.8398  0.2667 -1.2661
10202TIP3    H252098   4.778   5.495  13.319 -0.9104 -1.1801 -2.4762
10203TIP3   OH252099   3.866   2.152   4.354  0.5146 -0.3876 -0.5358
10203TIP3    H152100   3.926   2.224   4.335  1.9163 -2.0814 -2.7083
10203TIP3    H252101   3.849   2.158   4.448  1.9111  1.7645 -0.4094
10204TIP3   OH252102   6.395   0.707  13.778 -0.7114 -0.4141  0.3873
10204TIP3    H152103   6.437   0.780  13.732  1.0765 -0.9990  1.0340
10204TIP3    H252104   6.302   0.718  13.760 -0.5652  2.3967  0.9763
10205TIP3   OH252105   6.096   2.344  16.178 -0.0645 -0.0879  0.1084
10205TIP3    H152106   6.144   2.291  16.116  0.6863 -0.5330  1.0656
10205TIP3    H252107   6.150   2.345  16.257  0.1451  2.4122 -0.0019
10206TIP3   OH252108   2.696   1.206   1.811 -0.5475 -0.1377  0.7857
10206TIP3    H152109   2.739   1.267   1.870  1.7125  0.4371 -1.3854
10206TIP3    H252110   2.703   1.121   1.854 -1.2070  0.6493  2.5031
10207TIP3   OH252111   6.713   1.872   2.080  0.1787 -0.8709  0.0425
10207TIP3    H152112   6.746   1.848   2.167  1.0615 -1.1095 -0.3549
10207TIP3    H252113   6.620   1.853   2.084  0.2032 -0.8343  0.9594
10208TIP3   OH252114   4.258   0.690  15.297  0.4049 -0.7703 -0.6350
10208TIP3    H152115   4.303   0.767  15.333  0.7480 -0.5433 -1.5339
10208TIP3    H252116   4.328   0.625  15.285 -0.1127 -1.7596  1.5026
10209TIP3   OH252117   5.303   1.415  16.597 -1.1585  0.1029 -0.1876
10209TIP3    H152118   5.355   1.433  16.519 -0.2284  1.1242  0.6451
10209TIP3    H252119   5.306   1.320  16.608 -4.0512 -0.4550 -3.2545
10210TIP3   OH252120   5.540   2.420  12.996  0.0014 -0.2133 -0.0152
10210TIP3    H152121   5.598   2.445  13.069 -0.4949 -0.3811  0.4408
10210TIP3    H252122   5.499   2.339  13.026  0.8633 -1.0529 -1.0750
10211TIP3   OH252123   1.863   2.827   2.605  0.0672  0.0565 -0.9479
10211TIP3    H152124   1.957   2.808   2.607 -0.2802 -1.6529  0.1426
10211TIP3    H252125   1.847   2.856   2.515  1.2081 -1.9456 -1.8456
10212TIP3   OH252126   6.067   0.352  12.781 -0.0233  0.0441  0.0394
10212TIP3    H152127   6.016   0.429  12.756  0.1001 -0.5048 -2.0150
10212TIP3    H252128   6.070   0.299  12.702  0.4062 -1.7986  1.2600
10213TIP3   OH252129   4.649   4.943   6.348  0.2832  0.1215 -0.3484
10213TIP3    H152130   4.589   4.879   6.387 -0.0370 -0.1765 -1.3202
10213TIP3    H252131   4.706   4.969   6.420 -0.2987 -0.4282  0.3204
10214TIP3   OH252132   3.573   1.500  14.611 -0.2482 -0.2294  0.0576
10214TIP3    H152133   3.540   1.589  14.596 -0.1621 -0.0948  0.6403
10214TIP3    H252134   3.663   1.513  14.639  0.4916 -0.6264 -2.0674
10215TIP3   OH252135   1.437   6.549  12.960  0.6221  0.5924 -0.3447
10215TIP3    H152136   1.379   6.608  13.008  1.0033  1.8591 -1.3864
10215TIP3    H252137   1.502   6.521  13.024 -1.6793 -1.6413  1.0946
10216TIP3   OH252138   3.585   4.610  13.120  0.0913  0.1812  0.5524
10216TIP3    H152139   3.657   4.557  13.156 -1.0781 -1.6632  0.2116
10216TIP3    H252140   3.604   4.614  13.026  1.2270  2.0444  0.8244
10217TIP3   OH252141   1.843   5.839  12.459 -0.4082 -0.1375  0.0472
10217TIP3    H152142   1.884   5.790  12.388 -1.3334  1.6683 -1.8032
10217TIP3    H252143   1.892   5.921  12.463 -0.6166 -0.0611  1.2545
10218TIP3   OH252144   0.546   1.127  16.002  0.3357 -0.4248  0.2577
10218TIP3    H152145   0.511   1.160  16.084  0.1641  0.0583 -0.0067
10218TIP3    H252146   0.475   1.138  15.939  0.9777  0.6633 -0.3044
10219TIP3   OH252147   2.943   5.235  11.730 -0.1881  0.0575 -0.2850
10219TIP3    H152148   2.958   5.140  11.723  1.1909  0.2622 -0.1078
10219TIP3    H252149   2.857   5.242  11.772 -0.7503 -1.1184 -1.1820
10220TIP3   OH252150   6.214   6.083  16.795  0.3511  0.1267 -0.3337
10220TIP3    H152151   6.229   6.036  16.713  2.8229  1.6093 -0.7888
10220TIP3    H252152   6.280   6.153  16.795 -1.7205  2.1747  1.3878
10221TIP3   OH252153   6.046   2.760  11.763  0.0701  0.0268  0.2256
10221TIP3    H152154   6.129   2.744  11.717 -0.1224 -1.0776  0.2574
10221TIP3    H252155   6.072   2.799  11.846  0.4567  1.3984 -0.5203
10222TIP3   OH252156   1.582   4.754   0.399  0.4254 -0.1698  0.2441
10222TIP3    H152157   1.629   4.826   0.357 -2.0401  0.1332 -2.1335
10222TIP3    H252158   1.641   4.678   0.390  1.6727  0.8174 -0.0887
10223TIP3   OH252159   2.087   1.123   2.566  0.2426 -0.1517  0.4784
10223TIP3    H152160   2.024   1.076   2.512 -0.0648  1.0487 -0.2189
10223TIP3    H252161   2.103   1.205   2.519 -0.4643  1.1646  2.4659
10224TIP3   OH252162   0.635   4.446  11.341  0.2327 -0.1196 -0.1492
10224TIP3    H152163   0.676   4.408  11.419  2.1187 -0.8115 -1.4288
10224TIP3    H252164   0.670   4.535  11.337  0.3581 -0.1766 -0.3513
10225TIP3   OH252165   2.847   2.086  15.349 -0.4361 -0.2095  0.3961
10225TIP3    H152166   2.898   2.123  15.421  0.5201 -0.4534 -0.1486
10225TIP3    H252167   2.881   2.129  15.271 -1.1627 -0.2767  0.0421
10226TIP3   OH252168   6.696   3.203  10.660  0.0125  0.2379 -0.5768
10226TIP3    H152169   6.625   3.191  10.723 -0.4590 -1.7841 -1.4696
10226TIP3    H252170   6.767   3.149  10.693  0.5656  0.9402 -0.5942
10227TIP3   OH252171   6.790   0.699   5.475 -0.1022  0.1624  0.0347
10227TIP3    H152172   6.832   0.617   5.502  0.0066  0.1849 -0.0618
10227TIP3    H252173   6.706   0.699   5.520 -0.5304 -0.4831 -0.7675
10228TIP3   OH252174   4.905   1.668  15.885  0.9314 -0.8022 -0.8794
10228TIP3    H152175   4.935   1.595  15.938 -2.0676 -1.4225  0.0501
10228TIP3    H252176   4.838   1.711  15.938 -0.5718 -0.1159 -3.2265
10229TIP3   OH252177   5.875   4.211  16.486  0.3493  0.6352 -0.3565
10229TIP3    H152178   5.902   4.147  16.420  0.3118 -0.3188  0.5543
10229TIP3    H252179   5.782   4.195  16.499  0.2912  1.0278 -0.2898
10230TIP3   OH252180   4.649   5.029  16.329 -0.2927 -0.0741 -0.3736
10230TIP3    H152181   4.570   4.975  16.338  0.0754 -0.6276 -0.4543
10230TIP3    H252182   4.620   5.105  16.279 -0.9717  0.1366  0.3166
10231TIP3   OH252183   5.488   1.963   0.780  0.6814 -0.6412 -0.5310
10231TIP3    H152184   5.500   1.983   0.873  2.5453 -1.9486 -0.4664
10231TIP3    H252185   5.551   2.020   0.735 -1.8172  1.7014 -1.2206
10232TIP3   OH252186   6.122   1.483   3.709  0.1796  0.0511  0.4404
10232TIP3    H152187   6.196   1.478   3.648  1.1884 -1.2440  1.7201
10232TIP3    H252188   6.160   1.462   3.795 -1.4994  0.3195  1.2756
10233TIP3   OH252189   0.196   3.097   4.405 -0.2151 -0.0579  0.6655
10233TIP3    H152190   0.129   3.038   4.369  0.1116 -0.7685  1.2271
10233TIP3    H252191   0.164   3.119   4.492 -1.8002  2.9092 -0.5716
10234TIP3   OH252192   5.049   1.007   3.450  0.4244  0.6962 -0.0814
10234TIP3    H152193   5.027   1.071   3.383 -1.7517  0.3539  0.2709
10234TIP3    H252194   5.117   0.952   3.410 -0.8453  0.4827 -1.9989
10235TIP3   OH252195   3.465   5.368  16.329  0.6143  0.3470 -0.0643
10235TIP3    H152196   3.398   5.323  16.278  0.7502 -1.3316  1.2025
10235TIP3    H252197   3.469   5.455  16.291 -0.2952 -0.4201 -1.9904
10236TIP3   OH252198   1.964   5.402  14.227  0.1779  0.4302 -0.0873
10236TIP3    H152199   1.956   5.336  14.296 -1.6336  1.3059  0.5584
10236TIP3    H252200   1.988   5.482  14.273 -0.7478  0.9517 -0.4980
10237TIP3   OH252201   1.500   1.752   5.527  0.0294  0.3993  0.0857
10237TIP3    H152202   1.487   1.679   5.587  1.9301  1.2836  1.6688
10237TIP3    H252203   1.433   1.741   5.459 -0.9268 -1.7064  1.3300
10238TIP3   OH252204   3.615   3.557  17.026 -0.0495  0.1010 -0.4739
10238TIP3    H152205   3.548   3.622  17.006 -0.2626 -0.7907 -2.8014
10238TIP3    H252206   3.644   3.526  16.940  2.0102 -0.8698  0.5597
10239TIP3   OH252207   5.453   2.783   5.143 -0.4494  0.8733 -0.4015
10239TIP3    H152208   5.425   2.835   5.067 -2.3853 -2.9501 -2.4690
10239TIP3    H252209   5.373   2.771   5.194  0.2674  1.1086  0.7734
10240TIP3   OH252210   2.097   2.572   5.759 -0.4248 -0.1312  0.6561
10240TIP3    H152211   2.050   2.654   5.774 -2.3319 -1.2499  0.8855
10240TIP3    H252212   2.169   2.575   5.822 -0.4956  1.3292  0.7017
10241TIP3   OH252213   3.940   4.281   3.336 -0.1958  0.1421 -0.1632
10241TIP3    H152214   4.009   4.328   3.384 -0.4743  0.0184  0.3476
10241TIP3    H252215   3.859   4.322   3.365 -0.4415 -0.6723  0.2961
10242TIP3   OH252216   2.922   2.107  15.914 -0.5032  0.4454  0.7357
10242TIP3    H152217   2.912   2.188  15.863 -0.5969 -1.6669 -2.7040
10242TIP3    H252218   2.832   2.075  15.925 -0.3171 -0.1240  0.5800
10243TIP3   OH252219   4.828   2.545  11.956  0.3748  0.6202  0.3323
10243TIP3    H152220   4.924   2.550  11.950  0.5302 -0.6613  1.5369
10243TIP3    H252221   4.810   2.544  12.050 -0.7774  0.0398  0.1157
10244TIP3   OH252222   0.555   6.527  15.054  0.0763 -0.1300  0.4373
10244TIP3    H152223   0.475   6.557  15.010  0.4123  1.0344  0.6007
10244TIP3    H252224   0.524   6.463  15.118 -0.7289  0.2391  0.4332
10245TIP3   OH252225   1.705   1.904  13.334 -0.7981 -0.3624 -0.7616
10245TIP3    H152226   1.672   1.991  13.355  0.2542 -0.2865  0.5983
10245TIP3    H252227   1.797   1.906  13.358 -0.4680 -1.4667 -1.8846
10246TIP3   OH252228   5.055   5.240   2.903  0.2407 -0.5339  0.1343
10246TIP3    H152229   5.037   5.208   2.992 -1.2139  0.0980  0.0770
10246TIP3    H252230   5.072   5.160   2.853  2.3350 -0.8340  1.2166
10247TIP3   OH252231   3.075   5.727   2.508 -0.0608  0.2133 -0.3355
10247TIP3    H152232   3.147   5.781   2.542  0.3023 -0.3700 -0.1674
10247TIP3    H252233   3.114   5.640   2.498 -1.0868 -0.4121  0.9444
10248TIP3   OH252234   4.506   1.661   0.070  0.2691  0.6038 -0.0684
10248TIP3    H152235   4.502   1.569   0.046 -0.7457  0.6802 -0.2052
10248TIP3    H252236   4.570   1.664   0.141  0.2238 -0.2227  0.0128
10249TIP3   OH252237   1.077   5.230   5.760  0.1176 -0.0737  0.0023
10249TIP3    H152238   1.105   5.253   5.849  1.0928  0.4531 -0.4435
10249TIP3    H252239   1.102   5.138   5.750  1.0302  0.1957 -0.1454
10250TIP3   OH252240   6.475   6.016   2.326  0.1028  0.2413  0.3862
10250TIP3    H152241   6.417   6.047   2.257  2.7582  0.4264 -1.8496
10250TIP3    H252242   6.549   6.077   2.324  1.2428 -1.0466  1.9412
10251TIP3   OH252243   5.430   6.599  14.067 -0.0831  0.0616  0.3486
10251TIP3    H152244   5.487   6.522  14.068 -2.5212 -1.8191 -0.8132
10251TIP3    H252245   5.395   6.604  14.156  0.6662  0.2785  0.6317
10252TIP3   OH252246   0.040   5.278  11.758  0.1231  0.7263  0.3348
10252TIP3    H152247  -0.019   5.317  11.823 -1.5571  0.1576 -0.8180
10252TIP3    H252248  -0.015   5.265  11.681  2.1526  1.6596 -1.3127
10253TIP3   OH252249   3.971   4.571   1.171  0.4696 -0.2096 -0.2395
10253TIP3    H152250   4.026   4.493   1.161 -1.4039 -1.6392  0.1844
10253TIP3    H252251   3.895   4.539   1.221 -0.6888  1.7310 -0.7400
10254TIP3   OH252252   0.741   4.674   4.284 -0.1861 -0.1224  0.3010
10254TIP3    H152253   0.734   4.749   4.342 -0.0617 -1.0457  1.5121
10254TIP3    H252254   0.832   4.646   4.291  0.5501  1.4343 -2.4392
10255TIP3   OH252255   4.777   5.959  10.801  0.1834  0.2485 -0.0838
10255TIP3    H152256   4.740   5.878  10.765  0.8402 -0.3761  0.6323
10255TIP3    H252257   4.715   5.986  10.869 -0.3932  0.7327 -0.7889
10256TIP3   OH252258   3.401   3.125   3.850 -0.3300  0.2888 -0.1395
10256TIP3    H152259   3.334   3.105   3.916  0.5909  0.5159  0.8767
10256TIP3    H252260   3.400   3.220   3.843  0.7032  0.3693  0.7464
10257TIP3   OH252261   3.049   4.556   5.592  0.3352 -0.2476  0.0793
10257TIP3    H152262   3.124   4.501   5.616  1.3626  1.3424  0.5958
10257TIP3    H252263   3.085   4.645   5.588 -1.3625  0.4379 -0.4556
10258TIP3   OH252264   6.582   4.132  14.318  0.4713  0.5549 -0.5792
10258TIP3    H152265   6.528   4.093  14.249 -0.4096 -0.0247  0.4307
10258TIP3    H252266   6.586   4.066  14.387 -1.6965  2.5071  1.4997
10259TIP3   OH252267   6.719   3.150  15.805 -0.3164 -0.5486 -0.3588
10259TIP3    H152268   6.804   3.170  15.766  0.1518 -0.7401  0.5512
10259TIP3    H252269   6.712   3.055  15.798 -0.4623 -0.5312 -0.4485
10260TIP3   OH252270   6.809   5.505  14.338  0.2048 -0.0443 -0.1749
10260TIP3    H152271   6.884   5.495  14.280  0.7177  2.6684 -0.0747
10260TIP3    H252272   6.734   5.510  14.280  0.0764 -2.6180 -0.2843
10261TIP3   OH252273   2.627   5.012  14.556  0.2294  0.3147 -0.2984
10261TIP3    H152274   2.532   5.023  14.556  0.4333  2.2171 -0.3808
10261TIP3    H252275   2.657   5.056  14.635  0.8917 -1.9816  0.7732
10262TIP3   OH252276   4.917   3.048  12.693 -0.3725  0.0097 -0.1908
10262TIP3    H152277   4.932   3.036  12.599 -0.6375  0.7879 -0.3287
10262TIP3    H252278   4.833   3.003  12.709 -0.7726  0.6423 -0.4939
10263TIP3   OH252279   5.432   6.071   1.635 -0.4994  0.3581 -0.1749
10263TIP3    H152280   5.386   6.101   1.713  0.1046  2.3155 -0.5248
10263TIP3    H252281   5.379   6.104   1.562 -1.6448 -2.3792 -0.6279
10264TIP3   OH252282   5.934   5.518  12.185  0.4714  1.2323  0.1465
10264TIP3    H152283   5.897   5.598  12.147  0.6274  1.3996  0.3455
10264TIP3    H252284   5.976   5.474  12.111 -1.3467  0.3201 -0.3754
10265TIP3   OH252285   0.641   5.020   1.953 -0.0511 -0.2636  0.2499
10265TIP3    H152286   0.658   5.095   2.010  0.5461  0.0056 -0.2680
10265TIP3    H252287   0.717   4.963   1.965  0.0705 -0.2131 -0.2613
10266TIP3   OH252288   0.015   2.418  17.182  0.2570 -0.4100  0.0160
10266TIP3    H152289   0.040   2.458  17.099 -1.5093  0.4873 -0.1073
10266TIP3    H252290   0.082   2.448  17.244  0.3865  0.6552 -0.6251
10267TIP3   OH252291   0.289   2.514   0.423 -0.2304 -0.4325  0.1617
10267TIP3    H152292   0.249   2.537   0.507 -0.9246  0.5154 -0.4213
10267TIP3    H252293   0.343   2.590   0.400 -1.0437 -0.1552 -0.8596
10268TIP3   OH252294   2.402   0.245  14.931 -0.7747  0.0288 -0.0672
10268TIP3    H152295   2.493   0.270  14.910 -0.3054 -2.0393 -0.5615
10268TIP3    H252296   2.353   0.267  14.852 -0.3062 -0.8468 -0.6147
10269TIP3   OH252297   4.996   0.011   3.108  0.0621  0.3559 -0.1985
10269TIP3    H152298   5.074  -0.039   3.132 -1.3020 -1.0369  1.4343
10269TIP3    H252299   4.977   0.064   3.185 -0.6499  0.6351 -0.5617
10270TIP3   OH252300   1.276   0.893  12.478  0.0645  0.5312 -0.5778
10270TIP3    H152301   1.316   0.841  12.548 -2.2168 -1.0432 -0.3860
10270TIP3    H252302   1.311   0.981  12.491  0.6209  0.0116  1.8153
10271TIP3   OH252303   3.993   1.572   4.575  0.3063 -0.3003  0.2229
10271TIP3    H152304   4.055   1.505   4.547 -0.6683 -1.7199  1.3898
10271TIP3    H252305   4.041   1.625   4.639  0.9877 -0.0457 -0.4920
10272TIP3   OH252306   4.001   4.096  10.869  0.4766  0.0525  0.0842
10272TIP3    H152307   3.985   4.184  10.901  2.1149 -0.1392  1.4840
10272TIP3    H252308   4.052   4.108  10.789  1.4684  0.3689  0.7530
10273TIP3   OH252309   0.071   2.870  12.843  0.6432  0.1073 -0.1418
10273TIP3    H152310  -0.003   2.898  12.897  1.2822  2.4030 -0.4131
10273TIP3    H252311   0.049   2.780  12.818 -1.2227  0.1473  1.2084
10274TIP3   OH252312   1.078   0.231  12.699 -0.2539 -0.6098  0.1296
10274TIP3    H152313   0.986   0.228  12.728 -0.4359 -1.9447 -0.5497
10274TIP3    H252314   1.121   0.164  12.751  0.2002 -0.4472 -0.0398
10275TIP3   OH252315   3.860   5.615  16.027  0.2314  0.1473 -0.0594
10275TIP3    H152316   3.939   5.600  16.079  0.4187 -0.3215 -0.4732
10275TIP3    H252317   3.835   5.706  16.046  0.4750  0.0803  0.5993
10276TIP3   OH252318   3.788   3.041  13.193  0.2897  0.1081  0.1688
10276TIP3    H152319   3.865   3.032  13.248 -0.6182  0.8638  1.5904
10276TIP3    H252320   3.820   3.085  13.114  1.0549  1.7751  1.3764
10277TIP3   OH252321   1.947   4.319   5.942 -0.4639 -0.6159  0.1419
10277TIP3    H152322   1.920   4.389   6.001 -0.2749 -0.3787 -0.0549
10277TIP3    H252323   1.985   4.253   5.999 -1.0557 -0.7573  0.3735
10278TIP3   OH252324   6.339   6.010  14.816 -0.2965  0.0709  0.1759
10278TIP3    H152325   6.250   6.009  14.779 -0.3197  0.6414  0.2058
10278TIP3    H252326   6.390   5.955  14.756 -0.6409 -0.1533  0.0854
10279TIP3   OH252327   3.753   3.745   4.546 -0.0642  0.4736  0.0176
10279TIP3    H152328   3.786   3.780   4.629 -1.2239 -0.9997  1.1355
10279TIP3    H252329   3.800   3.794   4.479  2.6054  0.0867  1.5352
10280TIP3   OH252330   2.662   0.555   3.631 -0.3313  0.1223  0.0055
10280TIP3    H152331   2.654   0.529   3.540 -2.3518  2.1743 -0.4385
10280TIP3    H252332   2.715   0.634   3.629  0.9135 -0.6788  0.7750
10281TIP3   OH252333   5.273   2.601   6.554  0.2437  0.1380 -0.0181
10281TIP3    H152334   5.361   2.574   6.579  0.0235 -0.4755  0.1147
10281TIP3    H252335   5.243   2.654   6.627  0.1572 -0.4324  0.3698
10282TIP3   OH252336   1.915   2.714  15.037 -0.1824 -0.1030  0.6699
10282TIP3    H152337   1.987   2.716  15.100  0.3910  2.3584  0.0056
10282TIP3    H252338   1.900   2.621  15.020  3.1410 -0.6687  0.4574
10283TIP3   OH252339   5.656   2.553   0.308  0.3956  0.7695  0.2480
10283TIP3    H152340   5.630   2.642   0.284 -0.0087  0.2186 -1.4242
10283TIP3    H252341   5.716   2.525   0.239  0.0877 -0.4576  0.4491
10284TIP3   OH252342   5.956   3.524   1.914  0.4896  0.3419  0.0016
10284TIP3    H152343   5.963   3.611   1.952  0.8765  0.5494 -0.5538
10284TIP3    H252344   5.984   3.534   1.823 -0.3781 -0.1720 -0.3317
10285TIP3   OH252345   5.837   3.820  10.559 -0.0460 -0.0131  0.2924
10285TIP3    H152346   5.903   3.776  10.613  1.0304  0.4807 -0.6040
10285TIP3    H252347   5.780   3.864  10.622  1.8612  1.4860  1.0034
10286TIP3   OH252348   4.568   0.253   2.822 -0.2021  0.4134 -0.7438
10286TIP3    H152349   4.514   0.300   2.758 -0.8228 -0.2053 -0.6825
10286TIP3    H252350   4.655   0.291   2.813 -0.1502 -0.0491 -2.3477
10287TIP3   OH252351   4.047   4.286   0.929 -0.5295 -0.3675  0.5663
10287TIP3    H152352   4.088   4.324   1.007  0.6431 -1.1508  0.3403
10287TIP3    H252353   4.096   4.206   0.913  0.0383  0.4123 -1.7015
10288TIP3   OH252354   2.954   0.192  11.972 -0.1442 -0.0652 -0.2978
10288TIP3    H152355   2.980   0.151  11.889  0.8164 -0.4043  0.1600
10288TIP3    H252356   2.859   0.196  11.967 -0.0648  0.6555 -1.7642
10289TIP3   OH252357   5.565   4.103  11.084 -0.1717 -0.4040 -0.1562
10289TIP3    H152358   5.603   4.114  10.996 -1.3173  1.2588 -0.4724
10289TIP3    H252359   5.525   4.188  11.103  0.1779 -0.7071  2.0487
10290TIP3   OH252360   5.151   6.749  17.239  0.1046  0.0937  0.1168
10290TIP3    H152361   5.106   6.669  17.265  0.8898 -0.3117  0.2498
10290TIP3    H252362   5.225   6.719  17.186 -0.5013  0.8293 -1.1502
10291TIP3   OH252363   4.225   0.014   1.514 -0.6731  0.0503  0.4392
10291TIP3    H152364   4.143  -0.021   1.479 -1.3620  1.4853  0.5814
10291TIP3    H252365   4.228  -0.019   1.604 -2.5856  2.3675  1.4096
10292TIP3   OH252366   0.379   6.787  14.664 -0.6996  0.2579 -0.5057
10292TIP3    H152367   0.430   6.863  14.633 -0.0741 -0.6264 -1.6996
10292TIP3    H252368   0.407   6.776  14.755  1.1421 -0.0964 -1.0841
10293TIP3   OH252369   0.403   2.302   2.740 -0.1241  0.2308  0.1781
10293TIP3    H152370   0.431   2.266   2.656 -1.8643 -1.9311  0.4964
10293TIP3    H252371   0.483   2.305   2.793  0.5785 -0.4326 -0.8295
10294TIP3   OH252372   2.258   2.858  16.113 -0.7392 -0.6533  0.1801
10294TIP3    H152373   2.195   2.865  16.042  1.6983  1.5255 -1.8881
10294TIP3    H252374   2.297   2.772  16.103 -2.7642 -1.6963  0.9976
10295TIP3   OH252375   6.174   2.891   3.047 -0.2988  0.1306  0.1872
10295TIP3    H152376   6.133   2.809   3.021  2.0668 -1.0343  0.0278
10295TIP3    H252377   6.258   2.865   3.084 -0.1393  2.3802  1.5057
10296TIP3   OH252378   4.501   0.051  14.325  0.3793 -0.1166 -0.4888
10296TIP3    H152379   4.540   0.139  14.319 -1.8573  1.2193  3.2479
10296TIP3    H252380   4.574  -0.005  14.350  1.6132  0.8426 -1.8182
10297TIP3   OH252381   4.467   0.965  17.009  0.8703  0.3843 -0.4144
10297TIP3    H152382   4.531   0.908  16.966  0.5203  1.5271 -2.5165
10297TIP3    H252383   4.422   0.908  17.071  1.5308 -1.2681 -1.4157
10298TIP3   OH252384   5.747   3.213  12.828 -0.5303 -0.1146  0.5491
10298TIP3    H152385   5.677   3.268  12.793  1.5438  0.8824 -2.1170
10298TIP3    H252386   5.795   3.271  12.887  0.8161  0.5466 -1.1859
10299TIP3   OH252387   6.511   6.174  13.427  0.2357  0.2270 -0.0201
10299TIP3    H152388   6.561   6.134  13.355  0.9831  0.1484  0.5338
10299TIP3    H252389   6.509   6.106  13.494 -3.1869 -0.8870 -1.1705
10300TIP3   OH252390   5.383   4.196  15.911  0.2934  0.3188 -0.1564
10300TIP3    H152391   5.336   4.198  15.994  0.1626  0.5451 -0.2353
10300TIP3    H252392   5.329   4.142  15.853 -0.3189  1.3083 -0.5186
10301TIP3   OH252393   0.884   6.130  15.214  0.2469 -0.4084  0.2211
10301TIP3    H152394   0.819   6.189  15.253  0.3308 -0.5431  0.5680
10301TIP3    H252395   0.966   6.180  15.219  0.3911 -0.6975  0.8647
10302TIP3   OH252396   6.152   2.540   5.865  0.2258 -0.2449 -0.0857
10302TIP3    H152397   6.147   2.532   5.769 -0.7457 -1.2443  0.0372
10302TIP3    H252398   6.147   2.634   5.881  0.2100 -0.0757 -1.0109
10303TIP3   OH252399   5.999   4.674  16.038 -0.5661  0.0118  0.0931
10303TIP3    H152400   6.033   4.755  16.077  1.7732 -1.0453  0.3151
10303TIP3    H252401   5.925   4.650  16.094  1.0201  0.0060  2.2715
10304TIP3   OH252402   1.588   2.546  12.746  0.0669  0.0678 -0.2343
10304TIP3    H152403   1.532   2.577  12.817 -0.3004  1.2604 -1.0382
10304TIP3    H252404   1.600   2.453  12.765 -1.9212 -0.1462  0.1370
10305TIP3   OH252405   3.582   1.267   0.655 -0.2301  0.1730 -0.0689
10305TIP3    H152406   3.519   1.338   0.671  0.6882  1.0871 -0.4712
10305TIP3    H252407   3.665   1.300   0.689 -0.4043 -1.9146  2.4872
10306TIP3   OH252408   2.185   1.876  11.461  0.4160 -0.1954 -0.4813
10306TIP3    H152409   2.184   1.917  11.374  0.4631  0.3822 -0.2092
10306TIP3    H252410   2.163   1.947  11.521  1.6254 -0.3020  0.0987
10307TIP3   OH252411   0.574   3.164   5.660  0.4138  0.6877  0.2865
10307TIP3    H152412   0.667   3.173   5.679  0.3745  0.7108  0.4669
10307TIP3    H252413   0.567   3.080   5.613  0.3018 -0.1795  1.8110
10308TIP3   OH252414   0.303   2.907  13.497  0.1915 -0.4108 -0.5060
10308TIP3    H152415   0.257   2.963  13.435  0.3000  1.0026  0.6548
10308TIP3    H252416   0.291   2.951  13.582  1.0397 -1.6713  0.2818
10309TIP3   OH252417   2.526   2.813  11.152  0.4388 -0.0973 -0.6773
10309TIP3    H152418   2.558   2.836  11.239 -3.2144  1.0389  0.4425
10309TIP3    H252419   2.503   2.897  11.112 -0.0745 -0.7800 -1.8345
10310TIP3   OH252420   6.773   6.465  15.350  0.6140  0.2503  0.5987
10310TIP3    H152421   6.841   6.422  15.402  0.7600  0.0065  0.2161
10310TIP3    H252422   6.822   6.507  15.279  0.5529  1.7696  1.4431
10311TIP3   OH252423   0.590   0.629  14.509 -0.3768  0.5155 -0.4654
10311TIP3    H152424   0.658   0.640  14.442  0.9934 -0.0269  0.8124
10311TIP3    H252425   0.600   0.704  14.567  0.0406 -0.2741  0.5055
10312TIP3   OH252426   3.713   0.739   2.871  0.0399 -0.0200  0.1911
10312TIP3    H152427   3.735   0.669   2.932  0.4947 -0.4271 -0.4313
10312TIP3    H252428   3.795   0.761   2.828  0.4916  2.9817  2.4979
10313TIP3   OH252429   0.187   4.693  12.093  0.4347  0.4346  0.0623
10313TIP3    H152430   0.157   4.742  12.016  0.3689  0.0842 -0.1349
10313TIP3    H252431   0.107   4.669  12.139  0.2511 -2.2892 -1.5591
10314TIP3   OH252432   4.949   5.844   1.688  0.0108  0.6462 -0.6909
10314TIP3    H152433   4.861   5.847   1.649 -0.0314  2.4645 -0.4896
10314TIP3    H252434   4.978   5.754   1.673 -2.2470 -0.2523  0.0648
10315TIP3   OH252435   4.033   3.940   4.568  0.0344  0.7458  0.3104
10315TIP3    H152436   4.057   3.889   4.491  1.8258  2.3481 -0.2118
10315TIP3    H252437   4.055   4.030   4.546  0.5402  1.2378  2.6557
10316TIP3   OH252438   5.138   1.216  14.423  0.1599 -0.6040  0.4656
10316TIP3    H152439   5.199   1.282  14.391 -1.3304  0.4565 -0.2431
10316TIP3    H252440   5.153   1.214  14.518  0.6869  0.2499  0.4066
10317TIP3   OH252441   5.709   3.813   5.553  0.2549  0.1074 -0.0601
10317TIP3    H152442   5.688   3.776   5.467  0.8663 -1.6042  0.5173
10317TIP3    H252443   5.798   3.848   5.543  1.5621 -2.8851  0.7395
10318TIP3   OH252444   1.852   5.413  13.714 -0.1062 -0.9136 -0.2741
10318TIP3    H152445   1.782   5.357  13.749  0.0150 -0.2241  1.1225
10318TIP3    H252446   1.815   5.501  13.715 -0.3399 -0.9683 -2.6028
10319TIP3   OH252447   2.262   5.417   3.258  0.5777  0.6991 -0.3825
10319TIP3    H152448   2.219   5.463   3.185  1.7690  1.9166 -0.3499
10319TIP3    H252449   2.351   5.401   3.226  0.0680 -1.9954 -0.5452
10320TIP3   OH252450   4.580   3.724   2.525  0.7417  0.2518  0.4285
10320TIP3    H152451   4.550   3.774   2.449 -0.1608 -0.5495  0.2491
10320TIP3    H252452   4.640   3.658   2.489  1.7338  1.0355  0.6339
10321TIP3   OH252453   1.310   6.310   4.440  0.9012  0.1363 -0.2110
10321TIP3    H152454   1.298   6.226   4.395  2.0344 -1.3878  2.2007
10321TIP3    H252455   1.404   6.324   4.441  0.9881 -0.3064  2.3509
10322TIP3   OH252456   2.576   2.618   0.636 -0.3664  0.7088 -0.1819
10322TIP3    H152457   2.492   2.644   0.673 -0.8235  1.6572 -1.8076
10322TIP3    H252458   2.613   2.699   0.602 -0.4952 -0.2478 -2.7613
10323TIP3   OH252459   1.875   3.937  13.595  0.0960 -0.1646  0.2970
10323TIP3    H152460   1.816   4.000  13.636 -0.9635  0.2488 -1.7927
10323TIP3    H252461   1.910   3.886  13.668 -0.8722  1.2632  1.8011
10324TIP3   OH252462   1.804   3.458  15.602 -0.5470  0.6223  0.1671
10324TIP3    H152463   1.770   3.495  15.520  0.1747  0.0575 -0.3891
10324TIP3    H252464   1.743   3.490  15.669 -1.0670  1.2008 -0.5639
10325TIP3   OH252465   1.098   3.860  16.238  0.0829  0.0764  0.6234
10325TIP3    H152466   1.078   3.815  16.321 -0.0890  0.2225  0.6608
10325TIP3    H252467   1.139   3.792  16.184 -0.4541 -0.2050  0.5672
10326TIP3   OH252468   1.339   1.371   1.657  0.1154 -0.3594 -0.1466
10326TIP3    H152469   1.370   1.318   1.584  0.7407  0.8788 -0.8044
10326TIP3    H252470   1.352   1.317   1.734  0.4026 -1.2931 -0.8471
10327TIP3   OH252471   0.888   4.637  14.205  0.2063 -0.7754 -0.3837
10327TIP3    H152472   0.839   4.596  14.134 -2.1038  0.0172  0.7128
10327TIP3    H252473   0.912   4.565  14.263  1.2793 -1.2971 -1.4596
10328TIP3   OH252474   0.823   0.097  13.026 -0.1711  0.5907  0.3090
10328TIP3    H152475   0.836   0.161  12.956  2.8006  1.3323  1.4781
10328TIP3    H252476   0.761   0.138  13.086 -0.2069  1.3139 -0.2175
10329TIP3   OH252477   1.273   6.709   0.518  0.2802 -0.1202 -0.5868
10329TIP3    H152478   1.280   6.707   0.423  0.6394  0.5589 -0.5788
10329TIP3    H252479   1.180   6.721   0.536 -0.1642 -2.9055 -0.8053
10330TIP3   OH252480   1.750   0.613  11.531  0.3460 -0.0094 -0.1878
10330TIP3    H152481   1.794   0.696  11.513 -0.6468  0.6272  0.2297
10330TIP3    H252482   1.797   0.549  11.479  0.5874  0.9693 -1.1922
10331TIP3   OH252483   4.868   4.031  17.251  0.0198 -0.6351  0.0679
10331TIP3    H152484   4.931   3.974  17.295  0.8116  0.0192 -0.2009
10331TIP3    H252485   4.852   4.102  17.313  1.1688  0.3088 -0.6937
10332TIP3   OH252486   2.964   1.426  16.017  0.0867  0.0263  0.1093
10332TIP3    H152487   2.929   1.340  15.990 -3.1357  0.9943  1.0088
10332TIP3    H252488   2.933   1.486  15.949 -0.3238  0.9741  1.1317
10333TIP3   OH252489   1.919   2.328   0.682  0.3028 -0.3260  0.2291
10333TIP3    H152490   1.930   2.306   0.589  0.6034 -0.4885  0.3025
10333TIP3    H252491   1.861   2.261   0.716 -1.2101  0.7162 -0.2344
10334TIP3   OH252492   4.882   0.872  11.716  0.3743 -1.1060 -0.7351
10334TIP3    H152493   4.964   0.847  11.671  1.3706  1.6397 -0.5412
10334TIP3    H252494   4.814   0.858  11.650  1.5291  0.5536 -2.3209
10335TIP3   OH252495   1.510   3.729  15.111 -0.0675 -0.1246 -0.2499
10335TIP3    H152496   1.472   3.657  15.163  1.4583  0.5080  1.8034
10335TIP3    H252497   1.447   3.800  15.120 -0.0657 -0.1902  0.3171
10336TIP3   OH252498   2.777   1.760   2.186 -0.3736 -0.0096 -0.4354
10336TIP3    H152499   2.796   1.668   2.170 -1.6691 -0.5206  0.8006
10336TIP3    H252500   2.857   1.807   2.161  0.3631 -1.4872 -0.8561
10337TIP3   OH252501   4.149   2.496  14.669  0.5079  0.1350  0.4302
10337TIP3    H152502   4.233   2.542  14.664  1.5727 -1.7745  0.5697
10337TIP3    H252503   4.158   2.437  14.743 -0.5814 -0.8589 -0.2212
10338TIP3   OH252504   0.362   1.451   4.092  0.9552  0.1031 -0.0260
10338TIP3    H152505   0.317   1.453   4.007  1.1749 -1.7537 -0.2103
10338TIP3    H252506   0.350   1.539   4.127 -2.6068 -0.2276 -0.1867
10339TIP3   OH252507   1.756   0.301  10.704  0.3812  0.4069  0.4173
10339TIP3    H152508   1.828   0.309  10.641 -0.9068 -1.4965 -1.3790
10339TIP3    H252509   1.709   0.223  10.676 -1.6639  0.9098  2.3268
10340TIP3   OH252510   2.636   0.940  11.582 -0.1450  0.0797  0.0745
10340TIP3    H152511   2.730   0.925  11.592 -0.5255 -1.4547  1.5356
10340TIP3    H252512   2.597   0.853  11.585 -1.5163  0.6024 -1.8566
10341TIP3   OH252513   3.273   4.943  15.502  0.3982 -0.0156 -0.2494
10341TIP3    H152514   3.181   4.967  15.490 -0.0990 -2.0128 -0.5832
10341TIP3    H252515   3.290   4.878  15.434  1.8284 -0.2884  0.3560
10342TIP3   OH252516   5.534   0.573  14.175 -0.0327 -0.3153 -0.0359
10342TIP3    H152517   5.487   0.654  14.151  2.8292  1.3209 -0.3333
10342TIP3    H252518   5.556   0.533  14.091  0.6863 -0.1238  0.0600
10343TIP3   OH252519   1.379   6.489   4.745 -0.1588  0.1941 -0.3056
10343TIP3    H152520   1.299   6.494   4.693 -0.2994  1.2607  0.0111
10343TIP3    H252521   1.412   6.400   4.729 -0.7250  0.1773 -1.4315
10344TIP3   OH252522   0.180   4.928   1.775 -0.1581 -0.1377 -0.0739
10344TIP3    H152523   0.217   5.016   1.763 -0.0204  0.0267  1.5281
10344TIP3    H252524   0.088   4.938   1.749 -0.7608  1.0798  2.3925
10345TIP3   OH252525   0.880   2.733   2.364  0.2711 -0.0464 -0.2996
10345TIP3    H152526   0.874   2.654   2.418 -1.6708  0.3740  0.1304
10345TIP3    H252527   0.841   2.707   2.280  0.3617  0.2248 -0.4242
10346TIP3   OH252528   3.086   1.376   1.266  0.4138  0.3820  0.3289
10346TIP3    H152529   2.998   1.385   1.302 -0.1191 -1.0046 -0.5597
10346TIP3    H252530   3.120   1.296   1.306 -0.1487 -1.1178 -2.0961
10347TIP3   OH252531   6.050   5.377  11.179 -0.3966  0.2213 -0.2411
10347TIP3    H152532   6.078   5.409  11.093 -0.3291 -0.2074 -0.3834
10347TIP3    H252533   6.118   5.406  11.239 -0.0961 -0.0570 -0.4434
10348TIP3   OH252534   3.110   4.823   2.134 -0.0256  0.0229  0.1670
10348TIP3    H152535   3.119   4.798   2.226  0.2144  0.3744  0.2400
10348TIP3    H252536   3.044   4.763   2.100 -0.1517 -0.0808  0.5817
10349TIP3   OH252537   1.596   4.206   1.057  0.3919 -0.3853 -0.5474
10349TIP3    H152538   1.680   4.234   1.094 -1.1695  1.7515  1.6010
10349TIP3    H252539   1.574   4.274   0.993 -0.1390 -0.4224 -0.4083
10350TIP3   OH252540   5.287   3.181   1.201 -0.1669 -0.0125  1.1681
10350TIP3    H152541   5.364   3.231   1.229  0.8016 -0.0268 -1.3398
10350TIP3    H252542   5.218   3.246   1.193  0.9767  0.9278 -1.6625
10351TIP3   OH252543   4.336   0.565   6.755 -0.9639  0.8115  0.0936
10351TIP3    H152544   4.406   0.616   6.796 -0.4388  0.1470  0.0293
10351TIP3    H252545   4.256   0.610   6.781 -0.5370  1.3854  0.4423
10352TIP3   OH252546   2.916   6.341   2.212 -0.2727 -0.0498 -0.3835
10352TIP3    H152547   2.928   6.304   2.299  1.2920 -0.1099 -0.6090
10352TIP3    H252548   2.980   6.296   2.157 -1.6627 -0.4547 -1.7052
10353TIP3   OH252549   6.729   3.067  13.309  0.2941  0.2336  0.3803
10353TIP3    H152550   6.776   3.134  13.359 -0.6641  0.4260  1.0245
10353TIP3    H252551   6.638   3.096  13.308  0.1103 -0.3496 -0.5179
10354TIP3   OH252552   4.038   3.306   1.358  0.3072  0.0718 -0.0540
10354TIP3    H152553   4.090   3.337   1.283  0.2942 -1.0209 -0.5195
10354TIP3    H252554   3.950   3.337   1.341 -0.4000 -2.8469 -2.1241
10355TIP3   OH252555   3.589   5.496   1.760 -0.6312 -0.0708 -0.6264
10355TIP3    H152556   3.681   5.521   1.766 -1.2878  2.3242 -0.1785
10355TIP3    H252557   3.558   5.494   1.851 -0.9970 -1.0190 -0.7606
10356TIP3   OH252558   2.866   4.310   3.998 -0.2816  0.7504  0.0078
10356TIP3    H152559   2.877   4.403   3.981  0.4045  0.9052  1.2494
10356TIP3    H252560   2.845   4.272   3.913 -0.1265  1.9694 -0.5775
10357TIP3   OH252561   5.313   5.884   1.805  0.3476  0.4967  0.0761
10357TIP3    H152562   5.305   5.945   1.731 -0.5713 -0.0789 -0.3041
10357TIP3    H252563   5.285   5.800   1.770  0.0411  0.1887  1.0485
10358TIP3   OH252564   4.842   4.201   2.280  0.6614 -0.0651  0.2294
10358TIP3    H152565   4.861   4.192   2.373  0.9111 -0.4997  0.1365
10358TIP3    H252566   4.769   4.141   2.265 -0.0707  0.7781  0.3573
10359TIP3   OH252567   1.505   3.333   0.703 -0.6229  0.2538 -0.6666
10359TIP3    H152568   1.600   3.343   0.708 -0.2479 -1.7689 -2.4650
10359TIP3    H252569   1.480   3.377   0.622 -1.1912  0.5369 -0.3441
10360TIP3   OH252570   3.364   5.798   4.082 -0.1440  0.3323  0.1927
10360TIP3    H152571   3.284   5.804   4.135 -0.5992 -1.8875 -0.2258
10360TIP3    H252572   3.431   5.767   4.142  0.1065  0.8912  0.2116
10361TIP3   OH252573   3.842   2.575   0.627 -0.3809 -0.0399  0.0756
10361TIP3    H152574   3.777   2.644   0.613  0.2514  0.3184 -1.1360
10361TIP3    H252575   3.926   2.617   0.609  0.0181 -1.0636 -0.4639
10362TIP3   OH252576   0.488   4.087   0.356 -0.3865  0.1002 -0.3900
10362TIP3    H152577   0.433   4.031   0.411  0.9285 -0.0234  0.8356
10362TIP3    H252578   0.555   4.120   0.416 -0.7967  2.5476 -1.2219
10363TIP3   OH252579   5.342   3.750   5.310  0.2318 -0.3742 -0.0725
10363TIP3    H152580   5.403   3.807   5.264 -0.3053 -0.8756 -1.4423
10363TIP3    H252581   5.267   3.806   5.331 -1.0051 -0.9201 -2.8557
10364TIP3   OH252582   6.128   1.330   1.703  0.8154 -0.0319  0.5371
10364TIP3    H152583   6.205   1.275   1.716  1.7324  1.1841  0.2858
10364TIP3    H252584   6.141   1.405   1.762  0.2439  0.6138 -0.1472
10365TIP3   OH252585   2.005   1.536  15.611 -0.1508 -0.1122  0.2309
10365TIP3    H152586   2.100   1.525  15.612  0.1772  2.5659  1.6729
10365TIP3    H252587   1.980   1.541  15.703 -1.6663 -0.3836 -0.1482
10366TIP3   OH252588   6.615   0.734  15.303 -0.3708 -0.0175 -0.4881
10366TIP3    H152589   6.617   0.664  15.369  2.3977  0.6140  0.1501
10366TIP3    H252590   6.554   0.799  15.339 -0.5587 -0.6810  0.4055
10367TIP3   OH252591   0.214   2.547  11.471 -0.5276  0.0761  0.0761
10367TIP3    H152592   0.133   2.506  11.441 -0.0332 -2.0801  1.6286
10367TIP3    H252593   0.274   2.538  11.396 -1.3695  0.7768 -0.7031
10368TIP3   OH252594   1.576   3.132   4.153  0.0623 -0.3571  0.2655
10368TIP3    H152595   1.566   3.112   4.247  3.3640 -0.3000  0.6807
10368TIP3    H252596   1.652   3.080   4.126 -1.9802 -1.8371 -2.8708
10369TIP3   OH252597   5.360   2.565   3.160  0.0634 -0.0063 -0.0475
10369TIP3    H152598   5.273   2.582   3.198 -0.7908  0.5182 -2.1700
10369TIP3    H252599   5.357   2.474   3.133  0.8870 -0.5538  1.6652
10370TIP3   OH252600   2.076   2.247   5.490  0.2567 -0.3154  0.0826
10370TIP3    H152601   2.021   2.170   5.476 -0.8223  0.4530  0.1463
10370TIP3    H252602   2.108   2.237   5.580  0.8222 -1.1269 -0.1967
10371TIP3   OH252603   5.606   5.252  12.345 -0.2380 -0.0239 -0.5944
10371TIP3    H152604   5.597   5.318  12.277 -0.9027  1.1333  0.5735
10371TIP3    H252605   5.697   5.258  12.374 -0.1596  0.0169 -0.8526
10372TIP3   OH252606   6.565   6.279   1.704  0.5251 -0.2613  0.3283
10372TIP3    H152607   6.491   6.229   1.739  0.4812 -0.5682 -0.2053
10372TIP3    H252608   6.534   6.369   1.700  0.0945 -0.4303 -0.1339
10373TIP3   OH252609   0.726   2.022  17.032  0.0286 -0.1393  0.3612
10373TIP3    H152610   0.767   1.990  17.112  2.7427  0.9808 -0.5191
10373TIP3    H252611   0.720   2.117  17.044 -2.8470 -0.3097  0.6680
10374TIP3   OH252612   1.061   4.979  16.806 -0.3339 -0.5601  0.6614
10374TIP3    H152613   1.029   4.928  16.881 -0.2872 -0.6919  0.5929
10374TIP3    H252614   1.156   4.973  16.813 -0.3309 -0.6622  0.5314
10375TIP3   OH252615   3.240   6.195   3.542  0.6947 -0.2817  0.5148
10375TIP3    H152616   3.170   6.259   3.527 -0.5069 -1.7316 -0.2659
10375TIP3    H252617   3.271   6.215   3.631 -1.1337  0.0306  1.1235
10376TIP3   OH252618   1.632   2.827  16.446  0.7004  0.1388 -0.6955
10376TIP3    H152619   1.538   2.816  16.430  0.7115 -0.2957 -0.4604
10376TIP3    H252620   1.660   2.891  16.380  0.0920  0.8519 -0.2682
10377TIP3   OH252621   5.434   3.064  16.485  0.1624 -0.0912 -0.6705
10377TIP3    H152622   5.407   2.977  16.517 -0.5187  0.1997 -0.4338
10377TIP3    H252623   5.480   3.103  16.559  4.1987 -1.8579 -2.1571
10378TIP3   OH252624   4.082   0.390   5.460  0.1923  0.3051  0.1274
10378TIP3    H152625   4.150   0.360   5.399 -0.3177 -0.5295 -0.0531
10378TIP3    H252626   4.035   0.458   5.411  0.6497  0.6079  0.1061
10379TIP3   OH252627   2.183   1.478   5.980 -0.3717 -0.3714  0.1830
10379TIP3    H152628   2.263   1.531   5.980 -0.8725  0.3978  0.1383
10379TIP3    H252629   2.118   1.534   6.022 -1.0012 -0.8226 -0.1896
10380TIP3   OH252630   2.278   4.222  14.647  0.2738 -0.6146 -0.3723
10380TIP3    H152631   2.312   4.286  14.711 -2.3495 -1.2273  1.6950
10380TIP3    H252632   2.331   4.144  14.663 -0.4935 -0.8308  1.2230
10381TIP3   OH252633   4.222   2.221  16.350  0.6739  0.0252  0.3257
10381TIP3    H152634   4.300   2.166  16.350  0.5270 -0.1868 -0.2191
10381TIP3    H252635   4.183   2.207  16.264 -1.7022 -2.3424  1.7069
10382TIP3   OH252636   1.179   3.855  14.548  0.1142 -0.6433  0.0000
10382TIP3    H152637   1.113   3.825  14.485 -0.0010  1.5508 -0.9533
10382TIP3    H252638   1.261   3.854  14.499  0.0921  0.6869 -0.0579
10383TIP3   OH252639   6.693   0.592  15.518 -0.1588  0.3980 -0.0155
10383TIP3    H152640   6.667   0.605  15.609 -1.1321 -2.1597  0.1264
10383TIP3    H252641   6.754   0.518  15.521 -0.7450 -0.1762 -1.4941
10384TIP3   OH252642   3.109   1.764   4.519 -0.0914  0.3464  0.1171
10384TIP3    H152643   3.180   1.704   4.497  0.0964  1.3619 -2.1649
10384TIP3    H252644   3.038   1.707   4.549  0.3189 -0.9865 -1.3727
10385TIP3   OH252645   6.770   2.340   4.871  0.7649 -0.0030 -0.0389
10385TIP3    H152646   6.853   2.342   4.824 -0.8468 -0.9739 -3.0567
10385TIP3    H252647   6.742   2.248   4.866 -1.2106  0.6028 -0.4014
10386TIP3   OH252648   0.139   2.209   2.726 -0.1667 -0.5405 -0.3533
10386TIP3    H152649   0.106   2.248   2.645  0.0906 -0.2540 -0.3212
10386TIP3    H252650   0.232   2.234   2.728 -0.3956  0.2501  0.5045
10387TIP3   OH252651   3.258   4.484  11.348 -0.4210 -0.3343  0.2089
10387TIP3    H152652   3.318   4.490  11.274 -1.4081 -1.1499 -0.6606
10387TIP3    H252653   3.313   4.501  11.425  0.7582 -0.2967 -0.6386
10388TIP3   OH252654   6.123   2.892  14.886  0.5950 -0.2059  0.5448
10388TIP3    H152655   6.168   2.836  14.823 -2.1535 -0.7943 -0.9671
10388TIP3    H252656   6.067   2.948  14.832 -1.6583 -0.5795  2.4266
10389TIP3   OH252657   5.966   5.575   3.437  0.0833  0.2765  0.1206
10389TIP3    H152658   6.007   5.633   3.373 -1.3275  1.1864  0.0353
10389TIP3    H252659   5.927   5.505   3.384  2.3238 -1.1579  0.2573
10390TIP3   OH252660   1.376   3.891   6.416  0.0183 -0.3125  0.3426
10390TIP3    H152661   1.407   3.908   6.327  1.1534 -1.5082  0.5027
10390TIP3    H252662   1.293   3.845   6.403 -0.2689  0.3063 -0.0809
10391TIP3   OH252663   5.052   1.877  16.134  0.3097 -0.2302  0.0038
10391TIP3    H152664   5.114   1.818  16.177  1.8511  1.9877  0.9003
10391TIP3    H252665   5.103   1.921  16.066 -0.3111  1.4458  0.5989
10392TIP3   OH252666   4.382   3.882  13.249  0.6413 -0.5102  0.4936
10392TIP3    H152667   4.409   3.832  13.171  0.7514  0.5746 -0.1732
10392TIP3    H252668   4.414   3.830  13.323  0.7766 -1.4140 -0.1865
10393TIP3   OH252669   5.176   4.146   0.025 -0.1747  0.4631 -0.2361
10393TIP3    H152670   5.173   4.241   0.020 -0.4081  0.4940  0.4488
10393TIP3    H252671   5.171   4.126   0.119  1.4372 -0.1593 -0.2574
10394TIP3   OH252672   5.127   0.112  11.625 -0.6219 -0.0990 -0.5438
10394TIP3    H152673   5.183   0.068  11.561 -0.6204  0.6897 -1.0939
10394TIP3    H252674   5.086   0.183  11.576 -1.2099  0.0440  0.1486
10395TIP3   OH252675   2.270   1.252   0.475  0.5217 -0.7462  0.5361
10395TIP3    H152676   2.304   1.337   0.450  0.6718 -1.4419 -1.7353
10395TIP3    H252677   2.250   1.209   0.392  0.3836 -2.8946  1.6505
10396TIP3   OH252678   0.558   1.202  12.195 -0.4861 -0.0955 -0.0700
10396TIP3    H152679   0.483   1.259  12.177 -0.4666  0.2262  0.8458
10396TIP3    H252680   0.553   1.134  12.128 -0.7603  0.7391 -0.9019
10397TIP3   OH252681   1.890   6.604  15.233 -0.2140  0.4204  0.6057
10397TIP3    H152682   1.974   6.593  15.278 -0.9229  1.9377  2.3470
10397TIP3    H252683   1.897   6.690  15.191  0.7951 -1.3516 -3.0462
10398TIP3   OH252684   3.520   2.211   5.005 -0.1159 -0.2201  0.4175
10398TIP3    H152685   3.486   2.139   4.952 -1.8051 -0.0557  1.2579
10398TIP3    H252686   3.566   2.167   5.077  0.7205 -0.4434 -0.2465
10399TIP3   OH252687   2.454   1.425   2.026 -0.5526  0.0336  0.2562
10399TIP3    H152688   2.448   1.336   2.061 -0.2953  0.3017  1.0012
10399TIP3    H252689   2.364   1.451   2.010 -0.4887 -1.2792 -2.3413
10400TIP3   OH252690   4.655   4.521  16.197  0.1638 -0.1893 -0.4264
10400TIP3    H152691   4.654   4.475  16.114 -3.2093  0.4623 -0.8307
10400TIP3    H252692   4.652   4.614  16.174 -0.9825 -0.0048  0.3872
10401TIP3   OH252693   5.917   5.568   6.609  0.2285 -0.4658 -0.4170
10401TIP3    H152694   5.933   5.623   6.532  1.0154  0.2627  0.2536
10401TIP3    H252695   5.995   5.513   6.617 -0.0870 -0.9217 -0.4564
10402TIP3   OH252696   6.074   1.699  14.978 -0.2197  0.1877 -0.1039
10402TIP3    H152697   6.138   1.754  15.024 -1.4936  2.0034 -0.4769
10402TIP3    H252698   6.101   1.609  14.999  1.9839  0.9226  0.3787
10403TIP3   OH252699   6.641   3.847  10.556 -0.2076 -0.6031  0.6539
10403TIP3    H152700   6.568   3.831  10.496 -0.4062 -1.5176  1.1348
10403TIP3    H252701   6.601   3.892  10.631  0.1841  1.3296 -0.2565
10404TIP3   OH252702   6.030   0.362   0.800 -0.0996  0.3181  0.1741
10404TIP3    H152703   5.955   0.333   0.851 -1.7352  2.5191 -0.8750
10404TIP3    H252704   6.035   0.301   0.727 -0.2387 -0.4385  0.7930
10405TIP3   OH252705   6.259   5.969  13.058  0.6333  0.1663  0.1327
10405TIP3    H152706   6.305   6.025  12.996  2.1584 -1.9207 -0.6711
10405TIP3    H252707   6.328   5.918  13.100 -0.8246 -2.3567 -0.4054
10406TIP3   OH252708   5.386   5.285   5.550  0.0295  0.9710  0.0371
10406TIP3    H152709   5.400   5.236   5.631 -0.7144  0.6466 -0.0262
10406TIP3    H252710   5.419   5.373   5.569  0.2878  0.7676  0.5357
10407TIP3   OH252711   4.488   3.723  15.387  0.3331 -0.0279  0.3581
10407TIP3    H152712   4.551   3.774  15.437  0.9982 -0.6069  0.1231
10407TIP3    H252713   4.408   3.775  15.389 -0.5206 -1.3305  4.3909
10408TIP3   OH252714   0.056   6.729   1.616  0.4317  0.2845  0.6136
10408TIP3    H152715   0.019   6.779   1.689 -1.2354  2.3812 -1.6192
10408TIP3    H252716   0.089   6.795   1.555 -1.1900 -1.2866 -2.0695
10409TIP3   OH252717   1.631   3.250  12.553  0.3534  0.1466 -0.2042
10409TIP3    H152718   1.605   3.334  12.517  1.6425  1.3846  1.6590
10409TIP3    H252719   1.549   3.205  12.572 -0.3439  1.3050 -0.4817
10410TIP3   OH252720   5.928   5.215   4.050 -0.1441  0.2372 -0.0544
10410TIP3    H152721   5.847   5.240   4.004 -2.0423 -1.6331  2.1622
10410TIP3    H252722   5.962   5.141   4.000  2.4011  3.3641 -3.2592
10411TIP3   OH252723   2.756   0.561  15.275 -0.1463 -0.3292 -0.4012
10411TIP3    H152724   2.799   0.480  15.302 -0.5209 -0.4567 -0.1823
10411TIP3    H252725   2.680   0.568  15.332  0.5356  0.8033  0.3843
10412TIP3   OH252726   1.885   1.055   5.202 -0.3675  0.0560 -0.3305
10412TIP3    H152727   1.955   1.103   5.245  0.8950 -1.5391 -0.5791
10412TIP3    H252728   1.819   1.041   5.270  0.3139  0.1008  0.3346
10413TIP3   OH252729   0.586   5.015   5.261 -0.3838 -0.3681 -0.0257
10413TIP3    H152730   0.541   5.097   5.279 -1.0542 -0.6029 -0.6034
10413TIP3    H252731   0.671   5.025   5.303 -0.3077  0.7781 -0.4262
10414TIP3   OH252732   1.915   4.573   4.036 -0.4425  0.0161  0.2106
10414TIP3    H152733   1.933   4.645   3.975  1.0376 -0.3562  0.1983
10414TIP3    H252734   1.996   4.562   4.085 -1.3982 -0.1449  1.7907
10415TIP3   OH252735   5.280   3.889  16.596 -0.6201 -0.3335  0.1809
10415TIP3    H152736   5.233   3.853  16.671  0.1238 -1.7116  0.0087
10415TIP3    H252737   5.286   3.817  16.534 -1.0198  0.7252 -1.1211
10416TIP3   OH252738   5.365   0.846   2.924 -0.1890  0.1924 -0.3414
10416TIP3    H152739   5.452   0.806   2.932  0.6726  1.7763 -1.4186
10416TIP3    H252740   5.349   0.849   2.830 -1.5659 -0.3742 -0.1346
10417TIP3   OH252741   0.764   4.906  11.063 -0.3763  0.0600  0.0007
10417TIP3    H152742   0.718   4.825  11.044  1.4566 -1.4049  1.6369
10417TIP3    H252743   0.713   4.947  11.133 -1.3942  0.4296 -0.9417
10418TIP3   OH252744   2.795   2.458  15.432  0.0063 -0.0367  0.0897
10418TIP3    H152745   2.729   2.517  15.469  1.3699  2.0453 -0.7144
10418TIP3    H252746   2.814   2.396  15.503  0.4450  2.1091  1.8786
10419TIP3   OH252747   2.504   1.225  15.562  1.0613 -0.1699 -0.2788
10419TIP3    H152748   2.412   1.225  15.590  0.9286 -0.0375 -0.7074
10419TIP3    H252749   2.500   1.233  15.467  1.4757 -1.7277 -0.4411
10420TIP3   OH252750   0.688   3.124   1.652  0.8007  0.7645 -0.0666
10420TIP3    H152751   0.773   3.090   1.625 -0.4536 -2.2327 -0.4686
10420TIP3    H252752   0.682   3.210   1.611  2.4195 -0.2267 -2.4546
10421TIP3   OH252753   3.243   0.080  10.345 -0.0804 -0.3467  0.2764
10421TIP3    H152754   3.261  -0.008  10.377 -0.8488 -0.3805  0.6209
10421TIP3    H252755   3.153   0.098  10.371  0.2374  0.7401  0.6613
10422TIP3   OH252756   0.452   5.363  14.380 -0.2342 -0.5476  0.0124
10422TIP3    H152757   0.548   5.371  14.379 -0.1101 -2.0152 -1.5523
10422TIP3    H252758   0.430   5.329  14.293 -2.1777 -0.3510  0.4077
10423TIP3   OH252759   4.670   3.096  13.124  0.2956  0.1351  0.2259
10423TIP3    H152760   4.700   3.016  13.167 -2.0608 -0.1430  1.4735
10423TIP3    H252761   4.614   3.065  13.053  0.5031  0.6672 -0.1718
10424TIP3   OH252762   4.752   1.803  14.225 -0.5159  0.1307 -0.1427
10424TIP3    H152763   4.805   1.771  14.151 -2.4807 -1.1831 -1.0451
10424TIP3    H252764   4.682   1.854  14.183 -1.4050 -0.2745  0.8453
10425TIP3   OH252765   3.374   6.652   6.158 -0.5390  0.3052  0.2510
10425TIP3    H152766   3.352   6.605   6.239  1.3473  0.4554  0.8734
10425TIP3    H252767   3.413   6.734   6.188  0.4282  0.2420 -0.8175
10426TIP3   OH252768   6.589   4.801  13.290 -0.2905 -0.3491 -0.2508
10426TIP3    H152769   6.659   4.866  13.289 -1.1105  0.5324 -0.6773
10426TIP3    H252770   6.589   4.765  13.201 -1.0174  0.3476 -0.5381
10427TIP3   OH252771   4.254   2.941  13.351 -0.1813  0.4264 -0.2117
10427TIP3    H152772   4.230   2.876  13.417  0.1305  0.9445  0.4183
10427TIP3    H252773   4.332   2.905  13.310 -0.0131  0.4010  0.1306
10428TIP3   OH252774   6.573   1.021   6.103 -0.0392 -0.5722 -0.0749
10428TIP3    H152775   6.481   1.016   6.129  0.4421 -0.5483  1.7004
10428TIP3    H252776   6.589   1.115   6.091  0.0833 -0.4758  0.8474
10429TIP3   OH252777   2.836   1.443   1.048 -0.4144 -0.2643  0.3409
10429TIP3    H152778   2.754   1.459   1.095 -0.6094 -0.6861  0.1475
10429TIP3    H252779   2.877   1.370   1.095 -0.6107 -0.6903 -0.1360
10430TIP3   OH252780   2.749   2.227  11.832 -0.8768  0.1833  0.2824
10430TIP3    H152781   2.697   2.148  11.849 -0.0418 -0.0999  1.6127
10430TIP3    H252782   2.754   2.271  11.917  0.3012  0.6556 -0.0193
10431TIP3   OH252783   5.230   1.950  16.671  0.4778  0.1287  0.1139
10431TIP3    H152784   5.158   1.890  16.694  0.2862  0.2393 -0.1879
10431TIP3    H252785   5.288   1.898  16.615  0.4365  0.1498  0.0514
10432TIP3   OH252786   6.770   1.906   2.978 -0.0463 -0.2474  0.2816
10432TIP3    H152787   6.803   1.995   2.992 -0.4703  0.1588 -1.2651
10432TIP3    H252788   6.688   1.918   2.930  0.0053 -1.4945 -0.1297
10433TIP3   OH252789   1.748   2.877  16.699 -0.0424  1.0196  0.8080
10433TIP3    H152790   1.691   2.862  16.624 -0.4760  1.8811  0.9659
10433TIP3    H252791   1.718   2.814  16.765  0.8892 -0.3300 -0.0250
10434TIP3   OH252792   2.082   4.040   0.969  0.0122  0.5572  0.3119
10434TIP3    H152793   2.064   4.131   0.947  2.0379  1.0573  0.7062
10434TIP3    H252794   2.118   4.042   1.057  0.8963 -0.5313 -0.0076
10435TIP3   OH252795   5.550   1.896   5.706  0.4956  0.2480 -0.2862
10435TIP3    H152796   5.466   1.940   5.703  1.1134  1.3874 -1.1841
10435TIP3    H252797   5.530   1.804   5.690 -0.6613  0.3913  0.3330
10436TIP3   OH252798   4.949   0.433   5.132 -0.3434  0.2621 -0.4433
10436TIP3    H152799   5.004   0.440   5.053  1.1155 -1.6190  0.3823
10436TIP3    H252800   4.928   0.341   5.138  0.5488  0.1942  2.0237
10437TIP3   OH252801   2.762   3.733  15.717 -0.3645 -0.1682 -0.2270
10437TIP3    H152802   2.761   3.750  15.812 -0.8416  0.2250 -0.3041
10437TIP3    H252803   2.711   3.653  15.706 -0.1557 -0.3164 -0.1339
10438TIP3   OH252804   0.846   3.019  17.161 -0.0202  0.6553 -0.0837
10438TIP3    H152805   0.772   3.019  17.100  0.2795  0.6561 -0.4490
10438TIP3    H252806   0.914   3.069  17.116 -0.0085  1.1814  0.5071
10439TIP3   OH252807   6.776   4.474  14.170 -0.0557 -0.1769  0.5878
10439TIP3    H152808   6.700   4.441  14.216 -1.5521  1.6242 -0.5245
10439TIP3    H252809   6.848   4.468  14.233 -1.0328 -2.0957  1.5648
10440TIP3   OH252810   5.251   6.552   1.673 -0.6745 -0.2440 -0.5232
10440TIP3    H152811   5.259   6.644   1.649  0.5473 -0.0642  0.5159
10440TIP3    H252812   5.159   6.531   1.658 -0.3313  0.2758 -3.8121
10441TIP3   OH252813   4.964   1.188   0.434  0.2396  0.2882 -0.0790
10441TIP3    H152814   5.046   1.138   0.437 -0.4887 -0.9035 -0.0180
10441TIP3    H252815   4.913   1.156   0.509 -1.3320 -0.7894 -1.5813
10442TIP3   OH252816   5.858   0.505   3.803 -0.2738 -0.0061  0.4246
10442TIP3    H152817   5.837   0.588   3.847  0.3003 -0.6808  1.9995
10442TIP3    H252818   5.885   0.531   3.715 -0.4411  1.4542  0.7880
10443TIP3   OH252819   1.228   0.341  15.797  0.2726  0.5879  0.0704
10443TIP3    H152820   1.293   0.327  15.728  0.8610 -2.1442  1.1244
10443TIP3    H252821   1.259   0.288  15.870 -0.6457  2.9921  2.2754
10444TIP3   OH252822   2.442   1.128  16.407 -0.3097  0.1245 -0.6440
10444TIP3    H152823   2.393   1.048  16.427  0.7157 -0.2671  0.3612
10444TIP3    H252824   2.381   1.199  16.427 -0.5637 -0.3688  0.3847
10445TIP3   OH252825   5.894   5.126   1.676 -0.4839  0.3080 -0.7698
10445TIP3    H152826   5.927   5.193   1.616  1.0575 -1.5442 -2.0482
10445TIP3    H252827   5.845   5.066   1.621  0.4034 -1.0644 -0.0899
10446TIP3   OH252828   5.255   0.603   1.807 -0.5605  0.3290  0.2625
10446TIP3    H152829   5.251   0.563   1.894 -0.5267 -0.3369 -0.0367
10446TIP3    H252830   5.232   0.695   1.822 -2.3285 -0.1639  0.7207
10447TIP3   OH252831   1.493   1.164  14.436  0.5508  0.1144 -0.2259
10447TIP3    H152832   1.430   1.205  14.376  0.1141  1.0895  0.8870
10447TIP3    H252833   1.439   1.111  14.494  0.6408  1.7139  1.3476
10448TIP3   OH252834   0.262   6.551   5.658  0.0147  0.2091 -0.2136
10448TIP3    H152835   0.280   6.609   5.732  0.1346  0.3237 -0.3322
10448TIP3    H252836   0.279   6.604   5.580  1.7408 -0.4669 -0.3317
10449TIP3   OH252837   6.019   3.567  14.235 -0.4014  0.5441  0.3212
10449TIP3    H152838   6.072   3.646  14.244 -4.0442  3.0605  0.7946
10449TIP3    H252839   6.022   3.545  14.142  0.9098  1.0579  0.2444
10450TIP3   OH252840   5.135   5.384  13.909  0.0459  0.2752 -0.3482
10450TIP3    H152841   5.152   5.320  13.978 -1.0252  0.2195 -0.1266
10450TIP3    H252842   5.109   5.331  13.834 -0.7394  0.4345 -0.1962
10451TIP3   OH252843   6.450   0.714  12.764 -0.2135  0.1568 -0.1032
10451TIP3    H152844   6.540   0.719  12.730  0.2525 -2.0627  0.7180
10451TIP3    H252845   6.401   0.669  12.695 -0.1112 -0.9452  0.5361
10452TIP3   OH252846   2.203   2.254  13.535 -0.0347 -0.2907  0.3808
10452TIP3    H152847   2.292   2.287  13.544 -0.1868 -0.2610  1.8713
10452TIP3    H252848   2.170   2.296  13.456  0.8282  0.7158  0.5475
10453TIP3   OH252849   0.640   0.211  12.376  0.1334  0.0144 -0.1884
10453TIP3    H152850   0.734   0.205  12.360  0.1484  0.3343 -0.2168
10453TIP3    H252851   0.611   0.288  12.327 -0.3198 -0.6620 -0.9893
10454TIP3   OH252852   3.116   5.155  14.444 -0.3734  0.2293  0.0072
10454TIP3    H152853   3.194   5.200  14.476  0.3823 -1.0209 -0.0506
10454TIP3    H252854   3.150   5.077  14.399 -1.6103  0.0579 -0.6596
10455TIP3   OH252855   6.531   6.409  13.236  0.2905 -0.2198 -0.7757
10455TIP3    H152856   6.483   6.419  13.154  0.2194 -0.2093 -0.7341
10455TIP3    H252857   6.481   6.344  13.286 -0.4427  0.7911 -0.1739
10456TIP3   OH252858   3.629   5.096   6.099 -0.0279  0.5428  0.2912
10456TIP3    H152859   3.544   5.094   6.054 -0.7908 -2.1753  1.7734
10456TIP3    H252860   3.607   5.110   6.191  1.1570  0.1312  0.6441
10457TIP3   OH252861   0.880   1.463  16.381  0.7084  0.2814  0.2004
10457TIP3    H152862   0.821   1.398  16.343 -0.1510  2.0255 -1.5174
10457TIP3    H252863   0.870   1.452  16.476 -1.7586 -0.0061 -0.0578
10458TIP3   OH252864   6.697   2.899   1.012  0.3707 -0.6691  0.0516
10458TIP3    H152865   6.691   2.803   1.012  0.0808 -0.6511 -0.0163
10458TIP3    H252866   6.607   2.929   0.999  0.6268 -0.4043 -1.2496
10459TIP3   OH252867   1.554   5.939  14.645 -0.4119  0.1670 -0.5091
10459TIP3    H152868   1.627   5.967  14.700 -0.1195  0.7231 -1.1718
10459TIP3    H252869   1.478   5.943  14.703 -0.1041  0.7218 -0.1409
10460TIP3   OH252870   4.802   4.539   4.452  0.3200 -0.3656  0.3685
10460TIP3    H152871   4.792   4.554   4.358  0.5132 -1.7013  0.1289
10460TIP3    H252872   4.837   4.451   4.459  0.4033 -0.2411  1.6993
10461TIP3   OH252873   5.566   6.676  16.493  0.0710  0.4733  0.0748
10461TIP3    H152874   5.630   6.746  16.477 -0.1071  0.8039  0.7654
10461TIP3    H252875   5.520   6.666  16.410  2.1385 -0.9248 -0.9340
10462TIP3   OH252876   4.517   4.032   1.404  0.1013 -0.1510 -0.6728
10462TIP3    H152877   4.599   4.029   1.454 -0.7969 -1.3689  0.7662
10462TIP3    H252878   4.449   4.037   1.470 -0.9702  1.7360 -1.8934
10463TIP3   OH252879   5.358   4.805  11.665  0.5184  0.1457  0.9864
10463TIP3    H152880   5.368   4.893  11.627 -1.3868  0.1168  0.3688
10463TIP3    H252881   5.306   4.758  11.600 -0.0060 -0.8925  2.1599
10464TIP3   OH252882   5.564   2.819   2.716 -0.2548  0.0092 -0.3167
10464TIP3    H152883   5.470   2.806   2.730  0.0140  0.3896  1.8968
10464TIP3    H252884   5.605   2.800   2.800  1.6267  0.2809 -1.1354
10465TIP3   OH252885   1.095   5.899  15.226 -0.5466 -0.2278  0.2815
10465TIP3    H152886   1.056   5.843  15.159 -0.9328  0.9229 -0.4743
10465TIP3    H252887   1.023   5.923  15.283 -0.1769 -1.3852  1.2606
10466TIP3   OH252888   5.160   1.788  14.530  0.1053 -0.3346  0.5233
10466TIP3    H152889   5.128   1.764  14.443  1.5204 -0.0013 -0.1027
10466TIP3    H252890   5.082   1.789  14.585 -0.6983 -1.2499 -0.5877
10467TIP3   OH252891   1.881   1.516   3.574  0.1716 -0.1757 -0.1533
10467TIP3    H152892   1.889   1.591   3.515  1.6142  0.2922  0.6116
10467TIP3    H252893   1.954   1.526   3.635 -0.1885 -1.6904  0.5414
10468TIP3   OH252894   4.836   0.341  12.391  0.5323 -0.3263  0.2250
10468TIP3    H152895   4.778   0.392  12.449  0.4526 -0.3514  0.1665
10468TIP3    H252896   4.923   0.353  12.430  0.7398  1.0620 -0.6254
10469TIP3   OH252897   1.274   1.679   2.436 -0.1175 -0.3756  0.5429
10469TIP3    H152898   1.286   1.736   2.360  1.6053  2.6932  2.9458
10469TIP3    H252899   1.179   1.672   2.446 -0.3921  1.8107 -0.0913
10470TIP3   OH252900   1.219   3.836   6.136  0.0521  0.7858 -0.7176
10470TIP3    H152901   1.198   3.773   6.067  2.6827  0.1404 -0.9761
10470TIP3    H252902   1.194   3.792   6.217  0.3470  0.0726 -1.0075
10471TIP3   OH252903   1.000   0.893   1.191 -0.1185 -0.0027  0.4316
10471TIP3    H152904   0.962   0.961   1.246 -0.5364  1.6062 -1.7898
10471TIP3    H252905   1.000   0.930   1.103  0.0871 -2.6928 -0.7557
10472TIP3   OH252906   5.216   1.583  12.857 -0.3976 -0.2472 -0.0298
10472TIP3    H152907   5.280   1.653  12.849  0.0518 -0.5119  1.2034
10472TIP3    H252908   5.207   1.568  12.951 -0.1762 -2.1356 -0.2760
10473TIP3   OH252909   0.286   5.190  14.141 -0.1004  0.1192  0.0904
10473TIP3    H152910   0.380   5.177  14.158 -0.0783  0.7722  0.4976
10473TIP3    H252911   0.244   5.116  14.184  0.3444 -1.0494 -1.4711
10474TIP3   OH252912   0.616   3.495  13.819 -0.6045  0.4832 -0.9115
10474TIP3    H152913   0.710   3.493  13.833 -0.4046 -2.7529 -2.3453
10474TIP3    H252914   0.582   3.423  13.872 -2.6524  3.1833  1.6359
10475TIP3   OH252915   2.724   5.369   3.542 -0.2288 -0.5938  0.0067
10475TIP3    H152916   2.768   5.412   3.469 -1.2142  1.0534  0.3509
10475TIP3    H252917   2.725   5.434   3.613 -0.3109 -1.7343  1.0709
10476TIP3   OH252918   5.716   4.350  16.142  0.4234 -0.5621  0.5508
10476TIP3    H152919   5.786   4.387  16.195 -0.6106 -1.5250  2.6356
10476TIP3    H252920   5.760   4.297  16.076  1.6585 -0.5133  1.3387
10477TIP3   OH252921   3.879   2.229  16.010  0.1001  0.4264  0.0160
10477TIP3    H152922   3.848   2.314  15.978 -0.4701 -0.0630 -0.7405
10477TIP3    H252923   3.971   2.244  16.031  0.2841  0.9716 -1.1170
10478TIP3   OH252924   3.090   2.977  16.066 -0.0143  0.6848 -0.0405
10478TIP3    H152925   3.075   3.059  16.113 -1.8569  1.1075 -1.3116
10478TIP3    H252926   3.150   3.001  15.995  0.4064  0.6608  0.3005
10479TIP3   OH252927   5.134   5.744   0.010  0.2166 -0.2221  0.3303
10479TIP3    H152928   5.157   5.769  -0.079  2.3162  0.5988  1.0645
10479TIP3    H252929   5.099   5.655   0.002 -0.3384  0.1380 -1.3871
10480TIP3   OH252930   3.147   0.623  14.262  0.6420 -0.2242 -0.2341
10480TIP3    H152931   3.155   0.702  14.209  0.7542 -0.5168 -0.6535
10480TIP3    H252932   3.200   0.558  14.217 -1.6377 -1.3240 -1.4072
10481TIP3   OH252933   6.166   2.078  15.426  0.3710 -0.8328 -0.3769
10481TIP3    H152934   6.104   2.093  15.355  0.8931 -1.9302 -1.0736
10481TIP3    H252935   6.182   1.983  15.425  0.6463 -0.8137  0.9776
10482TIP3   OH252936   3.337   0.174  11.056 -0.5035  0.2591 -0.5517
10482TIP3    H152937   3.302   0.230  10.987  0.6707  0.4854 -0.9857
10482TIP3    H252938   3.284   0.094  11.052 -1.1371  0.7017 -0.9984
10483TIP3   OH252939   3.084   3.468  12.351 -0.1952 -0.2410  0.0694
10483TIP3    H152940   3.172   3.435  12.335  0.0565  1.0215 -1.1871
10483TIP3    H252941   3.096   3.542  12.410 -0.5876 -1.1232  1.2863
10484TIP3   OH252942   6.251   3.453  13.569 -0.1016 -0.4367 -0.6492
10484TIP3    H152943   6.321   3.510  13.538 -1.6409  1.5656 -0.5152
10484TIP3    H252944   6.264   3.446  13.663 -0.0055 -0.1926 -0.6455
10485TIP3   OH252945   0.181   3.729  13.859 -0.0261  0.1903  0.1540
10485TIP3    H152946   0.198   3.704  13.950  1.1335  1.3056  0.2618
10485TIP3    H252947   0.132   3.656  13.822 -0.7481 -0.1595  1.7576
10486TIP3   OH252948   2.424   5.109   0.841 -0.0621 -0.0039  0.2767
10486TIP3    H152949   2.422   5.195   0.882 -0.1617 -0.1582  0.5890
10486TIP3    H252950   2.372   5.119   0.761 -0.3264  0.1422  0.4679
10487TIP3   OH252951   4.467   5.886  16.042  0.7337 -0.4741 -0.2550
10487TIP3    H152952   4.546   5.937  16.059  1.3066 -1.2083 -0.6623
10487TIP3    H252953   4.489   5.833  15.965 -0.5418  0.1201 -1.0363
10488TIP3   OH252954   5.032   2.330  13.781 -0.3200  0.0602  0.3469
10488TIP3    H152955   5.080   2.258  13.740  1.2628  1.2693  0.0153
10488TIP3    H252956   4.942   2.299  13.785  0.6218 -2.7264  1.9887
10489TIP3   OH252957   2.949   6.673  10.631 -0.5476  0.0702  0.3564
10489TIP3    H152958   2.997   6.630  10.701 -1.5454  1.0295  1.6512
10489TIP3    H252959   2.874   6.714  10.674 -2.2887 -1.0191 -1.5540
10490TIP3   OH252960   3.316   3.687   3.617  0.3321  0.6192  0.4085
10490TIP3    H152961   3.316   3.616   3.681 -0.8805  0.2796  0.0525
10490TIP3    H252962   3.345   3.764   3.666 -1.6241  0.5982  1.6478
10491TIP3   OH252963   4.346   1.384  11.936 -0.6966 -0.0117 -0.0140
10491TIP3    H152964   4.294   1.328  11.879 -0.1057 -2.3511  1.6563
10491TIP3    H252965   4.423   1.407  11.883 -1.2518 -0.2328 -0.9330
10492TIP3   OH252966   1.935   2.548  11.495 -0.0740  0.2624  0.0184
10492TIP3    H152967   1.947   2.507  11.581 -2.1783 -0.8727 -0.2039
10492TIP3    H252968   2.016   2.530  11.448  1.0213  0.7295  1.7036
10493TIP3   OH252969   4.347   4.305   5.701 -0.1963  0.2525  0.4319
10493TIP3    H152970   4.287   4.379   5.709 -0.8159 -0.0538 -1.2774
10493TIP3    H252971   4.349   4.285   5.608  0.5560 -1.3985  0.7784
10494TIP3   OH252972   2.142   3.532   3.974 -0.0695 -0.1805 -0.1146
10494TIP3    H152973   2.208   3.464   3.989 -0.6135 -0.6280  0.2884
10494TIP3    H252974   2.147   3.587   4.052 -0.6566 -0.6260  0.2424
10495TIP3   OH252975   6.036   5.567   2.401 -0.4187 -0.3107 -0.0841
10495TIP3    H152976   5.997   5.582   2.315 -1.0618  0.8921  0.4052
10495TIP3    H252977   6.026   5.473   2.416 -0.7503 -0.4435 -1.1049
10496TIP3   OH252978   5.164   4.907  12.634 -0.2739 -0.3224  0.3229
10496TIP3    H152979   5.241   4.894  12.689 -1.2166 -2.5262  1.1568
10496TIP3    H252980   5.195   4.964  12.563  1.2773  1.4813  2.3819
10497TIP3   OH252981   1.240   5.671   4.921  0.0832 -0.3969  1.0082
10497TIP3    H152982   1.265   5.735   4.988  0.5923 -2.5652  2.9830
10497TIP3    H252983   1.148   5.692   4.902  0.5999  1.6758  0.6978
10498TIP3   OH252984   4.452   0.221   2.238  0.2594  0.0673 -0.0493
10498TIP3    H152985   4.444   0.126   2.245 -1.7679  0.2051 -0.2871
10498TIP3    H252986   4.495   0.236   2.154 -0.3574 -0.6047 -0.4877
10499TIP3   OH252987   3.684   5.052  15.340  0.0082  0.0190  0.0378
10499TIP3    H152988   3.779   5.046  15.330  0.0114 -0.5701  0.4125
10499TIP3    H252989   3.660   4.973  15.388 -0.5230  0.7322  0.9536
10500TIP3   OH252990   4.217   5.835   1.026  0.1656  0.0582 -0.3830
10500TIP3    H152991   4.231   5.917   0.979  2.9727  1.5929  2.9173
10500TIP3    H252992   4.165   5.861   1.103 -0.9208 -1.6993 -0.4933
10501TIP3   OH252993   3.476   5.208  12.161  0.3065 -0.3138  0.2193
10501TIP3    H152994   3.529   5.218  12.082 -0.5122 -0.5236 -0.3661
10501TIP3    H252995   3.396   5.256  12.142 -0.1314 -0.8463  0.7021
10502TIP3   OH252996   2.807   5.524   4.711 -0.1714  0.4363 -0.2781
10502TIP3    H152997   2.848   5.559   4.791 -0.4348  1.4373 -0.5752
10502TIP3    H252998   2.867   5.549   4.641 -1.3011  2.0015 -0.7320
10503TIP3   OH252999   3.379   2.843  12.815  0.4808 -0.5865  0.5263
10503TIP3    H153000   3.370   2.889  12.899  0.3281 -0.0835  0.2409
10503TIP3    H253001   3.298   2.864  12.768  0.6399 -0.7275  0.1895
10504TIP3   OH253002   6.654   2.436  13.002 -0.0242  0.1729  0.0618
10504TIP3    H153003   6.582   2.372  12.997 -0.5810  0.8332 -0.6095
10504TIP3    H253004   6.609   2.520  13.010  0.7175  0.4129  1.8008
10505TIP3   OH253005   5.275   6.182  11.835  0.2311  0.0004 -0.4615
10505TIP3    H153006   5.222   6.110  11.801  0.8231 -0.3648 -0.6172
10505TIP3    H253007   5.212   6.252  11.852 -0.2965 -0.4164 -0.6768
10506TIP3   OH253008   5.924   5.740  13.378  0.7093  0.2601 -0.2902
10506TIP3    H153009   5.887   5.670  13.324  1.2658 -0.6812  0.5216
10506TIP3    H253010   5.939   5.812  13.317 -3.8381  1.2668 -0.4304
10507TIP3   OH253011   3.060   2.959  12.340 -0.1236  0.0212  0.5553
10507TIP3    H153012   3.112   2.880  12.325 -0.5613 -0.1559 -0.0381
10507TIP3    H253013   2.982   2.928  12.387  0.0157  0.1971  0.9073
10508TIP3   OH253014   2.008   0.501   1.605  0.0538  0.0991  0.1837
10508TIP3    H153015   2.012   0.544   1.690  0.8780  0.0139  0.1930
10508TIP3    H253016   1.965   0.564   1.547 -1.5525 -0.2958  0.9317
10509TIP3   OH253017   2.821   3.264   2.593 -0.2563 -0.2800  0.0572
10509TIP3    H153018   2.843   3.316   2.671  1.2536 -1.5550  0.5005
10509TIP3    H253019   2.862   3.312   2.521 -0.6458  0.2597  0.1871
10510TIP3   OH253020   1.445   4.611  15.001 -0.1050  0.3775  0.3296
10510TIP3    H153021   1.362   4.616  15.048 -0.4845  1.7498 -0.4359
10510TIP3    H253022   1.426   4.647  14.914  1.1912  0.3553  0.0187
10511TIP3   OH253023   4.012   3.127   4.070 -0.3562  0.2576  0.1581
10511TIP3    H153024   4.024   3.052   4.011 -3.3264 -0.1264 -0.0576
10511TIP3    H253025   3.987   3.088   4.154  1.6329  0.8915  1.0652
10512TIP3   OH253026   3.509   4.762   5.676 -0.0860  0.4591  0.3036
10512TIP3    H153027   3.559   4.840   5.698 -1.0063  0.8584  1.0386
10512TIP3    H253028   3.497   4.716   5.759 -1.5045  0.7217  0.2615
10513TIP3   OH253029   3.255   5.611  13.235  0.6318  0.4875  0.0040
10513TIP3    H153030   3.267   5.632  13.327 -0.8921 -1.8057  0.7521
10513TIP3    H253031   3.342   5.582  13.206  0.9056  0.3602  0.9328
10514TIP3   OH253032   4.155   4.078   0.389  0.4806 -0.4547 -0.0056
10514TIP3    H153033   4.193   4.073   0.301  0.0402 -1.1688 -0.1591
10514TIP3    H253034   4.138   3.987   0.412  1.9665 -0.3959  1.4287
10515TIP3   OH253035   4.992   4.557  13.101 -0.4574  0.5872  0.1996
10515TIP3    H153036   5.071   4.579  13.052 -0.4346  1.9140  0.8159
10515TIP3    H253037   4.921   4.599  13.052 -0.3910  2.2558  1.4979
10516TIP3   OH253038   3.953   0.334  15.707  0.3378 -0.7416  0.0633
10516TIP3    H153039   3.916   0.297  15.628  0.1793  0.4766 -0.4497
10516TIP3    H253040   4.005   0.263  15.745  0.0668 -1.4660 -0.8929
10517TIP3   OH253041   4.256   0.258  15.532 -0.4361  0.5725 -0.1943
10517TIP3    H153042   4.347   0.247  15.504 -0.3896 -1.7220  0.7348
10517TIP3    H253043   4.204   0.232  15.456 -0.2977 -0.0153 -0.0941
10518TIP3   OH253044   4.943   5.530  15.447  0.2796 -0.1020 -0.0772
10518TIP3    H153045   4.975   5.615  15.418  0.0625  0.1337  0.3751
10518TIP3    H253046   4.979   5.520  15.535  2.2012 -1.4769 -0.9761
10519TIP3   OH253047   3.141   2.817   3.732  0.0406  0.0254 -0.3573
10519TIP3    H153048   3.143   2.752   3.662  1.0441 -0.1541 -0.1669
10519TIP3    H253049   3.232   2.822   3.763 -0.1654  0.9767  0.1201
10520TIP3   OH253050   5.708   6.051  16.811  0.5186 -0.6032  0.0636
10520TIP3    H153051   5.788   6.004  16.788  0.3447 -1.1614  0.5749
10520TIP3    H253052   5.730   6.097  16.892  0.8681  0.6629 -0.7560
10521TIP3   OH253053   6.379   2.541   5.147  0.1980 -0.7170 -0.4663
10521TIP3    H153054   6.453   2.489   5.117 -0.1253 -1.4659  0.0198
10521TIP3    H253055   6.320   2.478   5.188 -0.3108 -0.0011 -0.0789
10522TIP3   OH253056   4.116   0.723   2.982 -0.3849 -0.2916  0.1082
10522TIP3    H153057   4.184   0.731   2.916 -1.5511  0.6512 -1.0136
10522TIP3    H253058   4.035   0.714   2.932 -1.2688  0.2431  1.4117
10523TIP3   OH253059   4.808   4.783   4.586 -0.0911 -0.0324  0.6915
10523TIP3    H153060   4.903   4.784   4.591 -0.0597  0.8992 -0.0021
10523TIP3    H253061   4.787   4.705   4.536  0.2621 -0.7829  1.7033
10524TIP3   OH253062   1.892   3.226  15.902 -0.5236 -0.8096 -0.3544
10524TIP3    H153063   1.796   3.227  15.902 -0.5255 -0.2965  0.2655
10524TIP3    H253064   1.916   3.245  15.812 -1.0108  0.2856 -0.2641
10525TIP3   OH253065   3.966   4.443   0.485 -0.0495 -0.2126  0.0767
10525TIP3    H153066   3.987   4.357   0.450 -0.8443 -0.9756  1.4252
10525TIP3    H253067   3.901   4.426   0.554 -0.9450  1.5498 -0.2925
10526TIP3   OH253068   0.245   6.093  12.998 -0.5517  0.5207 -0.4528
10526TIP3    H153069   0.301   6.078  12.921 -0.8500  0.3725 -0.6457
10526TIP3    H253070   0.263   6.183  13.023  0.5021  0.1728  0.0861
10527TIP3   OH253071   1.918   2.982  11.564 -0.1946 -0.6284  0.4122
10527TIP3    H153072   1.977   2.941  11.627 -1.3788  0.5939  2.3871
10527TIP3    H253073   1.959   2.967  11.479  1.1285 -2.8698  1.3955
10528TIP3   OH253074   3.252   3.800   2.635  0.2631  0.2456  0.4024
10528TIP3    H153075   3.311   3.735   2.598  0.7124  1.0370 -0.3026
10528TIP3    H253076   3.165   3.760   2.631  0.6112 -0.5207  0.5017
10529TIP3   OH253077   1.514   2.430  16.393  0.2945  0.4449  0.2562
10529TIP3    H153078   1.470   2.513  16.374  1.4464  1.3789  1.5931
10529TIP3    H253079   1.604   2.444  16.363  0.1029 -0.9077 -1.0186
10530TIP3   OH253080   3.450   4.754  16.174 -0.2631  0.0946 -0.3005
10530TIP3    H153081   3.515   4.744  16.243 -0.7273  0.9232  0.2792
10530TIP3    H253082   3.472   4.837  16.132  0.8096 -1.0509 -2.0312
10531TIP3   OH253083   6.013   2.003  17.228  0.0311  0.4184 -0.3580
10531TIP3    H153084   5.951   2.022  17.298 -0.2161  0.8083 -0.6854
10531TIP3    H253085   5.965   2.018  17.147 -0.0067 -1.0527 -0.6230
10532TIP3   OH253086   6.347   0.828   1.656 -0.1226  0.3727 -0.6331
10532TIP3    H153087   6.280   0.853   1.719  1.0957  0.6057  0.5665
10532TIP3    H253088   6.338   0.733   1.647  1.4797 -0.0549  1.9565
10533TIP3   OH253089   0.127   4.299   5.706 -0.0397  0.0293 -0.0530
10533TIP3    H153090   0.200   4.291   5.768 -0.2885 -1.0733  0.0978
10533TIP3    H253091   0.162   4.264   5.624 -0.1803  0.1684 -0.1733
10534TIP3   OH253092   2.623   2.950   1.835  0.2544  0.2933  0.0419
10534TIP3    H153093   2.558   2.987   1.776  1.2568 -0.2906 -1.4748
10534TIP3    H253094   2.615   2.856   1.824  0.2181  0.1723  1.0991
10535TIP3   OH253095   3.903   3.989  16.544 -0.5268 -0.0891 -0.5166
10535TIP3    H153096   3.929   4.076  16.514 -0.2409  0.1262  0.3434
10535TIP3    H253097   3.965   3.929  16.501 -0.9181  0.0966 -1.3527
10536TIP3   OH253098   4.108   2.479   3.723  0.4246  0.0613  0.4595
10536TIP3    H153099   4.017   2.501   3.743  0.2938 -1.7350  2.0271
10536TIP3    H253100   4.147   2.463   3.809  2.1881  0.7298 -0.2131
10537TIP3   OH253101   5.802   3.763   3.463 -0.2752 -0.1841  0.1137
10537TIP3    H153102   5.885   3.733   3.500 -0.1379 -0.1088 -0.1328
10537TIP3    H253103   5.827   3.830   3.399 -0.5410  0.0207  0.2212
10538TIP3   OH253104   2.625   5.392   0.616 -0.0918 -0.1720 -0.8218
10538TIP3    H153105   2.625   5.308   0.570 -0.8754  0.5269 -2.1202
10538TIP3    H253106   2.652   5.371   0.705  0.3652 -1.7060 -1.3175
10539TIP3   OH253107   1.271   5.170   3.828 -0.5092 -0.3731 -0.1344
10539TIP3    H153108   1.365   5.154   3.816 -0.6963 -0.4231 -1.6055
10539TIP3    H253109   1.243   5.099   3.886  0.4454 -0.0741  0.7214
10540TIP3   OH253110   6.174   3.773   6.919 -0.5021 -0.0594  0.1881
10540TIP3    H153111   6.269   3.776   6.927 -0.4935  0.5203 -0.1208
10540TIP3    H253112   6.146   3.715   6.990 -0.1523  2.0662  2.0901
10541TIP3   OH253113   6.448   3.548   1.865 -0.3037 -0.1604 -0.3693
10541TIP3    H153114   6.531   3.588   1.838 -1.0550  1.7200  0.0328
10541TIP3    H253115   6.464   3.518   1.954  0.6629 -1.9513 -1.1185
10542TIP3   OH253116   2.137   0.959  11.876  0.4487 -0.0060 -0.4390
10542TIP3    H153117   2.205   1.025  11.866  1.3957 -0.8652  0.1626
10542TIP3    H253118   2.179   0.889  11.927 -0.6627 -0.8629 -0.6727
10543TIP3   OH253119   0.641   4.702  12.277 -0.0232  0.2324  0.6215
10543TIP3    H153120   0.641   4.635  12.208  1.9375 -1.1071  1.8701
10543TIP3    H253121   0.553   4.699  12.314 -0.0095 -1.5113  0.5247
10544TIP3   OH253122   6.547   3.615   3.638  0.3518 -0.2223 -0.6840
10544TIP3    H153123   6.600   3.692   3.661 -0.1075  0.2967 -1.3552
10544TIP3    H253124   6.607   3.560   3.588  0.8753 -0.6094  0.3482
10545TIP3   OH253125   2.778   3.387   1.835 -0.5448 -0.1036  0.3044
10545TIP3    H153126   2.684   3.407   1.838 -0.8109 -1.2129 -0.1709
10545TIP3    H253127   2.801   3.363   1.925  0.0145  3.2584  1.1107
10546TIP3   OH253128   1.510   2.220  11.855  0.0907 -0.0044 -0.1514
10546TIP3    H153129   1.532   2.239  11.764  2.2068  0.4232  0.4339
10546TIP3    H253130   1.456   2.294  11.882 -0.1882  0.0798 -0.9132
10547TIP3   OH253131   2.522   6.663  11.780 -0.3049  0.2306 -0.0013
10547TIP3    H153132   2.596   6.612  11.746  0.0598  1.6693 -1.4283
10547TIP3    H253133   2.488   6.610  11.853  3.1956  0.3423  1.8298
10548TIP3   OH253134   5.603   3.957   0.205  0.7232 -0.2364 -0.5705
10548TIP3    H153135   5.563   4.035   0.165 -1.5358 -0.1532  1.7503
10548TIP3    H253136   5.680   3.991   0.251  0.1080  0.5379 -0.0974
10549TIP3   OH253137   3.454   4.465  14.118 -0.3998 -0.0251  0.1893
10549TIP3    H153138   3.406   4.449  14.037  0.7442 -1.4273 -0.2258
10549TIP3    H253139   3.403   4.418  14.185  0.0260 -1.0006 -0.1516
10550TIP3   OH253140   1.110   1.765   6.319  0.2332 -0.1924  0.4872
10550TIP3    H153141   1.120   1.858   6.299  0.4504 -0.8207 -2.5751
10550TIP3    H253142   1.200   1.732   6.324  0.1301 -0.6016 -0.3156
10551TIP3   OH253143   2.246   5.272   1.098  0.0436  0.0968  0.0985
10551TIP3    H153144   2.227   5.335   1.029 -2.0284  1.4493  1.8153
10551TIP3    H253145   2.183   5.201   1.084  1.2608 -0.8070 -0.8426
10552TIP3   OH253146   4.675   6.537  12.901  0.4944 -0.1084  0.6064
10552TIP3    H153147   4.597   6.481  12.899  0.2022  0.3331 -1.6392
10552TIP3    H253148   4.748   6.476  12.893  0.3567 -0.4440  1.7782
10553TIP3   OH253149   3.961   1.969   3.450 -0.0666 -0.5487  0.0733
10553TIP3    H153150   4.003   2.019   3.521 -0.3440 -1.3054  0.7788
10553TIP3    H253151   4.031   1.914   3.416  0.7810  1.7789 -2.0892
10554TIP3   OH253152   0.594   0.638   2.957 -0.0490 -0.7360  0.1367
10554TIP3    H153153   0.541   0.710   2.922  0.6357 -1.0675 -1.6540
10554TIP3    H253154   0.637   0.675   3.034 -0.5537  0.4449 -0.1393
10555TIP3   OH253155   0.725   0.854  17.041 -0.4355 -0.1686  0.1315
10555TIP3    H153156   0.787   0.804  17.094 -0.4705  0.2288  0.5503
10555TIP3    H253157   0.661   0.887  17.105 -1.9880 -1.9268 -0.4933
10556TIP3   OH253158   3.945   4.215  12.660 -1.1026  0.2147 -0.0216
10556TIP3    H153159   3.958   4.308  12.680  0.4586 -0.2335  1.0778
10556TIP3    H253160   3.939   4.172  12.745 -0.5354 -0.8720 -0.5194
10557TIP3   OH253161   3.482   6.804  11.948 -0.0557 -0.0055 -0.0808
10557TIP3    H153162   3.447   6.893  11.946 -0.5763 -0.1776  0.9537
10557TIP3    H253163   3.577   6.815  11.958 -0.0373  0.4379 -0.7664
10558TIP3   OH253164   3.779   4.523  15.531 -0.8520  0.1085  0.0458
10558TIP3    H153165   3.866   4.484  15.519 -0.1070  2.1055 -1.3217
10558TIP3    H253166   3.719   4.459  15.493  0.1798 -0.5802 -0.4588
10559TIP3   OH253167   4.655   5.313   0.488  1.1542  0.8123 -0.4127
10559TIP3    H153168   4.695   5.230   0.464  0.0171  0.7274 -2.1136
10559TIP3    H253169   4.710   5.380   0.447 -0.5285  0.6852 -2.9899
10560TIP3   OH253170   2.368   4.945  10.948 -0.3338  0.2334  0.0013
10560TIP3    H153171   2.335   4.917  11.033 -1.1534  2.1378  0.3396
10560TIP3    H253172   2.318   5.024  10.927 -0.5356 -0.5132 -2.5171
10561TIP3   OH253173   2.059   5.039   2.676 -0.1336 -0.5643 -0.2688
10561TIP3    H153174   1.998   4.971   2.704  2.0300 -2.6051 -0.3308
10561TIP3    H253175   2.011   5.121   2.688 -2.2269 -1.9749  1.3891
10562TIP3   OH253176   6.000   4.828  11.682 -0.3381  0.3045 -0.4970
10562TIP3    H153177   6.033   4.832  11.593  1.4138 -1.1273  0.0551
10562TIP3    H253178   6.036   4.906  11.725 -0.8055  0.7490 -0.9143
10563TIP3   OH253179   2.716   4.759  14.828  0.2231  0.5131 -0.3568
10563TIP3    H153180   2.776   4.701  14.781 -0.2805 -1.7568  1.6777
10563TIP3    H253181   2.773   4.823  14.870  1.0800 -0.4068 -0.0831
10564TIP3   OH253182   0.464   1.600  12.974 -0.4433 -0.2191 -0.3068
10564TIP3    H153183   0.557   1.574  12.975 -0.7498 -1.3804 -0.9190
10564TIP3    H253184   0.433   1.578  13.062 -0.4883 -1.1832 -0.5551
10565TIP3   OH253185   0.503   5.459  13.324 -0.2367 -0.9415  0.1465
10565TIP3    H153186   0.446   5.475  13.399 -1.7560  1.5039 -1.4672
10565TIP3    H253187   0.474   5.375  13.289 -0.4690 -1.4011  1.4250
10566TIP3   OH253188   2.044   6.270   2.343  0.4918 -0.3432  0.3632
10566TIP3    H153189   2.068   6.208   2.412  0.1368  0.4901  1.2351
10566TIP3    H253190   1.971   6.227   2.298  0.1137 -0.4746  1.0876
10567TIP3   OH253191   1.823   3.573   1.045 -0.4630  0.0944 -0.8079
10567TIP3    H153192   1.731   3.560   1.024 -0.2126 -0.0555 -1.8618
10567TIP3    H253193   1.839   3.517   1.120 -1.1945 -0.0097 -0.7268
10568TIP3   OH253194   5.082   0.239   6.486 -0.1259 -0.4282 -0.5927
10568TIP3    H153195   5.030   0.319   6.485 -1.4347 -1.2282  1.0127
10568TIP3    H253196   5.162   0.263   6.533 -1.0915 -0.3955  1.0550
10569TIP3   OH253197   3.733   6.174   2.636 -0.0881  0.4335 -0.4787
10569TIP3    H153198   3.792   6.163   2.561 -0.9764 -0.8044 -0.9937
10569TIP3    H253199   3.753   6.262   2.668 -0.5584  1.4667 -2.9172
10570TIP3   OH253200   0.392   0.059   0.006 -0.1143 -0.5425  0.1304
10570TIP3    H153201   0.298   0.077   0.004  0.0738  0.3444 -0.6975
10570TIP3    H253202   0.433   0.143   0.025  0.5032 -1.0067  0.9465
10571TIP3   OH253203   2.570   5.397   2.669  0.5499  0.5848  0.5478
10571TIP3    H153204   2.618   5.392   2.587 -3.5262  0.2610 -1.9555
10571TIP3    H253205   2.509   5.470   2.658  0.0129  0.6452  3.3555
10572TIP3   OH253206   5.488   3.095  13.559  0.1054  0.2681  1.0139
10572TIP3    H153207   5.583   3.100  13.572  0.5003 -0.4886 -1.4802
10572TIP3    H253208   5.465   3.178  13.517 -0.3175  0.3565  1.4114
10573TIP3   OH253209   6.759   4.561  11.822 -0.7019 -0.6759 -0.3672
10573TIP3    H153210   6.841   4.606  11.842  0.6022 -2.5736 -1.3012
10573TIP3    H253211   6.716   4.616  11.757 -0.0864  0.2524  0.0049
10574TIP3   OH253212   1.705   3.432  13.015  0.9165  0.7192 -0.1677
10574TIP3    H153213   1.666   3.389  12.939 -0.4272 -0.7928  1.3289
10574TIP3    H253214   1.771   3.371  13.046  0.5707  0.7523  0.6407
10575TIP3   OH253215   0.172   0.179   1.871 -0.0815 -0.2117  0.7168
10575TIP3    H153216   0.227   0.106   1.898 -0.4260 -1.2049 -1.1887
10575TIP3    H253217   0.204   0.202   1.783 -0.7957  1.0998  0.7864
10576TIP3   OH253218   4.228   0.545   1.490 -0.1980  0.1135 -0.0321
10576TIP3    H153219   4.247   0.451   1.492 -0.6045  0.0203 -0.3499
10576TIP3    H253220   4.240   0.574   1.580 -0.2531 -0.2847  0.1057
10577TIP3   OH253221   3.545   2.368   6.150  0.0942 -0.1208  0.6671
10577TIP3    H153222   3.491   2.417   6.088  0.8114 -0.2493 -0.0584
10577TIP3    H253223   3.570   2.433   6.216 -0.2017  0.1412  0.5249
10578TIP3   OH253224   0.592   4.676  16.775 -0.2546 -0.1232 -0.5121
10578TIP3    H153225   0.507   4.678  16.733 -0.9387 -0.0284  0.8551
10578TIP3    H253226   0.582   4.730  16.854  0.9601 -0.3752 -0.1705
10579TIP3   OH253227   0.507   0.093   1.319 -0.5253  0.2792 -0.4118
10579TIP3    H153228   0.464   0.169   1.357 -0.2254  0.0200  0.4740
10579TIP3    H253229   0.476   0.019   1.371  2.1728  0.2786  1.2973
10580TIP3   OH253230   5.278   3.433  14.119 -0.4518  0.6674  0.3298
10580TIP3    H153231   5.187   3.460  14.125 -0.7559 -0.1061 -0.6732
10580TIP3    H253232   5.327   3.504  14.161 -1.6119  0.3540  2.2937
10581TIP3   OH253233   0.372   5.416   5.791  0.2369  0.2805 -0.0875
10581TIP3    H153234   0.395   5.326   5.767  1.5264  0.4057  0.6476
10581TIP3    H253235   0.419   5.471   5.728 -1.4434  0.4176 -1.2450
10582TIP3   OH253236   6.275   3.448   1.375 -0.5646  0.5859  0.2645
10582TIP3    H153237   6.195   3.411   1.336  1.6108 -3.0805 -0.9862
10582TIP3    H253238   6.314   3.500   1.305 -1.2141  1.3455  0.4659
10583TIP3   OH253239   5.113   5.774  15.016  0.1477 -0.7097  0.0013
10583TIP3    H153240   5.079   5.855  14.976  0.2606 -0.3204  0.6873
10583TIP3    H253241   5.174   5.804  15.083  1.4517 -1.4069 -0.8683
10584TIP3   OH253242   0.749   6.662   3.805  0.5267 -0.5753 -0.5957
10584TIP3    H153243   0.800   6.583   3.818 -1.2203 -1.8528 -1.3627
10584TIP3    H253244   0.762   6.684   3.712 -0.9281 -1.3457 -0.9869
10585TIP3   OH253245   2.487   2.538  14.215  0.2626 -0.6502 -0.3268
10585TIP3    H153246   2.398   2.521  14.185  0.1008 -0.0642 -0.1806
10585TIP3    H253247   2.518   2.453  14.247 -0.6063 -0.6433  0.5712
10586TIP3   OH253248   4.251   5.737   1.619  0.8574  0.2385  0.4157
10586TIP3    H153249   4.246   5.652   1.663  1.0217 -0.6694 -1.3093
10586TIP3    H253250   4.179   5.788   1.658 -0.3027 -1.2432  0.2569
10587TIP3   OH253251   4.073   4.264  16.137 -0.4676  0.3398  0.2299
10587TIP3    H153252   4.025   4.280  16.219  0.0833  1.1664  0.4019
10587TIP3    H253253   4.165   4.275  16.161 -0.2340 -0.5544 -0.2523
10588TIP3   OH253254   0.920   3.649  12.197 -0.2710 -0.4478 -0.0020
10588TIP3    H153255   1.014   3.634  12.192 -0.2437  0.0781 -1.2217
10588TIP3    H253256   0.902   3.712  12.127 -1.6297 -1.0556 -0.2147
10589TIP3   OH253257   1.300   0.099  14.926  0.3680 -0.4434  0.3412
10589TIP3    H153258   1.351   0.179  14.939  1.5359 -0.7449 -2.1728
10589TIP3    H253259   1.209   0.128  14.936  0.8302  0.9298  0.7410
10590TIP3   OH253260   1.110   0.859  16.950 -0.1303 -0.1053  0.5936
10590TIP3    H153261   1.045   0.929  16.954  0.9285  0.9040  0.4084
10590TIP3    H253262   1.131   0.839  17.041 -0.5203 -0.2664  0.6468
10591TIP3   OH253263   4.603   1.915   2.985  0.8316  0.0895 -0.4707
10591TIP3    H153264   4.673   1.970   3.020  1.2324 -1.5556  1.4131
10591TIP3    H253265   4.632   1.891   2.897  2.4734 -0.2819  0.1621
10592TIP3   OH253266   6.065   1.837   0.404  0.6466 -0.3273 -0.4996
10592TIP3    H153267   6.154   1.854   0.436  0.6012  1.5416 -1.3065
10592TIP3    H253268   6.076   1.814   0.312  0.0358  4.0834 -1.8056
10593TIP3   OH253269   1.983   4.467   2.275  0.3567  0.2657 -0.0133
10593TIP3    H153270   1.935   4.387   2.297  2.9562 -1.1155  0.8805
10593TIP3    H253271   2.002   4.457   2.181 -1.2882  0.9429 -0.4311
10594TIP3   OH253272   6.547   6.519  14.847  0.6901  0.2312  0.7460
10594TIP3    H153273   6.507   6.603  14.825  2.5199  0.9543  0.1241
10594TIP3    H253274   6.493   6.485  14.919 -1.1367  1.0876 -0.1795
10595TIP3   OH253275   0.869   0.264  12.045  0.2482  0.9665 -0.4714
10595TIP3    H153276   0.931   0.333  12.066  0.5066  1.1165 -1.7007
10595TIP3    H253277   0.797   0.309  12.000  0.4615  0.4363 -1.3555
10596TIP3   OH253278   0.493   3.330   3.076  0.8937  0.2139 -0.4000
10596TIP3    H153279   0.471   3.254   3.130  0.7155  0.7967  0.3670
10596TIP3    H253280   0.502   3.402   3.139  1.4453  0.7452 -1.0748
10597TIP3   OH253281   6.406   3.198   0.329  0.0396  0.0496 -0.1591
10597TIP3    H153282   6.419   3.105   0.309 -0.5152 -0.1502  0.4146
10597TIP3    H253283   6.479   3.220   0.386 -0.9623 -0.5597  1.3861
10598TIP3   OH253284   1.639   1.988   5.458 -0.2332 -0.4458  0.1205
10598TIP3    H153285   1.556   1.941   5.457 -1.3895  1.4534  1.9391
10598TIP3    H253286   1.617   2.075   5.493  2.3827  0.3634 -0.1106
10599TIP3   OH253287   0.662   6.796   2.222  0.4914 -0.3537  0.2545
10599TIP3    H153288   0.634   6.801   2.131 -2.3413 -0.0243  1.1024
10599TIP3    H253289   0.655   6.703   2.244  0.1165 -0.2857  0.4344
10600TIP3   OH253290   5.154   1.031   5.819  0.3431  0.1489 -0.1155
10600TIP3    H153291   5.207   1.100   5.860 -0.2319  0.2123  0.5357
10600TIP3    H253292   5.191   0.949   5.852  0.1161  0.1905  0.2499
10601TIP3   OH253293   4.389   3.876  11.725  0.2065 -0.5169  0.0149
10601TIP3    H153294   4.432   3.814  11.666 -0.3693 -1.4901  0.6167
10601TIP3    H253295   4.440   3.957  11.715  1.1272 -1.1544 -0.5720
10602TIP3   OH253296   3.291   6.546   2.953  0.6399  0.0598  0.5275
10602TIP3    H153297   3.272   6.506   2.868  1.8389 -0.1369  0.3406
10602TIP3    H253298   3.260   6.482   3.017 -1.0440  0.5821  0.2573
10603TIP3   OH253299   5.904   2.808  16.736  0.1983  0.3654  0.1845
10603TIP3    H153300   5.836   2.751  16.772 -0.7984  1.2897 -0.1961
10603TIP3    H253301   5.985   2.758  16.747 -0.7656 -1.5486 -1.0191
10604TIP3   OH253302   4.379   3.047  14.628  0.5086 -0.1870 -0.2086
10604TIP3    H153303   4.463   3.043  14.674 -0.7346  1.9244  2.4525
10604TIP3    H253304   4.373   3.138  14.598 -0.6507 -0.4176 -0.7005
10605TIP3   OH253305   5.074   0.398  15.418  0.1487 -1.0012 -0.4483
10605TIP3    H153306   5.167   0.403  15.394  0.4613  0.7436  0.9981
10605TIP3    H253307   5.075   0.363  15.507 -0.4246  0.9709  0.3667
10606TIP3   OH253308   0.919   0.084  12.306  0.0173  0.5177  0.1362
10606TIP3    H153309   0.882   0.080  12.217 -1.3295 -0.0448  0.7172
10606TIP3    H253310   0.919  -0.006  12.336 -0.9054  0.8822  1.2633
10607TIP3   OH253311   2.143   4.242  10.892  0.6335 -0.4997  0.9599
10607TIP3    H153312   2.076   4.274  10.831  1.5283 -0.5772 -0.0868
10607TIP3    H253313   2.221   4.292  10.869  1.1318 -0.9540  1.6634
10608TIP3   OH253314   2.755   1.640   5.663  0.1775 -0.1270  0.2014
10608TIP3    H153315   2.830   1.651   5.605  1.1143 -0.0004  1.4066
10608TIP3    H253316   2.700   1.575   5.619  1.9835 -1.7403  0.2576
10609TIP3   OH253317   0.908   1.482   5.229 -0.6514  0.2809  0.4796
10609TIP3    H153318   0.862   1.525   5.301 -1.3130  2.5711 -1.2841
10609TIP3    H253319   0.840   1.461   5.165  0.5195  2.4525 -1.5327
10610TIP3   OH253320   2.298   3.711   4.144 -0.7380  0.6371  0.1072
10610TIP3    H153321   2.251   3.792   4.125 -0.6217  0.4268 -1.1709
10610TIP3    H253322   2.369   3.737   4.202  0.3161  1.7597 -1.6321
10611TIP3   OH253323   2.042   1.574  12.655  0.6037  0.0136 -0.8388
10611TIP3    H153324   1.965   1.630  12.665  0.6649  0.0167 -0.3637
10611TIP3    H253325   2.076   1.595  12.568  1.3831  1.6702 -0.1507
10612TIP3   OH253326   1.593   6.214   3.987 -0.3377 -0.1630 -0.0577
10612TIP3    H153327   1.506   6.214   3.947 -1.6475 -0.1995  2.7149
10612TIP3    H253328   1.612   6.306   4.004 -0.8794 -0.3236  1.4970
10613TIP3   OH253329   1.699   4.721  11.866 -0.0560  0.6122  0.0431
10613TIP3    H153330   1.668   4.678  11.945 -1.5356 -1.4974 -1.6057
10613TIP3    H253331   1.765   4.662  11.831 -0.1872  0.9741 -0.8347
10614TIP3   OH253332   1.647   5.799  16.084 -0.2998 -0.1290  0.3350
10614TIP3    H153333   1.686   5.841  16.161  0.0141  1.7786 -0.8355
10614TIP3    H253334   1.556   5.783  16.110 -1.1153  3.4526  0.0530
10615TIP3   OH253335   3.677   5.654   3.534  0.1110 -0.3887 -0.6333
10615TIP3    H153336   3.725   5.634   3.614 -0.6226  0.2676 -0.0293
10615TIP3    H253337   3.618   5.579   3.522  2.1275 -1.8018 -2.0540
10616TIP3   OH253338   0.736   3.578   0.601  0.1590 -0.6340 -0.3653
10616TIP3    H153339   0.716   3.667   0.631  2.3705 -0.3953  0.4942
10616TIP3    H253340   0.760   3.530   0.680  0.2471 -1.6593 -0.9956
10617TIP3   OH253341   0.955   5.914  16.028  0.1514 -0.5559 -0.0893
10617TIP3    H153342   0.888   5.916  16.097  1.8627  1.0563  1.5818
10617TIP3    H253343   0.994   6.001  16.031  1.0170 -0.8369 -2.3800
10618TIP3   OH253344   3.780   4.724   3.944  0.2474  0.2672  1.0009
10618TIP3    H153345   3.808   4.634   3.927 -0.0907 -0.2037  2.8337
10618TIP3    H253346   3.762   4.726   4.038 -2.6506  1.4212  0.4955
10619TIP3   OH253347   4.073   1.815   3.794 -0.0949  0.5460 -0.3598
10619TIP3    H153348   4.143   1.866   3.752  1.5306 -0.6517  0.8506
10619TIP3    H253349   4.110   1.727   3.804 -1.7145 -0.0567  0.4858
10620TIP3   OH253350   4.054   1.727   2.215 -0.8107 -0.2025 -0.2394
10620TIP3    H153351   4.082   1.731   2.306 -0.6520  0.9605 -0.3250
10620TIP3    H253352   4.014   1.641   2.205 -0.2496 -0.5794  0.7576
10621TIP3   OH253353   3.487   0.193  10.440 -0.2840  0.1148 -0.0799
10621TIP3    H153354   3.553   0.202  10.371 -0.6482 -0.6116 -0.5284
10621TIP3    H253355   3.407   0.169  10.393 -0.4384 -0.7841  0.6349
10622TIP3   OH253356   2.333   6.515   4.513  0.1172 -0.1105 -0.1580
10622TIP3    H153357   2.327   6.434   4.461  1.7114 -0.3085 -0.0571
10622TIP3    H253358   2.321   6.486   4.603  1.7119 -0.4161 -0.0173
10623TIP3   OH253359   2.416   5.627  15.746 -0.2422 -0.0784 -0.1080
10623TIP3    H153360   2.343   5.672  15.704 -0.5574  1.1539  1.7129
10623TIP3    H253361   2.491   5.685  15.734  0.6633 -1.6824 -2.6284
10624TIP3   OH253362   4.944   0.567   1.824 -0.2055  0.4291  0.3126
10624TIP3    H153363   4.961   0.506   1.753  1.0702  0.4738  0.5796
10624TIP3    H253364   5.013   0.550   1.889 -0.4593  1.4199  0.8632
10625TIP3   OH253365   6.348   2.049   3.393  0.3168 -0.0031 -0.4123
10625TIP3    H153366   6.360   2.063   3.487 -0.9159  0.2125 -0.2760
10625TIP3    H253367   6.360   1.955   3.381 -0.6058 -0.2010  0.1492
10626TIP3   OH253368   0.796   1.761  11.194  0.3172  0.0909  0.1566
10626TIP3    H153369   0.708   1.771  11.158  0.5578  3.1253  0.3454
10626TIP3    H253370   0.849   1.728  11.121 -1.4669 -4.4064  0.7361
10627TIP3   OH253371   4.939   2.922  16.113 -0.3171 -0.2728  0.0741
10627TIP3    H153372   5.008   2.972  16.156 -0.3167 -1.2634  1.2492
10627TIP3    H253373   4.958   2.831  16.134 -1.9164 -0.5666  0.3270
10628TIP3   OH253374   1.802   1.895  14.198  0.2788  0.7435 -0.0940
10628TIP3    H153375   1.745   1.972  14.194 -1.5562 -0.4735  1.0279
10628TIP3    H253376   1.746   1.827  14.237  2.2871 -0.7398  0.2897
10629TIP3   OH253377   0.727   4.693  13.785  0.3876 -0.6959  0.2294
10629TIP3    H153378   0.739   4.774  13.834  0.8601  0.4059 -1.6396
10629TIP3    H253379   0.633   4.674  13.793  0.3943 -0.3297  1.2296
10630TIP3   OH253380   6.398   0.431   5.249 -0.4941 -0.1184  0.0809
10630TIP3    H153381   6.464   0.402   5.187  0.3446 -0.0709  0.9282
10630TIP3    H253382   6.404   0.526   5.249 -0.1654 -0.1328  0.5616
10631TIP3   OH253383   2.545   0.213  15.321 -0.0128 -0.0871  0.2073
10631TIP3    H153384   2.496   0.276  15.267  2.4395  0.7321 -1.1812
10631TIP3    H253385   2.629   0.256  15.336  0.1582 -1.2776  2.8646
10632TIP3   OH253386   3.439   5.420  16.590 -0.3186 -0.5028 -0.1995
10632TIP3    H153387   3.524   5.384  16.615 -0.1361 -1.3359 -1.9573
10632TIP3    H253388   3.434   5.406  16.495 -1.9608  0.5010 -0.2776
10633TIP3   OH253389   4.848   6.682   4.474 -0.3182  0.2532  0.0526
10633TIP3    H153390   4.876   6.771   4.497 -0.0940  0.0477  0.5795
10633TIP3    H253391   4.835   6.685   4.380  1.0343  0.4768 -0.1381
10634TIP3   OH253392   6.441   4.485  15.875 -0.3917 -0.3494  0.3527
10634TIP3    H153393   6.425   4.393  15.858  0.1115 -0.5288  0.8102
10634TIP3    H253394   6.537   4.491  15.882 -0.3791  0.3214 -0.3364
10635TIP3   OH253395   1.987   5.295   3.242  0.3088  0.5685  0.3024
10635TIP3    H153396   2.080   5.316   3.252  0.2288  0.7421  0.6983
10635TIP3    H253397   1.943   5.379   3.245  0.1930  0.5371 -0.5426
10636TIP3   OH253398   6.712   2.885  15.451  0.4629  0.3498 -0.7431
10636TIP3    H153399   6.616   2.891  15.446  0.3683  0.1908  0.7978
10636TIP3    H253400   6.730   2.793  15.432  0.1428 -0.1269  1.1882
10637TIP3   OH253401   1.746   2.623   5.978 -0.3301  0.1501  0.2219
10637TIP3    H153402   1.767   2.680   5.904  0.1535  1.5578  1.4223
10637TIP3    H253403   1.660   2.587   5.958  0.1172 -0.0552 -1.3632
10638TIP3   OH253404   1.812   3.689   0.256 -0.1432 -0.2073 -0.0228
10638TIP3    H153405   1.905   3.670   0.266 -0.9134 -3.9561  0.6695
10638TIP3    H253406   1.792   3.751   0.326  1.5620 -0.3696  0.6241
10639TIP3   OH253407   3.014   0.280  11.666 -0.0823  0.2688 -0.2909
10639TIP3    H153408   2.950   0.351  11.664 -2.3392 -1.5596  2.4476
10639TIP3    H253409   2.975   0.212  11.611  1.3309  0.5439 -1.6515
10640TIP3   OH253410   3.354   0.001  12.552  0.1608 -0.9062 -0.3483
10640TIP3    H153411   3.264  -0.008  12.582 -0.2798  0.4818 -1.1665
10640TIP3    H253412   3.352  -0.026  12.460  0.3213  0.2597 -0.7035
10641TIP3   OH253413   4.228   0.820   6.883 -0.6424  0.0589  0.0636
10641TIP3    H153414   4.308   0.845   6.836 -0.3409 -2.4056 -0.8322
10641TIP3    H253415   4.231   0.871   6.964  1.2442  0.8814 -0.4909
10642TIP3   OH253416   3.815   2.114  12.010  0.3082  0.2119  0.4073
10642TIP3    H153417   3.847   2.201  12.034  2.2850 -0.4653  0.3052
10642TIP3    H253418   3.870   2.088  11.936 -0.6175 -0.9197  0.1056
10643TIP3   OH253419   3.493   1.018   5.671 -0.2121  0.4191  0.2275
10643TIP3    H153420   3.559   0.979   5.728 -0.3918 -0.5541 -0.2285
10643TIP3    H253421   3.535   1.096   5.635  0.5641 -0.0094  0.2114
10644TIP3   OH253422   0.568   4.338   2.062 -0.2989  0.0758  0.2675
10644TIP3    H153423   0.663   4.342   2.074 -0.0122 -0.8750 -1.6711
10644TIP3    H253424   0.536   4.418   2.104  1.6007  1.7363 -1.3481
10645TIP3   OH253425   5.631   2.267  13.496  0.9335 -0.4012  0.5888
10645TIP3    H153426   5.640   2.361  13.509  0.6077 -0.1964 -0.6276
10645TIP3    H253427   5.685   2.228  13.564  0.9521  0.6663  1.1886
10646TIP3   OH253428   1.630   6.698  11.696  0.1367  0.4964  0.0021
10646TIP3    H153429   1.613   6.681  11.788 -1.5755  1.7549 -0.0486
10646TIP3    H253430   1.699   6.636  11.672  1.1469  0.6985  2.3033
10647TIP3   OH253431   2.225   3.851  12.105  0.4017  0.0671  0.0583
10647TIP3    H153432   2.182   3.843  12.190 -1.7402  1.6562 -0.8494
10647TIP3    H253433   2.211   3.766  12.063  0.4191 -0.3075  0.8131
10648TIP3   OH253434   1.903   1.002   2.898  0.3475 -0.2712 -0.5536
10648TIP3    H153435   1.875   1.091   2.916  1.1071 -0.1295 -0.0597
10648TIP3    H253436   1.888   0.955   2.980 -1.0476 -0.8589 -1.1260
10649TIP3   OH253437   4.376   2.424   3.458  0.1542  0.1923 -0.9599
10649TIP3    H153438   4.330   2.390   3.382 -0.8739  1.5488 -0.9599
10649TIP3    H253439   4.469   2.419   3.433 -0.0777 -0.9610 -1.6205
10650TIP3   OH253440   5.104   0.375   1.650  0.1581 -0.1776 -0.8120
10650TIP3    H153441   5.186   0.332   1.675  0.5513  0.5720 -0.7890
10650TIP3    H253442   5.123   0.418   1.567  0.6007  2.2232  0.4919
10651TIP3   OH253443   1.854   1.630   3.982  0.5941  0.0123  0.4138
10651TIP3    H153444   1.929   1.573   4.001  1.6849  1.0031 -0.8569
10651TIP3    H253445   1.799   1.577   3.924  0.9087 -0.2707  0.3698
10652TIP3   OH253446   5.695   5.788   3.768 -0.3651 -0.6849 -0.2837
10652TIP3    H153447   5.722   5.697   3.761 -0.8173 -0.9016  0.7696
10652TIP3    H253448   5.600   5.785   3.782 -0.0865 -0.1422  1.8322
10653TIP3   OH253449   2.981   3.646  11.997  0.3937  0.8455  0.4528
10653TIP3    H153450   2.941   3.617  12.079  0.1360  0.1274  0.0753
10653TIP3    H253451   3.074   3.628  12.007  0.5861  2.1827  1.1900
10654TIP3   OH253452   4.553   4.462  13.069  0.1004 -0.3222  0.3638
10654TIP3    H153453   4.524   4.539  13.118 -1.1693 -0.1807 -0.5711
10654TIP3    H253454   4.598   4.407  13.134 -1.1681  0.0548  1.5824
10655TIP3   OH253455   5.923   5.867  16.814  0.2854 -0.3023 -0.6284
10655TIP3    H153456   5.968   5.816  16.747  0.8161 -1.6120  0.6822
10655TIP3    H253457   5.981   5.864  16.890 -0.7743  0.2693  0.2263
10656TIP3   OH253458   4.141   4.946   5.972  0.0842  0.3633 -0.3786
10656TIP3    H153459   4.185   4.927   5.889 -0.2326 -1.8361 -0.0590
10656TIP3    H253460   4.048   4.949   5.949 -0.0462 -0.7748 -0.0143
10657TIP3   OH253461   3.754   5.034   2.149  0.1427  0.1183  0.1614
10657TIP3    H153462   3.786   5.087   2.076  0.2040  0.8253  0.7015
10657TIP3    H253463   3.688   4.977   2.110  1.4220 -0.7286 -0.7850
10658TIP3   OH253464   2.176   1.816  15.374  0.5324 -0.1903 -0.4671
10658TIP3    H153465   2.221   1.887  15.329  0.2369  0.8372  0.8047
10658TIP3    H253466   2.232   1.739  15.360  2.6627  1.0294  0.9958
10659TIP3   OH253467   3.838   5.003   4.021  0.6322  0.0738  0.0728
10659TIP3    H153468   3.912   4.999   4.083  0.4462 -0.7767  0.2392
10659TIP3    H253469   3.830   4.914   3.987 -0.5451  0.0838  0.3181
10660TIP3   OH253470   5.422   1.673   0.450  0.3824  0.1167 -0.1284
10660TIP3    H153471   5.340   1.640   0.411  0.2640  0.3715 -0.0954
10660TIP3    H253472   5.472   1.706   0.376  0.6804 -0.5125 -0.2138
10661TIP3   OH253473   3.078   0.843  15.620  0.8679  0.0246  0.1304
10661TIP3    H153474   3.043   0.875  15.704 -1.1888  0.4632 -0.8564
10661TIP3    H253475   3.010   0.786  15.586  2.8387 -2.3072 -0.0142
10662TIP3   OH253476   1.396   2.296  14.579 -0.6207 -0.1879 -0.2072
10662TIP3    H153477   1.369   2.284  14.488 -0.9759  0.0288 -0.1308
10662TIP3    H253478   1.480   2.341  14.572 -1.1331  0.7481 -0.4121
10663TIP3   OH253479   6.658   0.639  15.055  0.2807  0.0274 -0.5245
10663TIP3    H153480   6.623   0.700  14.989 -0.4825 -0.2809 -0.4081
10663TIP3    H253481   6.617   0.667  15.137  3.0606  1.9249  0.2766
10664TIP3   OH253482   0.719   5.120   3.391 -0.0924 -0.2283  0.0733
10664TIP3    H153483   0.789   5.057   3.412  0.2695  0.0869 -0.1850
10664TIP3    H253484   0.638   5.069   3.402  0.0870 -0.1679  1.9344
10665TIP3   OH253485   0.638   5.050   6.393 -0.0199  0.3433 -0.2990
10665TIP3    H153486   0.544   5.058   6.412 -0.1311  2.4189 -1.5483
10665TIP3    H253487   0.648   4.960   6.363 -1.6092  0.0556 -0.0291
10666TIP3   OH253488   1.289   0.958   4.335 -0.4777  0.3036  0.3309
10666TIP3    H153489   1.225   0.915   4.392 -1.7639  1.0213 -0.5645
10666TIP3    H253490   1.298   1.046   4.370  0.6959 -0.0725  0.9893
10667TIP3   OH253491   0.510   6.108   5.564  0.8082 -0.2936 -0.1279
10667TIP3    H153492   0.546   6.131   5.478  0.6010  1.6263  0.2954
10667TIP3    H253493   0.459   6.184   5.590 -0.6612 -1.6124  0.8804
10668TIP3   OH253494   5.564   6.038  12.311 -0.1531  0.4676 -0.3451
10668TIP3    H153495   5.474   6.070  12.305  0.4613  2.4456  0.5804
10668TIP3    H253496   5.603   6.059  12.227 -0.4477 -0.0695 -0.6187
10669TIP3   OH253497   3.116   6.715  15.539  0.3170  0.1416 -0.1365
10669TIP3    H153498   3.027   6.749  15.549 -0.0033 -0.8293  0.3484
10669TIP3    H253499   3.126   6.706  15.444 -0.4519 -0.6488 -0.1520
10670TIP3   OH253500   1.186   2.309   1.287 -0.1942 -0.5928 -0.1389
10670TIP3    H153501   1.109   2.313   1.230 -0.0786  0.3616 -0.2452
10670TIP3    H253502   1.174   2.230   1.339  0.0025 -1.8160 -1.9091
10671TIP3   OH253503   0.244   3.980  12.636 -0.3803  0.6083  0.7536
10671TIP3    H153504   0.155   4.015  12.643  0.7547  3.0132  3.9282
10671TIP3    H253505   0.300   4.057  12.629  1.6011 -0.8326  0.4555
10672TIP3   OH253506   6.060   6.470   0.194  0.0805 -0.0470  0.4923
10672TIP3    H153507   6.143   6.474   0.243 -0.5426 -0.1211  1.5686
10672TIP3    H253508   6.024   6.559   0.200  0.5224  0.2297 -0.7722
10673TIP3   OH253509   3.456   1.529   0.140 -0.0420 -0.4588  0.3718
10673TIP3    H153510   3.422   1.485   0.062 -1.4302  0.1438  0.6190
10673TIP3    H253511   3.378   1.553   0.190  0.7735  0.4601  1.2333
10674TIP3   OH253512   3.859   3.475   4.721  0.0760 -1.1473 -0.3443
10674TIP3    H153513   3.903   3.539   4.666  1.4100 -0.3246  1.6359
10674TIP3    H253514   3.928   3.413   4.746 -0.8215 -2.3315 -0.7729
10675TIP3   OH253515   2.460   1.072   0.673 -0.3141 -0.6835  0.7768
10675TIP3    H153516   2.474   1.119   0.755  3.2186 -2.6320  1.3917
10675TIP3    H253517   2.472   1.138   0.604 -3.2033  0.9398  1.7519
10676TIP3   OH253518   0.371   6.328   5.252  0.0060  0.5181 -0.2281
10676TIP3    H153519   0.340   6.240   5.272  1.0286  0.2867  0.3957
10676TIP3    H253520   0.405   6.321   5.163  0.3718  0.1982 -0.0665
10677TIP3   OH253521   0.567   6.297   2.523 -0.1520  0.2019 -0.3535
10677TIP3    H153522   0.521   6.222   2.560 -0.4753 -0.0248 -1.2023
10677TIP3    H253523   0.636   6.259   2.470 -1.2376  0.4445 -1.9970
10678TIP3   OH253524   1.222   4.101  16.333  0.1404  0.2338  0.1840
10678TIP3    H153525   1.179   4.054  16.261  0.0439 -0.5420  0.7309
10678TIP3    H253526   1.164   4.085  16.408  0.4422  0.7087  0.5135
10679TIP3   OH253527   3.093   0.128   2.192  0.6019  0.3825  0.0846
10679TIP3    H153528   3.135   0.213   2.175 -1.0280  0.9542 -1.2511
10679TIP3    H253529   3.131   0.098   2.274  1.3969  2.2936  0.4354
10680TIP3   OH253530   3.435   3.647  13.264 -0.4099  0.6841  0.0507
10680TIP3    H153531   3.437   3.554  13.286 -2.5991  1.0016  1.7289
10680TIP3    H253532   3.520   3.663  13.223  0.0647 -2.0148 -0.1597
10681TIP3   OH253533   4.248   4.194  14.839  0.2286  0.1588  0.6525
10681TIP3    H153534   4.311   4.210  14.909 -1.6756  2.1824  1.9598
10681TIP3    H253535   4.181   4.138  14.879  0.5680 -0.9988 -0.3752
10682TIP3   OH253536   6.463   1.198  17.259  0.1610  0.4526 -0.9264
10682TIP3    H153537   6.509   1.185  17.342 -3.2090  0.9754  1.1277
10682TIP3    H253538   6.479   1.290  17.237 -2.0649  1.4306  1.2500
10683TIP3   OH253539   3.478   4.223  12.363  0.1972  0.1235 -0.0082
10683TIP3    H153540   3.471   4.293  12.298  1.0454  0.8686  0.7032
10683TIP3    H253541   3.567   4.189  12.353 -1.2450 -3.2134 -2.7280
10684TIP3   OH253542   2.940   5.054   3.061 -0.2711  0.0354 -0.6445
10684TIP3    H153543   2.859   5.092   3.093 -2.3561 -2.6415 -2.5262
10684TIP3    H253544   2.997   5.050   3.138 -1.4132  3.1391  0.4218
10685TIP3   OH253545   2.556   1.332   5.667  0.0956  0.4303  0.3188
10685TIP3    H153546   2.537   1.327   5.761 -1.1049  0.7865  0.0963
10685TIP3    H253547   2.522   1.417   5.640  2.3394  1.2652 -0.0234
10686TIP3   OH253548   3.505   4.192  14.780 -0.0267 -0.4682 -0.1132
10686TIP3    H153549   3.600   4.204  14.781 -0.3608  2.6047 -0.8804
10686TIP3    H253550   3.488   4.132  14.854  2.4359 -0.7051  0.3076
10687TIP3   OH253551   3.509   4.670  13.400 -0.5653  0.5248 -0.4929
10687TIP3    H153552   3.493   4.624  13.483  0.0951  1.2409  0.0470
10687TIP3    H253553   3.589   4.719  13.416 -3.1859  4.8275  0.2440
10688TIP3   OH253554   2.167   2.641   3.381  0.3903 -0.0420  0.3598
10688TIP3    H153555   2.128   2.605   3.461  0.3545 -0.7297  0.0398
10688TIP3    H253556   2.245   2.688   3.411 -1.1929  2.2006  1.1243
10689TIP3   OH253557   0.561   4.723  10.948 -0.7822 -0.0548  0.1346
10689TIP3    H153558   0.466   4.720  10.955 -0.8983  1.8540 -0.1726
10689TIP3    H253559   0.580   4.690  10.860 -1.0738 -1.4136  0.5743
10690TIP3   OH253560   1.050   3.964  15.892 -0.4509  0.6557 -0.1979
10690TIP3    H153561   1.049   4.039  15.951 -1.7886 -1.0669  2.0473
10690TIP3    H253562   1.143   3.940  15.885 -0.4430 -0.6347  3.2929
10691TIP3   OH253563   0.870   2.633  11.250  0.3971 -0.0900  0.1636
10691TIP3    H153564   0.787   2.599  11.217  0.4176  0.2091 -0.2067
10691TIP3    H253565   0.892   2.705  11.190  0.8237 -0.0403  0.3755
10692TIP3   OH253566   0.370   2.498  12.408 -0.1249  0.1925 -0.1709
10692TIP3    H153567   0.340   2.460  12.325 -1.2379  1.4222 -0.3648
10692TIP3    H253568   0.430   2.434  12.444  1.1762  0.0876 -2.4297
10693TIP3   OH253569   1.009   4.916  17.093 -0.5531  0.3373 -0.2167
10693TIP3    H153570   1.038   4.909  17.184 -1.2466  1.6190  0.1044
10693TIP3    H253571   0.919   4.947  17.098 -1.2122 -1.3196 -1.2961
10694TIP3   OH253572   3.462   2.876   3.739  0.3165  0.2848  0.3306
10694TIP3    H153573   3.538   2.905   3.688 -1.1103  0.8819 -1.5130
10694TIP3    H253574   3.428   2.956   3.780  0.7181  0.0053  1.2187
10695TIP3   OH253575   4.626   6.016  12.472  0.8900 -0.3015 -0.2531
10695TIP3    H153576   4.625   6.096  12.524 -0.1853 -0.8774  0.6404
10695TIP3    H253577   4.702   6.025  12.415  0.4434  1.6172 -0.5890
10696TIP3   OH253578   2.370   5.737   3.286  0.2015 -0.2949  0.0368
10696TIP3    H153579   2.408   5.683   3.217 -1.6115  0.5586 -1.6573
10696TIP3    H253580   2.389   5.689   3.367  2.2733 -1.3385 -1.0476
10697TIP3   OH253581   0.752   4.964  12.214  0.2783 -0.5556 -0.8313
10697TIP3    H153582   0.702   4.890  12.248 -0.7432 -0.1029 -1.3408
10697TIP3    H253583   0.788   4.933  12.131 -1.4008  0.0088 -1.7871
10698TIP3   OH253584   0.352   6.548   0.209  0.6105  0.3429 -0.2535
10698TIP3    H153585   0.323   6.495   0.135  1.3347 -0.5668  0.1027
10698TIP3    H253586   0.432   6.505   0.239 -1.3717 -1.2937  3.1094
10699TIP3   OH253587   2.778   0.168   3.772  0.1516  0.0754  0.5469
10699TIP3    H153588   2.751   0.231   3.838  0.4095 -1.1053  1.7961
10699TIP3    H253589   2.833   0.106   3.819 -0.3565 -1.2657 -0.5897
10700TIP3   OH253590   3.075   1.193  11.954  0.1513  0.4465 -0.0214
10700TIP3    H153591   3.143   1.170  11.890  0.6591  1.2606  0.2267
10700TIP3    H253592   3.025   1.263  11.912 -1.5126 -1.1716 -0.8503
10701TIP3   OH253593   0.724   0.465  11.663  0.4705  0.4206 -0.0800
10701TIP3    H153594   0.656   0.505  11.609  0.0788 -0.5209 -0.2960
10701TIP3    H253595   0.788   0.535  11.677  0.3251  0.8177 -1.3422
10702TIP3   OH253596   2.222   5.144   5.160 -0.2058 -0.2459 -0.3865
10702TIP3    H153597   2.184   5.060   5.185  0.6266 -0.4837  0.0640
10702TIP3    H253598   2.152   5.208   5.179  0.4414 -0.3870  2.7247
10703TIP3   OH253599   2.201   2.676  11.956  0.1166 -0.2557 -0.2204
10703TIP3    H153600   2.108   2.694  11.944 -0.1355 -1.2191  0.1557
10703TIP3    H253601   2.226   2.729  12.032  0.0739  0.6252 -0.8170
10704TIP3   OH253602   6.385   4.965   5.254  0.0364  0.3202  0.1275
10704TIP3    H153603   6.359   4.988   5.344  0.7516 -0.4959  0.5528
10704TIP3    H253604   6.433   4.883   5.264 -0.6887 -0.2598 -1.1279
10705TIP3   OH253605   2.187   1.189   1.574 -0.2366 -0.7603  0.2049
10705TIP3    H153606   2.222   1.257   1.632 -0.0354 -1.4635  0.9279
10705TIP3    H253607   2.198   1.108   1.624  1.1757 -1.5731 -1.3569
10706TIP3   OH253608   6.746   1.178  15.092  0.1035  0.5797  0.2591
10706TIP3    H153609   6.747   1.265  15.130  0.8726  0.6773  0.0142
10706TIP3    H253610   6.834   1.144  15.104 -0.3633 -0.4372  0.9627
10707TIP3   OH253611   6.428   1.378  15.958  0.0333 -0.2380 -0.1987
10707TIP3    H153612   6.510   1.423  15.939 -0.5902  0.6515 -0.8123
10707TIP3    H253613   6.455   1.292  15.991  1.2060  0.0287 -0.4435
10708TIP3   OH253614   0.101   1.841   1.926 -0.3749 -0.4732 -0.2134
10708TIP3    H153615   0.167   1.862   1.992  0.1049 -0.2719 -0.7509
10708TIP3    H253616   0.021   1.824   1.976  0.2152 -1.2668  0.4870
10709TIP3   OH253617   2.285   4.128   1.239  0.1711  0.1880 -0.2152
10709TIP3    H153618   2.350   4.161   1.301  1.3160 -0.7846 -0.8610
10709TIP3    H253619   2.330   4.130   1.154 -0.2435 -1.4983 -0.5051
10710TIP3   OH253620   5.230   4.756  13.037 -0.2921 -0.4488 -0.0333
10710TIP3    H153621   5.249   4.765  12.943  0.1728  1.3174  0.2212
10710TIP3    H253622   5.315   4.768  13.080 -0.4140 -1.7489  0.6013
10711TIP3   OH253623   0.301   5.768  12.268  0.3494 -0.3507  0.6266
10711TIP3    H153624   0.210   5.747  12.248  0.4836 -2.5045  2.0997
10711TIP3    H253625   0.348   5.686  12.253  2.3402  1.1458 -1.7168
10712TIP3   OH253626   6.153   4.628  15.046  0.5202 -0.2725 -0.0875
10712TIP3    H153627   6.126   4.705  14.996 -0.1698  0.8974  2.0144
10712TIP3    H253628   6.247   4.622  15.032  0.7875  1.7262  0.7431
10713TIP3   OH253629   1.266   2.845  11.525 -0.0285 -0.1161 -0.4872
10713TIP3    H153630   1.359   2.841  11.503 -0.0434  0.4556 -0.6516
10713TIP3    H253631   1.232   2.759  11.502  0.5441 -0.4636 -0.0458
10714TIP3   OH253632   1.009   1.731   4.037 -0.3162  0.0805 -0.1943
10714TIP3    H153633   1.029   1.753   4.128 -2.9633  0.3629  0.3616
10714TIP3    H253634   1.029   1.637   4.029  1.1588  0.3573  0.3112
10715TIP3   OH253635   6.135   4.172   6.050 -0.2550 -0.3861 -0.3521
10715TIP3    H153636   6.191   4.224   5.992  2.2772  0.1926  2.4733
10715TIP3    H253637   6.176   4.085   6.051  1.2840  0.3286  2.5597
10716TIP3   OH253638   0.596   4.657   3.374 -0.6286 -0.3989  0.4351
10716TIP3    H153639   0.633   4.665   3.287 -3.4459  0.1469 -0.7625
10716TIP3    H253640   0.613   4.566   3.400  0.2559 -0.5429 -0.6564
10717TIP3   OH253641   2.327   3.519   0.416 -0.0823  0.1943  0.3613
10717TIP3    H153642   2.305   3.443   0.470 -0.0446  0.3336  0.5684
10717TIP3    H253643   2.287   3.499   0.331  0.8994 -0.5760  0.0815
10718TIP3   OH253644   0.455   3.271  11.991 -0.3830  0.3572 -0.2130
10718TIP3    H153645   0.530   3.304  11.940  0.2042  0.7885  0.9036
10718TIP3    H253646   0.440   3.183  11.957 -0.0843  0.6925 -1.2231
10719TIP3   OH253647   3.116   5.608   1.283  0.1105  0.0346 -0.0588
10719TIP3    H153648   3.136   5.697   1.311 -1.0769  0.3774 -0.2811
10719TIP3    H253649   3.021   5.606   1.273 -0.0052 -1.5985  1.1010
10720TIP3   OH253650   6.632   1.855  13.393 -0.0882  0.0578  0.2837
10720TIP3    H153651   6.713   1.896  13.363 -0.7126 -0.2170 -1.8409
10720TIP3    H253652   6.607   1.906  13.470  2.2290 -0.0254  1.1213
10721TIP3   OH253653   6.045   4.262  13.066 -0.4317 -0.1899 -0.3502
10721TIP3    H153654   5.975   4.202  13.090  0.0588  0.1586  2.0964
10721TIP3    H253655   6.032   4.278  12.973 -2.0644 -2.1177 -0.4860
10722TIP3   OH253656   2.812   5.324   0.373 -0.3997  0.1560  0.1982
10722TIP3    H153657   2.876   5.372   0.320 -0.8205  2.2323  1.5023
10722TIP3    H253658   2.732   5.375   0.365 -0.9505 -0.5147  1.3714
10723TIP3   OH253659   5.279   0.908  14.807  0.4045 -0.3576  0.2712
10723TIP3    H153660   5.321   0.936  14.726  3.0491  0.2261  1.7876
10723TIP3    H253661   5.220   0.837  14.780  0.3863  0.5674 -2.2831
10724TIP3   OH253662   6.044   2.928   4.467  0.0428 -0.4297  0.1589
10724TIP3    H153663   6.089   2.972   4.540 -0.0682 -0.0498 -0.0002
10724TIP3    H253664   5.968   2.983   4.450  0.2496 -0.3424 -0.4669
10725TIP3   OH253665   0.973   3.912   2.992  0.2039 -0.0561  0.5271
10725TIP3    H153666   0.913   3.949   2.928  0.2954  0.6191  0.8318
10725TIP3    H253667   0.991   3.983   3.053  0.6202 -0.5088  0.9415
10726TIP3   OH253668   1.405   3.403   5.311  0.6433 -0.0594 -1.0076
10726TIP3    H153669   1.354   3.332   5.350 -2.1265  0.8790 -2.8130
10726TIP3    H253670   1.451   3.443   5.385 -0.2076 -1.7267  0.4746
10727TIP3   OH253671   2.258   6.618   0.458  0.2074 -0.3447  0.0797
10727TIP3    H153672   2.313   6.678   0.409  1.2309 -0.5607  0.9588
10727TIP3    H253673   2.250   6.541   0.402  0.4666 -0.1537 -0.2162
10728TIP3   OH253674   6.200   6.737  16.566 -0.0447 -0.3195 -0.1559
10728TIP3    H153675   6.261   6.777  16.504  0.4041 -1.3925 -0.4287
10728TIP3    H253676   6.243   6.656  16.592 -0.7489 -0.4198  0.6978
10729TIP3   OH253677   2.436   3.647   5.598  0.0326 -0.5242 -0.4481
10729TIP3    H153678   2.346   3.654   5.569 -0.7902 -0.5663  1.9572
10729TIP3    H253679   2.482   3.604   5.526 -1.9950 -1.0926 -1.4180
10730TIP3   OH253680   2.857   4.802  12.584  0.4680  0.4466 -0.4813
10730TIP3    H153681   2.808   4.825  12.505 -0.6841  0.6248  0.2740
10730TIP3    H253682   2.803   4.735  12.627 -0.0292  1.9421  1.2828
10731TIP3   OH253683   6.599   4.646  11.602  0.2263 -0.0441 -0.8383
10731TIP3    H153684   6.547   4.615  11.527  0.4810 -2.6923  0.0224
10731TIP3    H253685   6.534   4.668  11.668  0.0503  0.9772 -1.3441
10732TIP3   OH253686   2.495   3.059   1.530 -0.0422  0.2445 -0.1880
10732TIP3    H153687   2.477   3.111   1.452  0.2869  0.8064  0.1119
10732TIP3    H253688   2.427   3.084   1.592 -0.1803 -0.0481 -0.2215
10733TIP3   OH253689   1.241   5.025  13.657 -0.5449  0.5003 -0.0342
10733TIP3    H153690   1.221   4.949  13.712  0.4664 -0.7688 -1.4042
10733TIP3    H253691   1.164   5.082  13.666 -0.4389  0.2840  2.6045
10734TIP3   OH253692   5.632   0.720   0.223  0.6486  0.3010  0.2790
10734TIP3    H153693   5.631   0.732   0.318 -1.5798 -1.6860  0.5469
10734TIP3    H253694   5.711   0.668   0.207 -0.6320 -2.1029  1.4663
10735TIP3   OH253695   0.829   0.251  12.803 -0.0182 -0.6808 -0.4671
10735TIP3    H153696   0.767   0.324  12.806 -1.1080 -1.6058  3.8845
10735TIP3    H253697   0.786   0.184  12.751 -1.4248 -0.2159  0.0643
10736TIP3   OH253698   0.761   4.104   5.695 -0.2430 -0.3877 -0.3845
10736TIP3    H153699   0.698   4.061   5.752 -1.5923 -0.0418 -1.5691
10736TIP3    H253700   0.844   4.100   5.743 -0.8357 -2.1681  0.5633
10737TIP3   OH253701   3.205   2.201  14.300  0.2117 -0.4852 -0.0550
10737TIP3    H153702   3.297   2.197  14.273  0.3002 -1.2930  0.3559
10737TIP3    H253703   3.204   2.260  14.375  0.4022 -0.5476 -0.0056
10738TIP3   OH253704   2.026   2.724  15.305  0.6513 -0.5166  0.0115
10738TIP3    H153705   2.032   2.793  15.371  1.0294  0.0068 -0.5659
10738TIP3    H253706   1.949   2.674  15.330 -0.9895  1.4702 -0.8407
10739TIP3   OH253707   0.863   3.078   2.720  0.0316  0.2302 -0.1932
10739TIP3    H153708   0.877   3.030   2.639 -0.9857  0.6925 -0.6466
10739TIP3    H253709   0.768   3.089   2.726  0.0945  0.2583  1.0229
10740TIP3   OH253710   1.189   6.702  14.068 -0.5266  0.4592 -0.0631
10740TIP3    H153711   1.180   6.629  14.129  0.0893  0.4227 -0.0124
10740TIP3    H253712   1.283   6.723  14.069 -0.7857  1.6023  0.3363
10741TIP3   OH253713   4.204   6.379   5.178  0.1401  0.0240 -0.1544
10741TIP3    H153714   4.259   6.302   5.192  0.1710  0.3507  1.5558
10741TIP3    H253715   4.244   6.448   5.231 -2.3386  0.0625  1.7567
10742TIP3   OH253716   6.380   2.012   3.657  0.4738  0.3639  0.1717
10742TIP3    H153717   6.355   1.924   3.632  0.7957  0.7226 -1.5004
10742TIP3    H253718   6.327   2.032   3.734  0.7543 -1.4544  0.8505
10743TIP3   OH253719   0.320   1.269  14.856 -0.5133  0.1223 -0.4730
10743TIP3    H153720   0.250   1.334  14.847  0.2037  0.8102 -1.2720
10743TIP3    H253721   0.355   1.284  14.944  0.8293  2.0683 -1.2920
10744TIP3   OH253722   4.462   2.264   4.201 -0.1759  0.1298 -0.8131
10744TIP3    H153723   4.511   2.266   4.118 -3.2030  1.7785 -2.6625
10744TIP3    H253724   4.500   2.334   4.253  0.1280  0.7082 -1.7929
10745TIP3   OH253725   0.073   5.137  16.670  0.6704 -0.0514 -0.0141
10745TIP3    H153726   0.069   5.068  16.738 -2.5709  1.4150  1.3893
10745TIP3    H253727   0.079   5.089  16.588 -0.9508 -2.0819  0.9839
10746TIP3   OH253728   6.653   4.674  17.185  0.0100  0.1540  0.0033
10746TIP3    H153729   6.665   4.587  17.223  1.8527  0.8247  1.0272
10746TIP3    H253730   6.561   4.695  17.201  0.2317 -0.4445  2.3057
10747TIP3   OH253731   1.394   0.502  11.031 -0.2287  0.5222 -0.2117
10747TIP3    H153732   1.304   0.475  11.010 -0.5908  2.2956 -1.1187
10747TIP3    H253733   1.400   0.496  11.126 -1.0946 -0.2493 -0.2022
10748TIP3   OH253734   5.928   4.108   4.750 -0.1982 -0.5028  0.0389
10748TIP3    H153735   5.886   4.183   4.794  1.3072 -0.1363  0.8912
10748TIP3    H253736   5.876   4.095   4.671 -1.8338  0.0229  0.9878
10749TIP3   OH253737   0.169   2.502  14.140 -0.2999  0.0362 -0.5766
10749TIP3    H153738   0.127   2.574  14.093 -0.6153  0.5210  0.4412
10749TIP3    H253739   0.114   2.426  14.122 -0.3313  0.1839 -1.1171
10750TIP3   OH253740   4.448   0.645   0.993  0.3425  0.0095 -0.0403
10750TIP3    H153741   4.383   0.655   1.063  0.4141 -0.5127  0.1011
10750TIP3    H253742   4.396   0.632   0.914  0.2828 -1.5452  0.2470
10751TIP3   OH253743   4.355   2.576   0.466  0.6172  0.1370  0.7110
10751TIP3    H153744   4.280   2.630   0.441  1.2260  0.8022  0.2989
10751TIP3    H253745   4.422   2.596   0.400  2.4813  2.4290  3.1915
10752TIP3   OH253746   2.065   4.287  11.711  0.0912 -0.4390  0.5115
10752TIP3    H153747   2.114   4.346  11.654  0.3779  0.2193  1.4372
10752TIP3    H253748   2.078   4.200  11.672 -0.9125  0.1869 -1.2507
10753TIP3   OH253749   0.121   1.014   6.900 -0.7708  0.1185  0.5337
10753TIP3    H153750   0.185   0.993   6.968 -0.4895 -0.0539  0.2238
10753TIP3    H253751   0.045   1.048   6.947 -0.2577  0.8014  0.8727
10754TIP3   OH253752   0.997   2.459  13.594  0.0625 -0.1452 -0.3125
10754TIP3    H153753   0.995   2.373  13.635 -0.8730 -0.5112 -1.1077
10754TIP3    H253754   0.911   2.497  13.614  0.4665  0.6037  0.0320
10755TIP3   OH253755   2.274   3.927   0.313  0.1113  0.9527  0.4761
10755TIP3    H153756   2.327   3.948   0.236 -0.5011 -0.2187 -0.2891
10755TIP3    H253757   2.337   3.901   0.380  0.6802  2.4348  0.5433
10756TIP3   OH253758   6.621   3.917   3.501  0.2258 -0.0209 -0.2939
10756TIP3    H153759   6.645   4.008   3.487 -2.0617  0.6288 -0.1689
10756TIP3    H253760   6.703   3.868   3.487  0.8672  1.7557 -3.0326
10757TIP3   OH253761   3.160   5.999  14.281 -0.0874 -0.2477  0.1473
10757TIP3    H153762   3.171   6.026  14.372  0.8315 -0.2828  0.0528
10757TIP3    H253763   3.065   5.992  14.269 -0.3725  2.7731  0.2241
10758TIP3   OH253764   5.914   5.255  15.030 -0.1650 -0.1162  0.6057
10758TIP3    H153765   5.946   5.177  14.984 -0.9513  0.2073 -0.5261
10758TIP3    H253766   5.848   5.221  15.091 -1.6824 -0.1967 -1.0267
10759TIP3   OH253767   0.137   6.452   5.228  0.1339 -0.0519 -0.1048
10759TIP3    H153768   0.119   6.433   5.136  3.0486 -0.5069 -0.6321
10759TIP3    H253769   0.225   6.417   5.244  0.0402  0.7756  2.6236
10760TIP3   OH253770   4.565   6.515   1.296 -0.5996  0.0261 -0.5480
10760TIP3    H153771   4.556   6.422   1.276 -0.0558 -0.7050  2.4315
10760TIP3    H253772   4.644   6.542   1.248  0.0287 -1.3804 -0.3229
10761TIP3   OH253773   3.614   1.610  16.514  0.4163 -0.2816 -0.3261
10761TIP3    H153774   3.636   1.619  16.606 -1.0986 -1.1018  0.1402
10761TIP3    H253775   3.637   1.694  16.475 -1.2984  0.9932  1.3106
10762TIP3   OH253776   4.475   3.211   2.438 -0.4212  0.2643  0.1586
10762TIP3    H153777   4.394   3.255   2.466 -1.0498 -0.1376 -0.9747
10762TIP3    H253778   4.531   3.211   2.516 -0.5103  2.8167  0.2496
10763TIP3   OH253779   3.010   2.282   2.270 -0.4226  0.0562 -0.2868
10763TIP3    H153780   3.034   2.230   2.193 -0.4366 -0.8831  0.3351
10763TIP3    H253781   3.083   2.342   2.283 -0.4593  0.2829 -1.0849
10764TIP3   OH253782   4.362   6.665  16.937 -0.1698 -0.3043 -0.2876
10764TIP3    H153783   4.319   6.594  16.984 -1.2889  0.3256 -0.3445
10764TIP3    H253784   4.326   6.661  16.848  1.4857 -1.1088 -0.9406
10765TIP3   OH253785   6.622   2.164  13.432  0.3837  0.8840 -0.3696
10765TIP3    H153786   6.613   2.201  13.520  1.1179 -1.5110  0.7537
10765TIP3    H253787   6.712   2.131  13.430 -0.9409 -2.8892 -0.4783
10766TIP3   OH253788   6.696   3.923   4.509 -0.1858 -0.2589  0.6823
10766TIP3    H153789   6.628   3.917   4.577  0.1028 -0.0424  0.9935
10766TIP3    H253790   6.716   3.832   4.487  0.0826 -0.3419  1.2564
10767TIP3   OH253791   5.955   6.782   5.803 -0.0693  0.3380 -0.0123
10767TIP3    H153792   5.890   6.821   5.743  0.4864  1.9742  0.4193
10767TIP3    H253793   5.933   6.819   5.889 -0.1029 -1.0510  0.5789
10768TIP3   OH253794   0.531   5.060  12.458  0.0421  0.8108 -0.6955
10768TIP3    H153795   0.551   5.148  12.490  0.1117 -0.0564  1.8115
10768TIP3    H253796   0.561   5.059  12.367  4.4584  1.9335  0.6098
10769TIP3   OH253797   5.426   6.098  15.212 -0.1605  0.4381  0.4926
10769TIP3    H153798   5.392   6.143  15.134 -0.5570  0.1354  0.4861
10769TIP3    H253799   5.411   6.160  15.283 -1.5905 -0.0534  0.6421
10770TIP3   OH253800   0.989   2.748   1.613 -0.4416  0.6083 -0.6143
10770TIP3    H153801   1.023   2.669   1.571 -1.1587 -0.1074  0.1410
10770TIP3    H253802   0.983   2.812   1.542 -1.5627 -0.5595 -1.6069
10771TIP3   OH253803   2.119   3.588  14.637  0.5202  0.2333  0.0299
10771TIP3    H153804   2.044   3.534  14.612  1.2979 -0.1784 -1.4662
10771TIP3    H253805   2.107   3.670  14.588 -0.3898  1.2488  1.9052
10772TIP3   OH253806   0.866   0.118   1.654  0.0862  0.4082 -0.0400
10772TIP3    H153807   0.872   0.032   1.694 -3.1472  0.6163  1.0352
10772TIP3    H253808   0.929   0.172   1.702 -0.3899 -0.5029  1.6260
10773TIP3   OH253809   3.738   5.168   2.380  0.4068 -0.1901 -0.6058
10773TIP3    H153810   3.690   5.100   2.428 -0.5856  0.0234 -1.2788
10773TIP3    H253811   3.742   5.136   2.290  2.4622 -0.6947 -0.3646
10774TIP3   OH253812   5.917   1.978   3.492  0.3290 -0.0279  0.3587
10774TIP3    H153813   5.950   1.888   3.497 -1.1709 -0.6623 -0.7807
10774TIP3    H253814   5.886   1.987   3.402  0.9157  1.8004  0.3265
10775TIP3   OH253815   2.370   5.203  16.031 -0.0697 -0.2354 -0.2449
10775TIP3    H153816   2.308   5.175  15.964 -0.0735 -1.2320  0.1663
10775TIP3    H253817   2.452   5.217  15.984 -0.5696  0.9613 -0.7653
10776TIP3   OH253818   2.481   5.265   4.262  0.3466 -0.2857 -0.0047
10776TIP3    H153819   2.550   5.319   4.224  1.5767 -1.9651 -0.2086
10776TIP3    H253820   2.403   5.286   4.211  1.1854  0.0846 -1.1482
10777TIP3   OH253821   6.282   3.528   3.039 -0.6564 -0.1998  0.2657
10777TIP3    H153822   6.339   3.577   2.979 -1.8248  0.9616  0.0769
10777TIP3    H253823   6.230   3.472   2.981 -0.7960 -0.1055  0.2979
10778TIP3   OH253824   6.701   5.327  16.645  0.3207  0.2921  0.0004
10778TIP3    H153825   6.768   5.260  16.631  0.6205  0.5077  0.3879
10778TIP3    H253826   6.619   5.277  16.657  0.5216 -0.0009  0.1649
10779TIP3   OH253827   2.855   0.405  11.368  0.1927 -0.4360 -0.1372
10779TIP3    H153828   2.910   0.346  11.316  1.4909 -0.0387  0.7439
10779TIP3    H253829   2.888   0.493  11.348 -0.2549 -0.1757  0.2526
10780TIP3   OH253830   1.699   3.700   2.034 -0.2158 -0.3152 -0.5863
10780TIP3    H153831   1.671   3.696   2.125  0.1742 -0.1652 -0.4633
10780TIP3    H253832   1.618   3.718   1.985 -0.1123  1.5513 -0.1060
10781TIP3   OH253833   4.099   3.999   4.995 -0.2967  0.2246  0.7123
10781TIP3    H153834   4.152   4.078   4.986  0.0956  0.0310  1.3529
10781TIP3    H253835   4.009   4.031   5.000  0.0273  0.7918  3.3840
10782TIP3   OH253836   1.466   1.787   3.086  0.3061 -0.3276  0.7344
10782TIP3    H153837   1.437   1.846   3.017 -0.5328 -2.1812 -0.5434
10782TIP3    H253838   1.556   1.814   3.105  0.7130 -0.1121 -1.4344
10783TIP3   OH253839   2.345   2.202  11.755 -0.5608 -0.1175 -0.5140
10783TIP3    H153840   2.328   2.296  11.752 -1.6877 -0.2575  0.8824
10783TIP3    H253841   2.271   2.166  11.805 -1.0518 -1.9536 -2.5038
10784TIP3   OH253842   4.935   3.091  14.975  0.2602 -0.2609  0.1053
10784TIP3    H153843   4.969   3.087  15.065 -0.1055  0.0138  0.2586
10784TIP3    H253844   4.937   3.000  14.945 -1.1251 -0.5846  0.9663
10785TIP3   OH253845   6.253   2.486  11.037  0.2873  0.3734  0.1146
10785TIP3    H153846   6.245   2.579  11.016  0.5585  0.5577  0.7862
10785TIP3    H253847   6.166   2.461  11.068  0.1324  0.3262 -0.3594
10786TIP3   OH253848   3.639   2.022   0.602 -0.3272 -0.0073 -0.4000
10786TIP3    H153849   3.559   2.075   0.598  0.6953  1.4923 -1.5189
10786TIP3    H253850   3.683   2.039   0.518  1.7721  0.1484  0.7078
10787TIP3   OH253851   1.103   5.129  15.905 -0.4331  0.2669  0.6593
10787TIP3    H153852   1.018   5.140  15.862  0.9643  1.9948 -1.7992
10787TIP3    H253853   1.164   5.114  15.833  1.5211  0.1718  2.3023
10788TIP3   OH253854   4.400   4.916  16.251 -0.3027  0.1534  0.4798
10788TIP3    H153855   4.336   4.969  16.203 -0.0955  0.0487  0.0867
10788TIP3    H253856   4.352   4.883  16.327 -0.5353  0.6034  0.5283
10789TIP3   OH253857   6.652   2.621  12.435  0.2399  0.0340 -0.0696
10789TIP3    H153858   6.665   2.570  12.515  1.1046  1.5551  0.7997
10789TIP3    H253859   6.564   2.598  12.406 -0.0590 -0.5985  1.2821
10790TIP3   OH253860   2.507   5.115  13.946 -0.4050  0.4229  0.1974
10790TIP3    H153861   2.483   5.064  14.023  0.5651  1.5786  1.3009
10790TIP3    H253862   2.474   5.203  13.964 -0.2664  0.6804 -0.7587
10791TIP3   OH253863   0.485   3.310   4.565 -0.2966  0.2750  0.3449
10791TIP3    H153864   0.560   3.297   4.506 -1.1047 -0.7184 -0.4964
10791TIP3    H253865   0.438   3.384   4.528 -0.2311  0.3069  0.3259
10792TIP3   OH253866   1.113   0.729  16.129  0.2245 -0.1986  0.1581
10792TIP3    H153867   1.057   0.727  16.052 -0.1294 -1.2763  0.4269
10792TIP3    H253868   1.073   0.665  16.189  1.3130 -0.4377  0.6424
10793TIP3   OH253869   1.450   6.777  14.120  0.2030  0.4389 -0.3244
10793TIP3    H153870   1.475   6.693  14.083 -0.1311  0.8169 -1.4293
10793TIP3    H253871   1.485   6.842  14.059 -1.2081  1.0385 -0.5245
10794TIP3   OH253872   4.283   3.843  14.639  0.4345  0.6357  0.2465
10794TIP3    H153873   4.330   3.912  14.592  0.2450 -0.2080 -1.2071
10794TIP3    H253874   4.313   3.762  14.600 -2.2986  0.0725 -0.8013
10795TIP3   OH253875   5.352   0.611  13.301  0.4870  0.0732 -0.2150
10795TIP3    H153876   5.380   0.520  13.304 -0.8127 -0.2954  1.9387
10795TIP3    H253877   5.280   0.616  13.364 -0.0924  2.3799 -0.9971
10796TIP3   OH253878   3.063   0.694   4.428  0.2379 -0.2952 -0.3427
10796TIP3    H153879   3.118   0.772   4.427 -1.9183  1.4509  4.5313
10796TIP3    H253880   3.123   0.623   4.452  1.2524  0.7170  0.1726
10797TIP3   OH253881   6.513   5.436  14.916  0.3904 -0.3807  0.2481
10797TIP3    H153882   6.601   5.438  14.955  0.0454 -1.9228  1.1380
10797TIP3    H253883   6.455   5.416  14.990 -0.3281 -2.7507 -0.9007
10798TIP3   OH253884   2.007   1.067   3.189  0.3223 -0.2663 -0.0395
10798TIP3    H153885   2.064   0.993   3.165  0.3582 -0.3376  0.2617
10798TIP3    H253886   1.919   1.029   3.191  0.1524  0.0203 -1.2855
10799TIP3   OH253887   5.955   0.482   3.244 -0.3828 -0.3540  0.2579
10799TIP3    H153888   5.924   0.572   3.240  0.7929  0.0136 -1.3259
10799TIP3    H253889   6.049   0.489   3.227 -0.1650 -1.8240  0.7970
10800TIP3   OH253890   5.999   4.162   4.030  0.0465  0.0526  0.0708
10800TIP3    H153891   6.030   4.253   4.025 -0.6478  0.2113 -2.0677
10800TIP3    H253892   6.076   4.110   4.006 -0.3836  0.2765 -1.9184
10801TIP3   OH253893   1.843   6.047  11.198 -0.6099 -0.7244  0.1531
10801TIP3    H153894   1.898   5.974  11.228 -0.8660 -0.5128  1.1833
10801TIP3    H253895   1.880   6.072  11.114  0.4109 -1.0881  0.4785
10802TIP3   OH253896   4.750   5.553   2.026 -0.0776  0.2366 -0.2378
10802TIP3    H153897   4.732   5.501   2.104 -0.5271 -0.6826 -0.9553
10802TIP3    H253898   4.817   5.616   2.054  0.0708 -0.3661  0.7690
10803TIP3   OH253899   2.172   5.746  15.591 -0.3842 -0.1707  0.0723
10803TIP3    H153900   2.103   5.801  15.555  0.2188  1.5546  1.5028
10803TIP3    H253901   2.137   5.715  15.675  0.5813  0.7406  0.8209
10804TIP3   OH253902   2.741   4.400  13.382 -0.0045 -0.0791  0.2551
10804TIP3    H153903   2.792   4.332  13.426 -2.2834 -2.1063 -0.1482
10804TIP3    H253904   2.682   4.433  13.450  1.2534  1.7316  0.5188
10805TIP3   OH253905   4.490   1.839   3.257  0.7335 -0.3450  0.2688
10805TIP3    H153906   4.525   1.885   3.334  3.7373 -0.9220 -0.6798
10805TIP3    H253907   4.540   1.874   3.183 -0.2553 -1.7179 -1.0816
10806TIP3   OH253908   1.280   6.366   1.082 -0.1303 -0.3160  0.2108
10806TIP3    H153909   1.231   6.315   1.147 -0.2447 -1.5474 -0.8189
10806TIP3    H253910   1.259   6.325   0.999 -0.3340  1.5350 -0.6731
10807TIP3   OH253911   1.001   4.122   5.502  0.3266  0.7037 -0.0641
10807TIP3    H153912   0.910   4.105   5.527 -0.2499  1.2188 -1.6967
10807TIP3    H253913   1.050   4.117   5.583 -1.3389  1.5339  1.0250
10808TIP3   OH253914   0.790   2.852  15.735  0.1267  0.1663 -0.3506
10808TIP3    H153915   0.792   2.757  15.723  0.6756  0.1791 -0.3466
10808TIP3    H253916   0.881   2.880  15.727  0.1397  0.5328  0.9762
10809TIP3   OH253917   3.719   1.368   2.576  0.1740  0.6666 -0.4117
10809TIP3    H153918   3.765   1.325   2.503 -0.1120 -0.6437  0.1709
10809TIP3    H253919   3.630   1.332   2.573  0.1564  0.6305  0.5763
10810TIP3   OH253920   0.916   0.090   3.117  0.3533 -0.1011  0.2154
10810TIP3    H153921   0.899   0.167   3.063 -1.2185 -0.5935 -0.0237
10810TIP3    H253922   0.908   0.121   3.207 -0.4112 -0.0053  0.1176
10811TIP3   OH253923   6.485   0.406  16.379  0.0890 -0.0208  0.3669
10811TIP3    H153924   6.468   0.489  16.335 -1.7808 -0.2831  0.5815
10811TIP3    H253925   6.576   0.385  16.357  0.5715  2.0769  0.3193
10812TIP3   OH253926   1.633   2.913   5.558  0.3638  0.9135  0.2000
10812TIP3    H153927   1.685   2.966   5.618  2.1837 -1.0375  0.3981
10812TIP3    H253928   1.679   2.918   5.474  0.8625 -0.7740  0.3560
10813TIP3   OH253929   2.402   1.920  11.253  0.6806  0.0605  0.7611
10813TIP3    H153930   2.486   1.879  11.275  0.7986  0.8407  1.8026
10813TIP3    H253931   2.375   1.878  11.171  3.0156  1.1575 -0.6262
10814TIP3   OH253932   6.787   2.512   1.134 -0.7076 -0.4557 -0.1650
10814TIP3    H153933   6.771   2.427   1.175 -0.3973 -0.8626 -0.8775
10814TIP3    H253934   6.844   2.558   1.196 -1.8303 -0.3080  0.7751
10815TIP3   OH253935   2.759   0.822   3.616 -0.0512 -0.4860 -0.1241
10815TIP3    H153936   2.766   0.814   3.711  0.0184 -3.4786 -0.3517
10815TIP3    H253937   2.849   0.822   3.585 -0.0708  0.5930 -0.2004
10816TIP3   OH253938   6.247   5.268  15.254 -0.3733 -0.0047  0.3781
10816TIP3    H153939   6.277   5.246  15.342 -2.2176 -0.7091  0.8556
10816TIP3    H253940   6.261   5.363  15.247 -0.1779  0.0473  1.4164
10817TIP3   OH253941   3.832   0.625   0.758 -0.1890  0.0764  0.3881
10817TIP3    H153942   3.752   0.672   0.738  0.6091  0.9045 -0.9243
10817TIP3    H253943   3.873   0.677   0.828  1.4485  2.2454 -2.1184
10818TIP3   OH253944   3.372   6.249  14.665 -0.5463 -0.5945  0.4282
10818TIP3    H153945   3.350   6.188  14.736 -0.9606  1.0196  1.7078
10818TIP3    H253946   3.325   6.329  14.687 -0.3204  0.0775 -1.4554
10819TIP3   OH253947   2.860   1.220  15.834 -0.1564 -0.1562  0.1667
10819TIP3    H153948   2.840   1.146  15.891  2.2000 -0.7023  0.3251
10819TIP3    H253949   2.932   1.190  15.778  0.5544  1.8433 -0.0640
10820TIP3   OH253950   4.832   5.402   6.297 -0.3827 -0.1303 -0.2645
10820TIP3    H153951   4.758   5.355   6.336  0.1499 -0.3401  0.5069
10820TIP3    H253952   4.809   5.495   6.307 -1.0622 -0.2143 -1.0522
10821TIP3   OH253953   2.978   4.169   6.465  0.0396 -0.3630  0.3321
10821TIP3    H153954   2.965   4.138   6.555 -0.5262 -1.1408 -0.0153
10821TIP3    H253955   2.982   4.264   6.474 -3.3967 -0.1746  0.8216
10822TIP3   OH253956   1.810   5.495   1.993 -0.3971  0.2208 -0.3376
10822TIP3    H153957   1.734   5.438   2.002  0.2915 -0.6168  0.2201
10822TIP3    H253958   1.862   5.479   2.072  0.5922  0.4384 -0.9337
10823TIP3   OH253959   4.070   3.412  15.570 -0.2260 -0.0125 -0.1795
10823TIP3    H153960   4.150   3.393  15.521 -0.7351 -0.4156 -0.8784
10823TIP3    H253961   4.006   3.349  15.535 -0.7092 -0.0216  0.7146
10824TIP3   OH253962   3.484   3.429  13.091  0.7886 -0.2033  0.4783
10824TIP3    H153963   3.537   3.368  13.041  0.2480 -0.6093  0.3954
10824TIP3    H253964   3.450   3.490  13.026  0.2345 -0.6217  0.3751
10825TIP3   OH253965   2.935   4.908  14.189 -0.3639 -0.0654 -0.4325
10825TIP3    H153966   2.860   4.853  14.213 -0.6547 -0.0654 -1.3139
10825TIP3    H253967   2.899   4.997  14.186 -0.4595 -0.1278 -1.3670
10826TIP3   OH253968   4.398   4.828   3.530 -0.0277 -0.0763 -0.0012
10826TIP3    H153969   4.467   4.892   3.512 -0.8075  0.2769 -1.8200
10826TIP3    H253970   4.402   4.767   3.457 -1.2995 -0.3534  0.1504
10827TIP3   OH253971   1.061   2.843   1.108  0.0975 -0.1991  0.1884
10827TIP3    H153972   0.976   2.856   1.067 -0.8120 -3.2235  0.9839
10827TIP3    H253973   1.124   2.850   1.036 -1.1093 -1.0817 -0.9789
10828TIP3   OH253974   3.727   4.443   1.784  0.0861 -0.2586 -0.3351
10828TIP3    H153975   3.776   4.362   1.795  0.6824  0.2064  0.3935
10828TIP3    H253976   3.776   4.493   1.719 -0.3403 -0.5232 -0.8654
10829TIP3   OH253977   6.104   3.380  15.622  0.2342 -0.2475  0.5386
10829TIP3    H153978   6.018   3.418  15.639 -0.2453 -1.3083  0.5284
10829TIP3    H253979   6.162   3.420  15.687 -0.3781  0.0637  0.8928
10830TIP3   OH253980   2.056   6.125   4.492  0.4067 -0.3753  0.4772
10830TIP3    H153981   2.072   6.210   4.450  1.1163  0.2935  2.0489
10830TIP3    H253982   2.008   6.147   4.572 -0.4381 -1.5753  0.3135
10831TIP3   OH253983   0.947   1.524   0.426  0.1951  0.1490 -0.6669
10831TIP3    H153984   1.001   1.506   0.503  0.4140  2.1313 -0.3146
10831TIP3    H253985   0.920   1.615   0.437 -1.1023 -0.0314 -2.1392
10832TIP3   OH253986   1.138   4.383   1.963 -0.0847 -0.6914  0.6932
10832TIP3    H153987   1.124   4.459   2.019 -0.3284 -0.9067  0.9277
10832TIP3    H253988   1.138   4.309   2.024  0.4678 -0.8468  0.5053
10833TIP3   OH253989   4.651   3.334   1.090 -0.0002 -0.6936 -0.4246
10833TIP3    H153990   4.623   3.418   1.126 -1.3276 -0.9673 -0.7813
10833TIP3    H253991   4.641   3.344   0.995 -0.8859 -1.5067 -0.4196
10834TIP3   OH253992   5.994   2.229   5.242 -0.7422 -1.2060 -0.3788
10834TIP3    H153993   5.978   2.153   5.186 -2.3182 -0.2635 -1.2482
10834TIP3    H253994   5.909   2.248   5.281 -0.5191  0.5254 -0.7150
10835TIP3   OH253995   1.936   6.672   3.190  0.0397  0.5673 -0.5804
10835TIP3    H153996   1.954   6.764   3.170 -3.6245  1.5489  0.2502
10835TIP3    H253997   1.934   6.668   3.285  0.8186 -0.5315 -0.5977
10836TIP3   OH253998   3.241   3.696   1.214 -0.1305 -0.5220  0.3704
10836TIP3    H153999   3.327   3.738   1.213 -0.3493 -0.0527  1.2973
10836TIP3    H254000   3.237   3.648   1.131 -0.1247  1.7550 -0.9747
10837TIP3   OH254001   1.701   4.426  17.192  0.5715  0.7553  0.3474
10837TIP3    H154002   1.738   4.367  17.258  1.3854  2.5173  1.5125
10837TIP3    H254003   1.612   4.443  17.222  0.0625 -0.5395 -0.4349
10838TIP3   OH254004   0.001   5.457   3.901  0.3225 -0.0286 -0.0158
10838TIP3    H154005  -0.051   5.537   3.911  0.1076 -0.2468  0.6466
10838TIP3    H254006  -0.063   5.386   3.907  0.5824 -0.2680 -0.0778
10839TIP3   OH254007   5.719   6.348   3.626 -0.2247  0.1210 -0.0708
10839TIP3    H154008   5.731   6.416   3.693 -0.5899 -1.1474  1.2957
10839TIP3    H254009   5.660   6.284   3.667  1.1137 -1.6597 -0.8677
10840TIP3   OH254010   2.878   0.639  10.716 -0.0293  0.2068  0.2932
10840TIP3    H154011   2.972   0.623  10.726 -0.1136 -1.6469 -1.5200
10840TIP3    H254012   2.862   0.631  10.622 -2.3112 -1.3224  0.7704
10841TIP3   OH254013   0.984   6.262  11.701 -0.4780 -0.0571  0.5193
10841TIP3    H154014   0.957   6.184  11.653 -0.8708  1.1405 -1.2513
10841TIP3    H254015   1.079   6.259  11.701 -0.4525  0.3740 -1.1107
10842TIP3   OH254016   4.658   2.212   4.012  0.0537 -0.9130  0.0600
10842TIP3    H154017   4.740   2.198   4.059  0.2571 -0.2057 -0.0860
10842TIP3    H254018   4.684   2.220   3.920 -0.2203 -1.0993 -0.0344
10843TIP3   OH254019   6.751   1.530  11.919 -0.5083  0.0598 -0.5252
10843TIP3    H154020   6.834   1.484  11.927 -0.3258  0.1381 -1.8833
10843TIP3    H254021   6.688   1.475  11.966  0.4142  0.3080  1.0416
10844TIP3   OH254022   6.694   5.263   1.425  0.4819  0.0633  0.4506
10844TIP3    H154023   6.726   5.216   1.348 -1.2130  1.2160 -1.0227
10844TIP3    H254024   6.611   5.219   1.446 -0.2709  1.2753  0.0912
10845TIP3   OH254025   2.163   1.560   1.172  0.6758 -0.1317 -0.1378
10845TIP3    H154026   2.078   1.593   1.142  1.0304  0.4349 -0.5287
10845TIP3    H254027   2.185   1.616   1.247  0.6607 -0.3316  0.0139
10846TIP3   OH254028   6.234   3.783  12.069 -0.0054  0.1988  0.1151
10846TIP3    H154029   6.245   3.689  12.051 -0.2701  0.3937 -1.0684
10846TIP3    H254030   6.324   3.817  12.074  0.0985 -0.1517  0.8072
10847TIP3   OH254031   0.439   0.560   6.705  0.1446  0.5801  0.3657
10847TIP3    H154032   0.441   0.483   6.762 -0.4896 -0.2556 -0.7287
10847TIP3    H254033   0.511   0.546   6.644 -0.2055  0.6710 -0.0695
10848TIP3   OH254034   2.880   2.649  16.198  0.0634  0.1728 -0.1387
10848TIP3    H154035   2.867   2.743  16.196  0.5458  0.2594  0.5905
10848TIP3    H254036   2.840   2.621  16.281 -2.3308 -0.6220 -1.5019
10849TIP3   OH254037   5.250   1.634   3.547 -0.2177 -0.4538 -0.3548
10849TIP3    H154038   5.252   1.700   3.616  0.5158  0.6595 -1.4314
10849TIP3    H254039   5.253   1.550   3.594  1.4783  0.2931  0.9110
10850TIP3   OH254040   2.808   3.827   2.938  0.4432  0.1526 -0.8848
10850TIP3    H154041   2.887   3.875   2.916 -0.0702  1.0781 -0.7225
10850TIP3    H254042   2.761   3.819   2.855  0.2724  0.4135 -0.8160
10851TIP3   OH254043   4.050   4.338   3.000  0.5352  0.8059  0.5533
10851TIP3    H154044   3.979   4.295   2.953  0.8772  1.4887 -0.5950
10851TIP3    H254045   4.014   4.423   3.025  2.1921  2.8573 -3.5608
10852TIP3   OH254046   1.424   6.186  11.192  0.4730 -0.0076  0.3485
10852TIP3    H154047   1.506   6.229  11.168 -0.3173  0.7979 -0.9684
10852TIP3    H254048   1.360   6.257  11.198  0.2063 -0.4252  3.0339
10853TIP3   OH254049   5.734   4.166  13.965  0.7751  0.4977 -0.5809
10853TIP3    H154050   5.789   4.220  14.023  0.7392  1.2548 -1.2363
10853TIP3    H254051   5.645   4.196  13.983  0.7396  0.5304 -0.8141
10854TIP3   OH254052   6.388   2.621   1.893  0.0026  0.3215  0.4030
10854TIP3    H154053   6.352   2.534   1.877  0.2516  0.2627  0.1611
10854TIP3    H254054   6.441   2.610   1.972 -0.2176  0.3268  0.5534
10855TIP3   OH254055   6.058   4.620   3.071  0.7977  0.6773 -0.0903
10855TIP3    H154056   6.129   4.590   3.128 -0.0415 -1.9593 -0.3911
10855TIP3    H254057   5.978   4.608   3.122  0.0917 -1.1991 -1.5794
10856TIP3   OH254058   6.484   5.539  13.803 -0.2263 -0.0468  0.3226
10856TIP3    H154059   6.456   5.623  13.840  0.2507 -0.5433  1.8343
10856TIP3    H254060   6.438   5.473  13.855  1.7008 -0.7938  1.1146
10857TIP3   OH254061   3.866   4.240   1.915 -0.3194 -0.1228 -0.0259
10857TIP3    H154062   3.820   4.159   1.891 -1.3124  0.8224 -1.4238
10857TIP3    H254063   3.958   4.216   1.915 -0.6908 -1.6625  1.2179
10858TIP3   OH254064   2.169   0.212  13.856 -0.0946  0.0867 -0.0668
10858TIP3    H154065   2.117   0.216  13.937  0.0233 -3.5241  0.2631
10858TIP3    H254066   2.258   0.238  13.883 -0.2127 -0.4105  0.8023
10859TIP3   OH254067   5.969   2.420  11.560 -0.1779  0.4143  0.2662
10859TIP3    H154068   6.032   2.442  11.492 -0.6542  1.5516  0.1795
10859TIP3    H254069   5.891   2.472  11.539 -1.6583 -1.9594 -0.3965
10860TIP3   OH254070   2.112   1.947  12.252 -0.2146  0.0842 -0.6829
10860TIP3    H154071   2.198   1.989  12.254  0.0060 -0.3808 -0.2728
10860TIP3    H254072   2.057   2.001  12.309 -0.1333  0.2552 -0.7674
10861TIP3   OH254073   1.986   3.283   1.096  0.2014 -0.5899  0.1688
10861TIP3    H154074   2.062   3.299   1.039  0.7635  0.1054  1.0863
10861TIP3    H254075   2.020   3.299   1.184 -1.2275  0.5199  0.5238
10862TIP3   OH254076   3.661   0.574  14.122 -0.4613 -0.5668 -0.1398
10862TIP3    H154077   3.745   0.568  14.076 -0.5088  0.5851 -0.3905
10862TIP3    H254078   3.659   0.498  14.180  0.2960 -1.1668 -0.8961
10863TIP3   OH254079   5.204   6.536   1.379  0.2794 -0.4178 -0.5604
10863TIP3    H154080   5.286   6.487   1.391  0.7065  0.5975  0.8672
10863TIP3    H254081   5.141   6.490   1.435  1.2046  1.8113  2.4720
10864TIP3   OH254082   3.520   2.499   1.602 -0.3012  0.4967  0.4690
10864TIP3    H154083   3.480   2.416   1.578 -0.8216  1.2140 -1.2446
10864TIP3    H254084   3.490   2.516   1.691  1.9500 -2.4207  1.8707
10865TIP3   OH254085   1.890   0.176   0.142  0.1167 -0.6024 -0.4164
10865TIP3    H154086   1.895   0.205   0.051  0.0065  0.9993  0.0694
10865TIP3    H254087   1.977   0.194   0.178 -0.5818  1.1166  0.4627
10866TIP3   OH254088   3.580   0.907   6.310 -0.5628  0.2085  0.2740
10866TIP3    H154089   3.636   0.907   6.388  0.9443  0.7653 -0.8007
10866TIP3    H254090   3.583   0.817   6.278  0.1004  0.3438 -0.0492
10867TIP3   OH254091   0.125   6.444   1.595 -0.1080  0.4428  0.4134
10867TIP3    H154092   0.198   6.435   1.656  1.5112  1.2466 -1.3460
10867TIP3    H254093   0.125   6.536   1.570  1.1487 -0.4204 -3.0229
10868TIP3   OH254094   1.784   2.078  14.985 -0.1168  0.3194 -0.2163
10868TIP3    H154095   1.763   2.152  14.929  0.8158  1.2702  0.6781
10868TIP3    H254096   1.871   2.051  14.956 -0.0603  0.1658  0.1054
10869TIP3   OH254097   0.402   0.988   3.912  0.4005  0.2726  0.2610
10869TIP3    H154098   0.428   0.952   3.827 -0.2945  2.5799 -0.9639
10869TIP3    H254099   0.352   0.918   3.953 -1.1754 -0.0955 -2.1791
10870TIP3   OH254100   2.978   2.000  16.198  0.1355 -0.1155 -0.1200
10870TIP3    H154101   2.983   1.914  16.157  1.2644 -0.1973  0.1771
10870TIP3    H254102   3.030   2.057  16.141  1.0619 -0.0671  0.7566
10871TIP3   OH254103   3.905   2.995   5.417  0.3651  0.1611  0.6036
10871TIP3    H154104   3.938   2.942   5.344  0.6498  0.1082  0.7659
10871TIP3    H254105   3.833   3.045   5.380  1.0926  0.8174  0.0502
10872TIP3   OH254106   2.127   1.573   2.801 -0.3453 -0.3421 -0.0241
10872TIP3    H154107   2.158   1.484   2.821  1.0985  0.3827  1.1081
10872TIP3    H254108   2.200   1.614   2.755 -1.0098  0.2575 -0.5566
10873TIP3   OH254109   4.799   6.234   2.198  0.0623 -0.4676 -0.3378
10873TIP3    H154110   4.843   6.151   2.219  1.4505  0.3521  0.0310
10873TIP3    H254111   4.760   6.219   2.111 -0.2517 -1.7095 -0.0036
10874TIP3   OH254112   2.912   3.184   5.783 -0.2399  0.2596  0.7711
10874TIP3    H154113   2.902   3.088   5.782 -1.3234  0.3333  2.8627
10874TIP3    H254114   2.993   3.199   5.832  1.1939  0.3547 -1.5512
10875TIP3   OH254115   2.249   5.451   0.677  0.3138  0.0557 -0.2650
10875TIP3    H154116   2.285   5.436   0.764 -0.2552  1.6269  0.2580
10875TIP3    H254117   2.314   5.506   0.633 -0.1130  0.5495 -0.2895
10876TIP3   OH254118   1.507   4.772   2.610  0.5983  0.3142  0.3569
10876TIP3    H154119   1.587   4.758   2.560  1.0885  1.4402  0.8135
10876TIP3    H254120   1.471   4.684   2.624  2.1388 -0.2537  0.7937
10877TIP3   OH254121   4.835   2.104   3.036 -0.0429  0.1407  0.4646
10877TIP3    H154122   4.804   2.173   2.977 -1.1370 -0.4795  0.2946
10877TIP3    H254123   4.811   2.135   3.123  2.0148  1.2870  0.6475
10878TIP3   OH254124   3.349   6.450  16.292 -0.0371 -0.1291 -0.2320
10878TIP3    H154125   3.255   6.440  16.307 -0.0690 -2.7587 -1.8545
10878TIP3    H254126   3.386   6.468  16.378 -1.9898  0.8347  0.4393
10879TIP3   OH254127   5.957   3.435   5.246  0.2866  0.2685  0.3660
10879TIP3    H154128   6.014   3.410   5.173  1.3516  1.4096  0.7906
10879TIP3    H254129   5.890   3.367   5.248  1.4286 -0.9047 -0.3777
10880TIP3   OH254130   4.923   4.069  16.301 -0.1449  0.3746 -0.3268
10880TIP3    H154131   4.978   4.147  16.307 -0.7738  0.6974  1.5579
10880TIP3    H254132   4.983   3.999  16.276  0.5911  1.2561 -1.0754
10881TIP3   OH254133   6.394   6.297  16.795 -0.2156  0.4668 -0.0162
10881TIP3    H154134   6.485   6.302  16.765  0.5321  0.7837  2.1900
10881TIP3    H254135   6.363   6.388  16.793 -0.6983  0.2799 -1.3664
10882TIP3   OH254136   6.560   2.244   2.777 -0.2550  0.9660  1.1238
10882TIP3    H154137   6.524   2.210   2.858  0.3555  2.0461  1.8719
10882TIP3    H254138   6.545   2.339   2.782  0.1979  1.0959  0.1943
10883TIP3   OH254139   2.669   0.911   4.508  0.0965 -0.1833 -0.0020
10883TIP3    H154140   2.737   0.921   4.574 -0.0441  0.3211  0.0703
10883TIP3    H254141   2.600   0.861   4.551  0.1601 -0.1654  0.1190
10884TIP3   OH254142   2.079   3.941   0.079 -0.1046 -0.3194  0.0749
10884TIP3    H154143   2.069   3.855   0.039  0.5964  0.1267 -1.0919
10884TIP3    H254144   2.165   3.938   0.121  0.6495  0.3752 -1.4097
10885TIP3   OH254145   0.838   0.934   0.532 -0.0386  0.0173 -0.2759
10885TIP3    H154146   0.877   0.987   0.463  0.6274  1.3875  1.1032
10885TIP3    H254147   0.748   0.967   0.540  0.0430  0.2059 -0.1399
10886TIP3   OH254148   4.239   1.300   3.076  0.1581  0.6942 -0.2882
10886TIP3    H154149   4.309   1.255   3.027 -1.4048  0.6887 -2.6030
10886TIP3    H254150   4.285   1.361   3.133  2.1566 -1.0629  0.0414
10887TIP3   OH254151   5.069   0.930  14.230  0.1363 -0.4244  0.1926
10887TIP3    H154152   5.002   0.865  14.211 -1.0970  1.0184 -0.4711
10887TIP3    H254153   5.070   0.937  14.325 -1.5722  0.4996  0.1453
10888TIP3   OH254154   5.188   4.595   4.426 -0.3821 -0.0381  0.1291
10888TIP3    H154155   5.253   4.525   4.416 -0.2113  0.3199 -1.4738
10888TIP3    H254156   5.125   4.579   4.355 -0.5894  1.1566  0.0314
10889TIP3   OH254157   3.102   6.598  13.296 -0.1876 -0.4363 -0.5124
10889TIP3    H154158   3.185   6.642  13.315  0.1323 -0.3124 -2.1038
10889TIP3    H254159   3.106   6.516  13.344  1.0027 -0.5791 -0.8454
10890TIP3   OH254160   3.374   3.273   6.319  0.2149 -0.2198 -0.4314
10890TIP3    H154161   3.320   3.243   6.245  0.1064  0.7494 -0.7510
10890TIP3    H254162   3.464   3.264   6.288  0.1543  0.7099 -0.8918
10891TIP3   OH254163   5.010   5.347   4.900 -0.0160 -0.3788  0.1219
10891TIP3    H154164   5.066   5.379   4.828 -2.0943  0.8260 -1.0017
10891TIP3    H254165   5.006   5.420   4.961  0.9483 -1.0605  1.0302
10892TIP3   OH254166   1.758   1.320  15.314  0.2375 -0.0824 -0.3063
10892TIP3    H154167   1.725   1.285  15.397  1.6673 -0.0434  0.3029
10892TIP3    H254168   1.805   1.400  15.339  0.7102 -0.0928 -1.1389
10893TIP3   OH254169   5.245   1.211  14.679 -0.2220 -0.6143  0.1781
10893TIP3    H154170   5.277   1.261  14.755  2.2165 -0.8895 -0.6240
10893TIP3    H254171   5.271   1.121  14.697 -2.1229 -1.1678  0.2894
10894TIP3   OH254172   2.408   2.724   2.557 -0.2922 -0.0853  0.0801
10894TIP3    H154173   2.449   2.709   2.642 -2.0526  0.1267  1.0000
10894TIP3    H254174   2.446   2.806   2.526 -0.5544  0.4908  1.2577
10895TIP3   OH254175   0.783   6.060   4.623 -0.3893 -0.5524  0.1262
10895TIP3    H154176   0.811   5.990   4.564  0.1216 -0.4990  0.2992
10895TIP3    H254177   0.721   6.018   4.683 -0.2033 -0.8213  0.1322
10896TIP3   OH254178   1.949   2.490  14.051  0.0520 -0.1994 -0.1863
10896TIP3    H154179   1.892   2.493  14.127 -0.0347  0.8209 -0.2831
10896TIP3    H254180   1.890   2.492  13.976  0.0978 -2.1934 -0.2825
10897TIP3   OH254181   4.055   3.488   0.591 -0.1067  0.1959 -0.1950
10897TIP3    H154182   4.064   3.433   0.514  0.1856  0.5642 -0.4261
10897TIP3    H254183   4.144   3.515   0.613 -0.2054  0.2361  0.1655
10898TIP3   OH254184   6.755   0.874   2.581 -0.2655  0.5952 -0.3711
10898TIP3    H154185   6.760   0.917   2.667  0.4124 -1.3684  0.6148
10898TIP3    H254186   6.710   0.791   2.599  0.9316 -0.3627 -1.6997
10899TIP3   OH254187   1.791   3.191   2.060  0.1753 -0.7328 -0.7845
10899TIP3    H154188   1.773   3.235   1.977 -0.7272 -0.8738 -0.6685
10899TIP3    H254189   1.739   3.110   2.055  1.0176 -1.2932 -0.5659
10900TIP3   OH254190   2.219   3.262   1.554 -0.6045 -0.2372  0.5366
10900TIP3    H154191   2.161   3.321   1.603 -0.2188  0.2737  0.3805
10900TIP3    H254192   2.267   3.215   1.621 -1.3677 -0.8355  0.6730
10901TIP3   OH254193   0.811   3.683  10.712 -0.0296  0.0929  0.2263
10901TIP3    H154194   0.742   3.649  10.770  0.1948 -3.3877 -1.4329
10901TIP3    H254195   0.765   3.706  10.631 -0.0175  2.9299  0.9847
10902TIP3   OH254196   1.524   4.903  17.289  0.2464  0.3489 -0.1624
10902TIP3    H154197   1.556   4.837  17.350  1.1988  0.4997 -0.4970
10902TIP3    H254198   1.460   4.953  17.340 -1.1148 -1.3345 -0.1500
10903TIP3   OH254199   4.657   1.848   0.375  0.1072 -0.1565 -0.6505
10903TIP3    H154200   4.741   1.816   0.341 -0.3937 -2.6127  0.3499
10903TIP3    H254201   4.599   1.772   0.372 -1.3770  0.8705  1.0367
10904TIP3   OH254202   0.071   4.117  15.418  0.4128  0.6379 -0.3306
10904TIP3    H154203   0.050   4.087  15.506 -1.4326 -0.2687 -1.0436
10904TIP3    H254204   0.133   4.053  15.384 -1.2035 -0.7602 -0.7493
10905TIP3   OH254205   1.516   6.712   5.473  0.4096 -0.3096 -0.1467
10905TIP3    H154206   1.594   6.717   5.419 -1.3775  0.7276 -2.7379
10905TIP3    H254207   1.444   6.733   5.413 -1.6097  1.3847  2.7494
10906TIP3   OH254208   1.778   6.023  17.091 -0.1508  0.4983  0.5582
10906TIP3    H154209   1.719   5.948  17.084  0.6834  0.0140 -1.5170
10906TIP3    H254210   1.740   6.088  17.032  1.0886  0.3613 -0.4202
10907TIP3   OH254211   0.006   5.957   3.830  0.2811  0.3704 -0.1514
10907TIP3    H154212  -0.076   5.943   3.783  0.9507 -1.8060 -0.7356
10907TIP3    H254213   0.069   5.902   3.784  1.4408 -0.0920  1.9488
10908TIP3   OH254214   3.704   1.404  12.423  0.0003 -0.3406  0.2645
10908TIP3    H154215   3.678   1.352  12.347 -0.1086 -1.5765  1.1316
10908TIP3    H254216   3.799   1.395  12.428 -0.1603 -1.6870  1.2690
10909TIP3   OH254217   1.795   5.606   3.472 -0.3754 -0.2792  0.2945
10909TIP3    H154218   1.758   5.540   3.531 -0.6589  0.5201  1.0194
10909TIP3    H254219   1.876   5.632   3.515  0.3276 -1.0130 -0.5889
10910TIP3   OH254220   4.632   1.498   4.626  0.1309  0.4909  0.1507
10910TIP3    H154221   4.627   1.538   4.539  1.4356  1.3265  0.4398
10910TIP3    H254222   4.681   1.417   4.613  0.1522  0.5157  0.0756
10911TIP3   OH254223   3.832   2.725  10.964 -0.0883  0.1199  0.4248
10911TIP3    H154224   3.785   2.665  10.906 -0.5071  0.1640  0.7131
10911TIP3    H254225   3.875   2.786  10.905  1.0881 -1.0066  0.1006
10912TIP3   OH254226   3.532   3.498  12.407 -0.1433  0.4877  0.3964
10912TIP3    H154227   3.491   3.440  12.342  1.4446  0.0542 -0.2391
10912TIP3    H254228   3.498   3.585  12.386 -0.7501  0.1346 -0.1178
10913TIP3   OH254229   0.234   3.999  16.802  0.6884  0.5907 -0.1731
10913TIP3    H154230   0.284   3.984  16.722 -1.0450 -1.1683 -0.9899
10913TIP3    H254231   0.282   3.952  16.870  0.8576  0.0096 -0.6856
10914TIP3   OH254232   4.276   1.257  10.806 -0.1516  0.5179  0.0050
10914TIP3    H154233   4.244   1.245  10.717 -1.6142  2.1819  0.2776
10914TIP3    H254234   4.225   1.195  10.858 -0.2388  0.4904 -0.1128
10915TIP3   OH254235   5.755   3.096  11.017  0.3795  0.3087 -0.2872
10915TIP3    H154236   5.727   3.188  11.021 -0.8999 -0.0245 -1.2410
10915TIP3    H254237   5.674   3.047  11.013  1.0542 -0.9135  0.7812
10916TIP3   OH254238   5.068   1.444   2.060 -0.3755 -0.2065  0.1417
10916TIP3    H154239   4.988   1.415   2.017 -0.7099  0.8189  0.0669
10916TIP3    H254240   5.083   1.533   2.027  1.5473 -0.8872 -0.8829
10917TIP3   OH254241   5.295   3.475  15.470 -0.5988  0.2401  0.1787
10917TIP3    H154242   5.211   3.450  15.508 -1.6802  0.8800 -1.6904
10917TIP3    H254243   5.273   3.505  15.382  1.5352  0.9458 -0.1453
10918TIP3   OH254244   3.998   2.939   3.882 -0.1777  0.1720  0.1261
10918TIP3    H154245   3.992   2.993   3.804 -2.4372  0.4778  0.4825
10918TIP3    H254246   4.026   2.853   3.849 -2.1421 -0.0024 -1.1873
10919TIP3   OH254247   5.496   1.403  15.960  0.3180 -0.8905 -0.2842
10919TIP3    H154248   5.476   1.394  15.866  0.6903 -0.3417 -0.4139
10919TIP3    H254249   5.557   1.477  15.965 -0.2955 -0.4270  0.4682
10920TIP3   OH254250   2.579   6.665  14.048 -0.6134 -0.1286  0.0685
10920TIP3    H154251   2.656   6.641  14.099 -0.9077 -0.4163  0.3770
10920TIP3    H254252   2.604   6.650  13.957  0.6108  2.2921 -0.0278
10921TIP3   OH254253   4.534   4.504  13.397  0.9093 -0.0405 -0.2964
10921TIP3    H154254   4.471   4.556  13.346 -1.1554  0.4784  2.6767
10921TIP3    H254255   4.522   4.414  13.367 -0.0274  0.3087 -0.9606
10922TIP3   OH254256   4.262   6.726  15.512  0.0763 -0.2184  0.5602
10922TIP3    H154257   4.346   6.689  15.540 -0.1407 -0.3285  1.0623
10922TIP3    H254258   4.231   6.776  15.587 -1.9430 -2.9768  1.6207
10923TIP3   OH254259   5.635   2.196  12.524  0.4326 -0.1666 -0.1743
10923TIP3    H154260   5.655   2.257  12.595  0.0187 -1.5061  1.1270
10923TIP3    H254261   5.566   2.239  12.473 -0.2398  0.2157  1.0532
10924TIP3   OH254262   4.640   0.434   5.862 -0.0465 -0.1699 -0.9408
10924TIP3    H154263   4.670   0.376   5.792  0.0055 -0.4576 -0.6829
10924TIP3    H254264   4.720   0.461   5.907 -0.0268  0.5437 -1.4028
10925TIP3   OH254265   1.018   0.748   0.381 -0.7150 -0.4866  0.4631
10925TIP3    H154266   0.949   0.810   0.407 -0.5211  0.1246 -0.4653
10925TIP3    H254267   0.973   0.683   0.327 -0.7935 -0.7860  0.8867
10926TIP3   OH254268   3.815   2.462   5.387 -0.0380 -0.4518 -0.2894
10926TIP3    H154269   3.721   2.450   5.399  0.1507 -1.8302 -0.1309
10926TIP3    H254270   3.843   2.510   5.466 -0.7653  0.8911 -0.8265
10927TIP3   OH254271   1.427   0.221  11.555 -0.0131  0.0405  0.1210
10927TIP3    H154272   1.405   0.199  11.645 -0.5615 -1.5172 -0.3679
10927TIP3    H254273   1.499   0.161  11.533 -1.2100 -0.9869 -1.0965
10928TIP3   OH254274   6.117   4.231  15.928 -0.1949  0.0525 -0.1761
10928TIP3    H154275   6.084   4.201  16.012 -0.8524  0.1332 -0.4000
10928TIP3    H254276   6.085   4.321  15.920  0.6029  0.3459 -0.1218
10929TIP3   OH254277   4.674   2.953  12.158  0.1194 -0.1424  0.0931
10929TIP3    H154278   4.605   3.000  12.112  0.8994  0.5047 -0.4277
10929TIP3    H254279   4.751   2.961  12.102  0.3042 -1.9426  0.0552
10930TIP3   OH254280   2.812   3.077  15.073 -0.4050 -0.0464 -0.6538
10930TIP3    H154281   2.766   3.120  15.146 -1.5129  0.6089 -1.7152
10930TIP3    H254282   2.827   3.147  15.010 -0.7693 -0.8857 -1.6898
10931TIP3   OH254283   4.251   0.186  12.876  0.0434 -0.0217 -0.2717
10931TIP3    H154284   4.334   0.161  12.917 -0.2297 -3.1371 -1.4882
10931TIP3    H254285   4.184   0.153  12.936 -0.3485  2.1427  0.5129
10932TIP3   OH254286   1.692   0.875   1.014 -0.1984  0.2276  0.0143
10932TIP3    H154287   1.625   0.931   0.974 -0.9853 -0.6048  0.1643
10932TIP3    H254288   1.764   0.877   0.952 -0.1172  1.6127  0.1321
10933TIP3   OH254289   4.678   6.792  15.648  0.0099 -0.2350 -0.3819
10933TIP3    H154290   4.685   6.792  15.743 -0.3865  1.4135 -0.3304
10933TIP3    H254291   4.605   6.733  15.629  0.5908 -1.1757  0.2831
10934TIP3   OH254292   6.665   0.976  13.766 -0.0511  0.3656 -0.2809
10934TIP3    H154293   6.669   1.069  13.786  0.4019  0.1015  0.8917
10934TIP3    H254294   6.579   0.963  13.727  0.5443  1.5834 -2.0771
10935TIP3   OH254295   1.639   5.287   1.566  0.1398 -0.2217  0.5493
10935TIP3    H154296   1.712   5.344   1.543 -0.1957  1.0091  2.3796
10935TIP3    H254297   1.679   5.214   1.614  0.3250 -0.3454  0.2070
10936TIP3   OH254298   5.505   3.042  10.639 -0.6235 -0.0982 -0.0787
10936TIP3    H154299   5.540   2.962  10.599 -1.3808 -0.5814  0.1935
10936TIP3    H254300   5.540   3.113  10.585 -1.4258 -0.7198 -1.4664
10937TIP3   OH254301   1.466   5.852   0.866 -0.2577 -0.3946  0.0272
10937TIP3    H154302   1.496   5.821   0.952  0.1373 -2.1012 -0.7029
10937TIP3    H254303   1.383   5.806   0.853 -0.6165  0.3291 -0.2496
10938TIP3   OH254304   0.432   5.102  11.965  0.0254 -0.2817  0.5831
10938TIP3    H154305   0.369   5.120  11.896  1.2942  1.5663 -0.1454
10938TIP3    H254306   0.397   5.149  12.041  1.2268  1.9597 -0.2109
10939TIP3   OH254307   0.558   0.747  11.195  0.2990  0.3699  0.3742
10939TIP3    H154308   0.535   0.654  11.204  2.3856 -0.2514 -0.3400
10939TIP3    H254309   0.502   0.778  11.124  0.5021 -0.7132 -0.2909
10940TIP3   OH254310   1.338   6.736   3.647  0.0288  0.0918  0.0839
10940TIP3    H154311   1.322   6.771   3.735 -0.0744 -0.0730  0.1314
10940TIP3    H254312   1.360   6.813   3.595 -2.5301  0.5895 -0.3651
10941TIP3   OH254313   4.984   4.991   1.733 -0.2345  0.8209  0.4128
10941TIP3    H154314   5.018   4.967   1.646 -0.1521  1.7107  0.1973
10941TIP3    H254315   4.928   4.918   1.757  0.0954  0.3564 -0.1990
10942TIP3   OH254316   2.974   2.482  15.009  0.4763 -0.6090  0.3646
10942TIP3    H154317   2.925   2.563  15.017  0.6253 -0.5629  0.8019
10942TIP3    H254318   3.065   2.508  15.021  0.5970 -0.7149 -0.3035
10943TIP3   OH254319   4.434   1.797   4.872 -0.4499  0.2163 -0.3295
10943TIP3    H154320   4.508   1.749   4.834 -2.6154 -2.9091 -0.7770
10943TIP3    H254321   4.430   1.878   4.820  1.3853 -0.4762 -1.6230
10944TIP3   OH254322   2.522   1.280  15.301  0.0936  1.0948 -0.1024
10944TIP3    H154323   2.557   1.205  15.254  1.6013  1.4597  0.4254
10944TIP3    H254324   2.537   1.354  15.243  1.4509  1.4604  0.6960
10945TIP3   OH254325   1.901   2.179   2.556 -0.7502  0.4266 -0.8266
10945TIP3    H154326   1.815   2.168   2.513 -1.4441  0.8592  0.4330
10945TIP3    H254327   1.891   2.258   2.609 -0.3437 -0.8782  1.2140
10946TIP3   OH254328   4.378   5.331  15.756 -0.4197 -0.4744 -0.2818
10946TIP3    H154329   4.420   5.287  15.831  1.0500  1.3842  0.0113
10946TIP3    H254330   4.348   5.414  15.791 -1.2967 -0.3315 -1.3564
10947TIP3   OH254331   6.510   3.933   4.715  0.2236  0.5698  0.1468
10947TIP3    H154332   6.570   3.939   4.789  0.2042  0.9949  0.1288
10947TIP3    H254333   6.448   4.004   4.729 -0.2922  0.1132  0.1799
10948TIP3   OH254334   3.105   4.546  11.921  0.1041  0.6639 -0.0092
10948TIP3    H154335   3.114   4.638  11.946  1.0878  0.8748 -1.1245
10948TIP3    H254336   3.129   4.544  11.828  0.9144 -0.8529  0.2272
10949TIP3   OH254337   1.975   4.191   0.654  0.3070 -0.0734 -0.4526
10949TIP3    H154338   1.988   4.233   0.569  0.5887 -0.6632 -0.7061
10949TIP3    H254339   1.959   4.099   0.632 -1.7081  0.1345 -0.0027
10950TIP3   OH254340   4.789   5.081  13.289 -0.0939 -0.0336  0.1487
10950TIP3    H154341   4.843   5.131  13.228  0.9249 -1.1767  0.0913
10950TIP3    H254342   4.711   5.059  13.239 -0.7025  1.7681  0.2779
10951TIP3   OH254343   2.166   5.892  16.152 -0.2295 -0.1943 -0.7136
10951TIP3    H154344   2.255   5.895  16.117  0.1217  2.0563  0.3081
10951TIP3    H254345   2.115   5.944  16.090 -0.5922 -0.4899 -0.6595
10952TIP3   OH254346   5.937   5.674  12.509 -0.3603  0.2903  0.1528
10952TIP3    H154347   5.863   5.617  12.533  1.2886 -2.1617 -0.4069
10952TIP3    H254348   5.902   5.732  12.441 -1.6174 -1.2914 -0.5855
10953TIP3   OH254349   1.063   1.092  12.609 -0.2152 -0.2625 -0.4831
10953TIP3    H154350   1.098   1.055  12.691 -1.8122 -0.9796 -0.0858
10953TIP3    H254351   1.101   1.179  12.603  0.7596 -0.6114  0.4848
10954TIP3   OH254352   1.839   3.786  16.791  0.2409 -0.0916 -0.2305
10954TIP3    H154353   1.772   3.717  16.790  0.9780 -0.8414  1.2416
10954TIP3    H254354   1.861   3.799  16.699 -0.4056 -1.3378 -0.5703
10955TIP3   OH254355   2.410   1.181   2.185 -0.4288 -0.3717  0.0774
10955TIP3    H154356   2.415   1.098   2.231  0.6211 -0.1053  0.4607
10955TIP3    H254357   2.379   1.243   2.251  1.8442  0.1721  0.6684
10956TIP3   OH254358   0.047   4.924   2.361  0.3651 -0.9439 -0.2664
10956TIP3    H154359   0.014   4.853   2.417 -0.8284  1.8240  2.6633
10956TIP3    H254360   0.132   4.946   2.398  0.2435 -0.1124 -0.4855
10957TIP3   OH254361   0.155   5.629  17.054 -0.7104  0.1328  0.0572
10957TIP3    H154362   0.142   5.537  17.078  1.4264 -0.3373 -0.4842
10957TIP3    H254363   0.076   5.673  17.086 -1.2245 -1.6878  1.3978
10958TIP3   OH254364   6.135   6.271   5.865 -1.1482 -0.2097 -0.0786
10958TIP3    H154365   6.108   6.199   5.921 -0.6660  0.4198  0.9666
10958TIP3    H254366   6.197   6.322   5.918  0.8641 -0.7291 -1.8619
10959TIP3   OH254367   1.076   1.519   4.827 -0.5542  0.2984  0.0601
10959TIP3    H154368   1.125   1.448   4.786  1.7160  0.8034  1.8067
10959TIP3    H254369   0.999   1.477   4.865  1.0472 -1.3170  1.5538
10960TIP3   OH254370   0.043   2.317  15.364 -0.1074  0.7606  0.2701
10960TIP3    H154371   0.024   2.372  15.289 -0.3023 -0.0553 -0.2906
10960TIP3    H254372   0.084   2.239  15.327  1.0636  0.9482  1.1379
10961TIP3   OH254373   6.132   0.643   1.300  0.4654  0.9689  0.3209
10961TIP3    H154374   6.220   0.616   1.275  1.1690  2.7702  0.7284
10961TIP3    H254375   6.145   0.714   1.364 -1.2125  2.8758 -1.3395
10962TIP3   OH254376   0.758   0.237  14.815  0.9149 -0.1574 -0.3897
10962TIP3    H154377   0.725   0.326  14.799  1.5638  0.4206  1.2995
10962TIP3    H254378   0.726   0.185  14.742 -2.2865  0.7689  0.2861
10963TIP3   OH254379   1.362   1.886  13.829 -0.1068  0.1698 -0.0223
10963TIP3    H154380   1.368   1.791  13.825 -0.3254  0.0936  1.2585
10963TIP3    H254381   1.341   1.905  13.920  1.5752  1.5164  0.1203
10964TIP3   OH254382   1.405   2.390   4.961 -0.0435  0.4729 -0.0517
10964TIP3    H154383   1.360   2.459   4.912 -1.8423 -0.4400  0.2906
10964TIP3    H254384   1.400   2.418   5.052 -2.5005 -1.0330  0.3083
10965TIP3   OH254385   6.181   4.333  15.646 -0.3117 -0.3617  0.2772
10965TIP3    H154386   6.235   4.255  15.652  0.0814 -0.1972 -0.9868
10965TIP3    H254387   6.107   4.315  15.703  0.5381 -1.0299  1.1828
10966TIP3   OH254388   5.135   6.805   4.810 -0.4294  0.7771  0.0301
10966TIP3    H154389   5.174   6.730   4.856 -0.9152  1.7125  2.0100
10966TIP3    H254390   5.042   6.782   4.801 -0.8707  1.7483  1.9365
10967TIP3   OH254391   3.238   5.557  12.905 -0.2951  0.1844  0.6057
10967TIP3    H154392   3.239   5.577  12.812 -1.2364  0.7911  0.7197
10967TIP3    H254393   3.276   5.469  12.912  3.2820  1.5989  0.0027
10968TIP3   OH254394   4.182   1.516  10.603  0.2097 -0.4502  0.5811
10968TIP3    H154395   4.126   1.580  10.559  0.4100 -0.6225  0.0770
10968TIP3    H254396   4.124   1.443  10.623  0.2127 -0.5508  0.2242
10969TIP3   OH254397   4.347   4.910   6.197  0.3043  0.0728  0.4511
10969TIP3    H154398   4.416   4.855   6.161 -0.2111 -0.3242  0.0747
10969TIP3    H254399   4.288   4.928   6.124 -0.1239  0.2148  0.8226
10970TIP3   OH254400   5.075   6.251  12.648 -0.0284  0.5690  0.1860
10970TIP3    H154401   4.985   6.264  12.616  0.3708 -0.2725 -1.3281
10970TIP3    H254402   5.078   6.158  12.673 -0.2046  1.1120  2.3347
10971TIP3   OH254403   6.325   1.115  13.057  0.3178  0.0976  0.2673
10971TIP3    H154404   6.278   1.193  13.087 -2.7512 -1.4285 -0.3683
10971TIP3    H254405   6.342   1.064  13.136 -0.2703  0.0526  0.3651
10972TIP3   OH254406   4.600   5.920   5.295 -0.0141 -0.2352 -0.4777
10972TIP3    H154407   4.661   5.937   5.367 -0.8496 -1.7791  0.6296
10972TIP3    H254408   4.644   5.956   5.217  1.9779 -0.6527  0.4191
10973TIP3   OH254409   1.045   0.317   4.315 -0.2322  0.8591  0.5387
10973TIP3    H154410   0.951   0.297   4.319  0.1401 -0.7613  1.8393
10973TIP3    H254411   1.068   0.341   4.405  0.8716 -0.1586  0.5463
10974TIP3   OH254412   4.518   4.785   6.547  0.6867 -0.8352 -0.3904
10974TIP3    H154413   4.436   4.828   6.571  1.2681  1.2589 -2.0104
10974TIP3    H254414   4.580   4.809   6.616  1.0291  1.0447 -1.3295
10975TIP3   OH254415   0.979   2.112   1.290  0.3075  0.7924  0.7282
10975TIP3    H154416   0.930   2.047   1.341  1.0136  0.6906  1.2784
10975TIP3    H254417   0.913   2.151   1.232 -0.7870  1.7696  2.5471
10976TIP3   OH254418   1.370   2.617  17.263  0.0086  0.2207 -0.1360
10976TIP3    H154419   1.403   2.541  17.216 -0.8659  0.2924 -0.8649
10976TIP3    H254420   1.297   2.649  17.210  0.2995  1.5065  0.2121
10977TIP3   OH254421   0.088   5.705  11.237  0.4803  0.0895  0.0667
10977TIP3    H154422   0.110   5.725  11.146  2.0206 -0.3286  0.3266
10977TIP3    H254423   0.173   5.696  11.280 -0.1306 -4.2699  0.5820
10978TIP3   OH254424   4.843   3.539   6.190  0.2469 -0.2804 -0.2029
10978TIP3    H154425   4.810   3.450   6.174 -0.8693  0.0189  0.3397
10978TIP3    H254426   4.776   3.579   6.246  0.2917  1.1955 -1.1797
10979TIP3   OH254427   5.842   4.331   4.857 -0.1626  0.3464  0.7300
10979TIP3    H154428   5.788   4.368   4.926 -2.3124 -0.9428 -0.1933
10979TIP3    H254429   5.902   4.401   4.833 -1.3657  1.8059  1.8654
10980TIP3   OH254430   5.492   0.830  11.140  0.2346 -0.4878 -0.4517
10980TIP3    H154431   5.502   0.816  11.046  1.3769  0.0808 -0.4174
10980TIP3    H254432   5.495   0.925  11.151  1.6369 -0.6074  0.3157
10981TIP3   OH254433   3.474   1.013   0.990  0.1474 -0.2175 -0.3029
10981TIP3    H154434   3.538   0.995   0.922 -0.2236 -0.8601 -0.4876
10981TIP3    H254435   3.453   1.106   0.980 -0.3961 -0.4652 -1.4934
10982TIP3   OH254436   1.969   2.662  16.731 -0.0336  0.1701 -0.0800
10982TIP3    H154437   1.928   2.748  16.718  0.9497  0.8574  1.2855
10982TIP3    H254438   1.979   2.653  16.826  1.0174 -0.9127 -0.2703
10983TIP3   OH254439   6.500   5.297   2.308  0.4230  0.2093 -0.8328
10983TIP3    H154440   6.555   5.340   2.373 -0.8403 -2.0184  1.7912
10983TIP3    H254441   6.411   5.325   2.329 -0.0356 -0.7615 -1.4172
10984TIP3   OH254442   0.104   5.388   2.305 -0.2222  0.5125  0.2609
10984TIP3    H154443   0.038   5.449   2.271  1.1442  1.6819 -0.3234
10984TIP3    H254444   0.054   5.309   2.327 -1.5425  0.7229 -1.8505
10985TIP3   OH254445   6.208   5.445   3.202  0.0316 -0.2300 -0.3746
10985TIP3    H154446   6.280   5.455   3.264 -0.1852  0.0774 -0.1753
10985TIP3    H254447   6.182   5.534   3.180 -1.8784 -0.3014  1.3977
10986TIP3   OH254448   4.524   3.596   5.565 -0.0326 -0.1091 -0.6286
10986TIP3    H154449   4.454   3.558   5.618 -1.1905 -0.3193 -2.2907
10986TIP3    H254450   4.577   3.645   5.628 -1.0348 -0.8414  0.8209
10987TIP3   OH254451   5.263   2.063   1.718  0.1140  0.4456  0.9896
10987TIP3    H154452   5.185   2.119   1.722 -0.1625 -0.0292  3.2054
10987TIP3    H254453   5.336   2.123   1.736 -0.0273  0.4092  1.7194
10988TIP3   OH254454   3.873   1.148  11.452 -0.3294 -0.1439 -0.1468
10988TIP3    H154455   3.962   1.113  11.455 -0.7017 -1.0735  0.1237
10988TIP3    H254456   3.869   1.208  11.527 -0.2434 -0.8618  0.4394
10989TIP3   OH254457   1.406   6.534  11.465  0.2920 -0.1891 -0.0943
10989TIP3    H154458   1.404   6.450  11.511  0.2761 -0.4929 -0.6445
10989TIP3    H254459   1.498   6.559  11.463  0.2691 -0.0657  0.2916
10990TIP3   OH254460   1.734   2.930  15.866  0.3873 -0.0772 -0.3581
10990TIP3    H154461   1.710   3.022  15.866 -0.4912 -0.3001 -0.4368
10990TIP3    H254462   1.760   2.912  15.776 -1.5145 -0.4230 -0.8614
10991TIP3   OH254463   1.377   1.872   1.939  0.0992 -0.3279 -0.1157
10991TIP3    H154464   1.443   1.831   1.882 -0.5449 -0.6058 -0.6666
10991TIP3    H254465   1.325   1.927   1.880 -0.5431 -0.5805  0.2065
10992TIP3   OH254466   4.844   3.753  11.353 -0.9121  0.0869  0.3969
10992TIP3    H154467   4.843   3.844  11.381  0.7840 -0.1653  1.3318
10992TIP3    H254468   4.869   3.757  11.260 -0.9240  0.5784  0.4111
10993TIP3   OH254469   0.251   4.998  15.196  0.2918 -0.4757  0.4107
10993TIP3    H154470   0.206   4.995  15.112 -0.4826  1.1863  0.7425
10993TIP3    H254471   0.334   5.043  15.177  1.0318 -1.9349  0.1479
10994TIP3   OH254472   5.026   3.365  12.962 -0.5393  0.1876 -0.1653
10994TIP3    H154473   4.999   3.446  12.918 -0.8429 -0.7172 -1.6778
10994TIP3    H254474   4.970   3.360  13.039  1.1065  2.6348  1.2711
10995TIP3   OH254475   2.644   5.025   1.427 -0.1109 -0.5179  0.0044
10995TIP3    H154476   2.597   4.981   1.497  1.3192  0.1310  1.3911
10995TIP3    H254477   2.589   5.013   1.350 -1.5093 -1.5655  1.1507
10996TIP3   OH254478   6.321   3.665  15.764  0.0747 -0.0904  0.0929
10996TIP3    H154479   6.231   3.694  15.744 -0.0360 -0.6884 -0.2871
10996TIP3    H254480   6.326   3.668  15.859 -0.9891 -1.9620  0.2247
10997TIP3   OH254481   3.890   6.110  16.779  0.0314 -0.2054 -0.0628
10997TIP3    H154482   3.827   6.182  16.773  0.6471  0.4166  0.6158
10997TIP3    H254483   3.876   6.074  16.867 -0.6341 -1.2619 -0.5978
10998TIP3   OH254484   5.937   2.902  15.405 -0.1111  0.4016  0.1449
10998TIP3    H154485   5.866   2.965  15.414  0.1916  0.9305 -1.0449
10998TIP3    H254486   6.003   2.948  15.353  0.6396 -0.4606  0.3273
10999TIP3   OH254487   0.935   6.497  17.012 -0.0045  0.1421 -0.2281
10999TIP3    H154488   1.012   6.441  17.029 -0.8255 -0.8254  0.3728
10999TIP3    H254489   0.897   6.461  16.932 -0.0335  0.4052 -0.3311
11000TIP3   OH254490   5.015   3.754  14.068 -0.3789  0.7864  0.1020
11000TIP3    H154491   5.016   3.813  14.143  1.1445  1.2824 -0.2749
11000TIP3    H254492   4.980   3.807  13.996  1.0030  1.2667 -0.2401
11001TIP3   OH254493   3.220   2.788   0.762  0.0052  0.2281  0.1022
11001TIP3    H154494   3.189   2.863   0.711 -1.8972 -0.9770 -0.5412
11001TIP3    H254495   3.289   2.749   0.709 -0.4737  0.2621 -0.5478
11002TIP3   OH254496   4.867   0.205  15.356 -0.6297 -0.1272  0.3463
11002TIP3    H154497   4.941   0.252  15.392  0.7658 -2.1137  0.1356
11002TIP3    H254498   4.868   0.120  15.400 -1.9427 -0.6882 -0.6546
11003TIP3   OH254499   4.256   6.473   5.438  0.2112 -0.6186  0.3860
11003TIP3    H154500   4.178   6.448   5.489 -0.1563  0.1801  0.2228
11003TIP3    H254501   4.325   6.484   5.504 -0.6573  1.9666  0.9009
11004TIP3   OH254502   5.386   1.143  14.262 -0.1692  0.4608 -0.4605
11004TIP3    H154503   5.423   1.155  14.349  1.0150  0.0656 -0.9103
11004TIP3    H254504   5.326   1.217  14.251  1.2053  1.6313 -0.1177
11005TIP3   OH254505   1.778   4.956  13.325 -0.2219 -0.3207 -0.0639
11005TIP3    H154506   1.759   5.031  13.382 -0.0638 -0.7661  0.5822
11005TIP3    H254507   1.873   4.957  13.315 -0.2057 -0.5121  0.0620
11006TIP3   OH254508   3.844   1.590  14.964  0.2786 -0.3815 -0.1874
11006TIP3    H154509   3.815   1.622  14.879 -0.6921 -0.3931  0.1443
11006TIP3    H254510   3.810   1.652  15.027  1.5735  0.0040  0.1584
11007TIP3   OH254511   0.839   1.063   5.340  0.3576  0.3412  0.0027
11007TIP3    H154512   0.801   1.148   5.365 -0.0966  0.6179 -1.5624
11007TIP3    H254513   0.820   1.006   5.414 -2.0290  0.8112 -0.2079
11008TIP3   OH254514   5.655   5.302   3.920 -0.6489 -0.3294 -0.0121
11008TIP3    H154515   5.583   5.335   3.867 -1.2352  0.0020  0.9664
11008TIP3    H254516   5.612   5.256   3.992  0.1304 -1.0046  0.0316
11009TIP3   OH254517   5.103   2.448   6.012 -0.2722 -0.3391  0.7854
11009TIP3    H154518   5.015   2.454   6.049 -0.6082 -1.9574  0.3269
11009TIP3    H254519   5.089   2.418   5.922  0.8310 -2.7190  1.3643
11010TIP3   OH254520   4.028   2.358   0.143 -0.3579  0.2286  0.7800
11010TIP3    H154521   4.019   2.342   0.237 -3.6960  1.5551  0.7357
11010TIP3    H254522   3.939   2.351   0.108  0.9712 -1.3599 -2.5002
11011TIP3   OH254523   6.048   4.283   6.278  0.0632  0.1054 -0.0831
11011TIP3    H154524   6.000   4.365   6.263 -1.6001 -1.1043 -1.6618
11011TIP3    H254525   6.085   4.261   6.193 -0.9006 -1.6215 -0.0736
11012TIP3   OH254526   6.547   1.862  15.974  0.4225  0.2426  0.0800
11012TIP3    H154527   6.541   1.773  16.009  1.0099  0.5492  0.9852
11012TIP3    H254528   6.641   1.880  15.970  0.3016  1.8477  2.6123
11013TIP3   OH254529   5.302   3.427  12.318  0.0092 -0.1587 -0.3220
11013TIP3    H154530   5.326   3.503  12.371  1.7469 -1.4657  0.8151
11013TIP3    H254531   5.240   3.379  12.372  0.4570 -0.5949 -0.1958
11014TIP3   OH254532   6.040   3.757  15.637  0.0852  0.4522 -0.1675
11014TIP3    H154533   5.950   3.737  15.611 -0.7713  1.6855  1.6849
11014TIP3    H254534   6.036   3.847  15.668  1.9265  0.4331  0.1732
11015TIP3   OH254535   0.492   5.831   2.951  0.3040 -0.6039 -0.1241
11015TIP3    H154536   0.571   5.843   3.005 -0.2442 -2.4999  1.1598
11015TIP3    H254537   0.525   5.793   2.870  0.8362 -0.2973 -0.0581
11016TIP3   OH254538   2.036   2.059  15.264  0.3749 -0.2870 -0.6784
11016TIP3    H154539   2.066   2.014  15.184  2.2833 -0.3549  0.0377
11016TIP3    H254540   2.007   1.988  15.321  0.3298 -0.3548 -0.7844
11017TIP3   OH254541   0.962   5.141  13.044  0.6094  0.5669  0.1594
11017TIP3    H154542   0.897   5.198  13.003  0.7897 -0.4715 -1.6322
11017TIP3    H254543   1.029   5.201  13.077 -0.4281  1.5298  0.5317
11018TIP3   OH254544   1.273   0.357  16.197 -0.7811 -0.2064  0.1590
11018TIP3    H154545   1.252   0.298  16.124 -0.0540 -0.3788  0.0845
11018TIP3    H254546   1.201   0.347  16.258 -0.8892 -0.8293 -0.0701
11019TIP3   OH254547   4.570   3.139   4.403 -0.3762  0.2888  0.4031
11019TIP3    H154548   4.519   3.204   4.353 -1.1502 -0.4568  0.2214
11019TIP3    H254549   4.526   3.056   4.386  0.2271 -0.1889  1.1767
11020TIP3   OH254550   1.553   3.111   4.428  0.2963  0.3342 -0.0065
11020TIP3    H154551   1.622   3.178   4.430 -0.7136  1.3488  1.4534
11020TIP3    H254552   1.592   3.036   4.473  0.8784  0.4739 -0.2643
11021TIP3   OH254553   4.605   6.763   5.420 -0.6259 -0.5325 -0.1612
11021TIP3    H154554   4.604   6.748   5.326 -1.0769 -0.2799 -0.1948
11021TIP3    H254555   4.605   6.858   5.430 -2.7355 -0.5488  0.1184
11022TIP3   OH254556   2.201   4.641  11.827 -0.1626  0.6217  0.3056
11022TIP3    H154557   2.287   4.682  11.836 -0.4642  1.1710  0.6596
11022TIP3    H254558   2.143   4.693  11.883 -0.6409  0.0052  0.3885
11023TIP3   OH254559   6.544   2.482  11.452 -0.2830 -0.2105  0.1446
11023TIP3    H154560   6.614   2.422  11.427  0.8964  0.5309  1.5893
11023TIP3    H254561   6.468   2.425  11.467  0.1433 -1.0731 -0.9155
11024TIP3   OH254562   0.263   6.493  15.469  0.0073  0.4321 -0.9350
11024TIP3    H154563   0.187   6.516  15.522  1.1521 -3.1693  2.5146
11024TIP3    H254564   0.333   6.552  15.500 -0.2185  0.6999 -0.9319
11025TIP3   OH254565   4.534   1.177   4.333  0.1171  0.0716 -0.3299
11025TIP3    H154566   4.560   1.192   4.424 -0.9270  0.1457 -0.0301
11025TIP3    H254567   4.587   1.239   4.282 -0.4719  1.1896  0.3931
11026TIP3   OH254568   0.657   2.905  13.269 -0.6314  0.0751 -0.6771
11026TIP3    H154569   0.625   2.867  13.188 -1.6244  0.1261 -0.3208
11026TIP3    H254570   0.616   2.853  13.338 -1.9713  1.7210 -0.1867
11027TIP3   OH254571   6.244   5.054   0.889  0.2224 -0.1986 -0.0796
11027TIP3    H154572   6.160   5.038   0.846  0.7648  1.9583 -2.0027
11027TIP3    H254573   6.290   4.970   0.882 -1.4400 -1.1886  0.3622
11028TIP3   OH254574   3.761   4.698  15.774  0.1148 -0.0658 -0.0483
11028TIP3    H154575   3.835   4.710  15.834  0.7358 -0.9293 -0.6348
11028TIP3    H254576   3.801   4.667  15.693 -1.1107 -2.7833  0.3342
11029TIP3   OH254577   1.016   4.029  13.448 -0.3548  0.1028 -0.1010
11029TIP3    H154578   0.925   4.053  13.437 -0.3119 -0.1049 -0.9528
11029TIP3    H254579   1.021   3.939  13.414 -0.2330 -0.5999  1.7286
11030TIP3   OH254580   2.099   1.170  16.326  1.3263  0.4662  0.1229
11030TIP3    H154581   2.105   1.223  16.405  0.1218  2.0258 -0.7746
11030TIP3    H254582   2.122   1.231  16.255 -1.3379  0.1783 -1.0450
11031TIP3   OH254583   6.630   6.171  15.705 -0.3128 -0.0112  1.0341
11031TIP3    H154584   6.631   6.191  15.612 -2.5019  0.1019  0.9980
11031TIP3    H254585   6.689   6.096  15.714 -1.6431 -1.3185 -0.7794
11032TIP3   OH254586   0.461   3.536   3.278  0.5634 -0.0884 -0.3341
11032TIP3    H154587   0.504   3.622   3.278  1.7415 -0.6684 -0.0921
11032TIP3    H254588   0.421   3.529   3.364  0.1151  0.3811 -0.4991
11033TIP3   OH254589   2.573   3.863   4.937  0.2666 -0.2493  0.4300
11033TIP3    H154590   2.529   3.942   4.970 -0.4217 -0.4763  0.0634
11033TIP3    H254591   2.609   3.889   4.853  2.0672  0.3453  1.3580
11034TIP3   OH254592   6.300   3.171  11.682 -0.0992  0.3079 -0.2079
11034TIP3    H154593   6.210   3.158  11.652 -0.9313 -1.8693  2.8867
11034TIP3    H254594   6.336   3.083  11.687  0.5149  0.6775  3.3004
11035TIP3   OH254595   6.005   3.062   6.000  0.2106  0.2063 -0.4415
11035TIP3    H154596   6.087   3.087   5.958 -1.0286  0.8767 -2.5528
11035TIP3    H254597   6.008   2.966   6.004  2.0208  0.3241  1.4855
11036TIP3   OH254598   3.889   0.908   0.851 -0.0481 -0.0151  0.3638
11036TIP3    H154599   3.884   0.981   0.913 -1.6660  0.8104 -0.7107
11036TIP3    H254600   3.898   0.950   0.766  0.7749 -1.1244 -0.1132
11037TIP3   OH254601   0.332   6.375   1.796 -0.0366  0.2429 -0.5387
11037TIP3    H154602   0.387   6.449   1.821 -2.0705  1.8862 -0.7871
11037TIP3    H254603   0.303   6.337   1.879 -1.0456  1.3147 -0.3908
11038TIP3   OH254604   2.720   3.817  14.295  0.3541 -0.5110 -0.2620
11038TIP3    H154605   2.699   3.736  14.248 -0.2101 -0.6757  0.2746
11038TIP3    H254606   2.691   3.886  14.236 -1.2281 -0.7282  0.2288
11039TIP3   OH254607   1.376   2.336  12.876  0.0044 -0.0961  0.0194
11039TIP3    H154608   1.454   2.354  12.928  0.8700 -1.9928 -0.5938
11039TIP3    H254609   1.317   2.408  12.896  1.2300  0.4263  1.8493
11040TIP3   OH254610   2.883   6.621  10.976  0.2343  0.1196 -0.5132
11040TIP3    H154611   2.912   6.539  10.936  1.3793  1.1268 -1.8023
11040TIP3    H254612   2.830   6.663  10.908  1.5816  1.5126 -0.7334
11041TIP3   OH254613   0.769   5.738   4.929 -0.2399  0.1496  0.0814
11041TIP3    H154614   0.716   5.777   4.860  1.5651 -0.0518 -1.4534
11041TIP3    H254615   0.747   5.789   5.007 -0.3543  2.1208 -1.2026
11042TIP3   OH254616   0.551   3.513  15.248  0.1498  0.0072 -0.2339
11042TIP3    H154617   0.622   3.455  15.277 -0.8993 -0.1681  2.0982
11042TIP3    H254618   0.582   3.601  15.268  0.4586  0.0595 -0.9237
11043TIP3   OH254619   5.651   6.656   3.653 -0.0323  0.5770  0.1400
11043TIP3    H154620   5.694   6.722   3.707 -0.1554 -0.8979  2.1156
11043TIP3    H254621   5.723   6.613   3.606  0.1939  1.0778  0.0242
11044TIP3   OH254622   6.360   0.419   0.625 -0.2957  0.0779  0.1139
11044TIP3    H154623   6.427   0.362   0.661  0.1074 -0.3784 -1.3249
11044TIP3    H254624   6.285   0.362   0.610 -1.0128  0.5765  1.6775
11045TIP3   OH254625   3.751   1.696  16.727  0.4461  0.0172 -0.2562
11045TIP3    H154626   3.809   1.770  16.711  0.3005  0.1415 -0.2187
11045TIP3    H254627   3.793   1.646  16.796  1.1018 -0.5419 -1.0540
11046TIP3   OH254628   2.628   3.146  13.512 -0.2771 -0.2910  0.2072
11046TIP3    H154629   2.537   3.173  13.523  0.3112  1.7829  0.1501
11046TIP3    H254630   2.676   3.192  13.580  0.6637 -1.8832  0.6538
11047TIP3   OH254631   3.101   4.298  13.038 -0.1527  0.1697  0.1606
11047TIP3    H154632   3.020   4.290  12.989 -0.1792  2.5909 -0.2932
11047TIP3    H254633   3.170   4.280  12.974 -0.2954 -0.5572  0.2112
11048TIP3   OH254634   4.045   1.688  13.613  0.2312 -0.5250  0.3358
11048TIP3    H154635   3.962   1.710  13.570 -0.9947 -1.1414  2.3039
11048TIP3    H254636   4.055   1.594  13.601 -1.9946 -1.4055  4.3860
11049TIP3   OH254637   2.884   6.002  13.764 -0.3360 -0.2206 -0.0445
11049TIP3    H154638   2.798   6.025  13.729 -0.3851  1.5385  1.1718
11049TIP3    H254639   2.946   6.052  13.712 -0.1010 -0.8399 -0.3649
11050TIP3   OH254640   1.636   0.138  16.156 -0.4854  0.1863 -1.2285
11050TIP3    H154641   1.711   0.196  16.157 -1.1295  1.0099 -0.1861
11050TIP3    H254642   1.625   0.111  16.247 -2.4304  1.3406 -1.1090
11051TIP3   OH254643   6.468   2.472  13.732  0.4558 -0.0680 -0.7626
11051TIP3    H154644   6.419   2.549  13.761  2.7477  0.7260  1.2149
11051TIP3    H254645   6.515   2.502  13.654 -0.1463 -0.0490 -1.1202
11052TIP3   OH254646   1.332   3.895  15.958 -0.2165  0.0171  0.4725
11052TIP3    H154647   1.377   3.870  15.877  1.5210  1.9796  0.8004
11052TIP3    H254648   1.361   3.830  16.022  0.3053 -0.1208  0.1063
11053TIP3   OH254649   5.952   2.168  13.837  0.2094  0.5917  0.4937
11053TIP3    H154650   5.912   2.172  13.924 -0.7840 -0.2874  0.0783
11053TIP3    H254651   6.031   2.115  13.848 -0.3224 -0.1503  0.6959
11054TIP3   OH254652   5.402   2.737  12.515  0.4549  0.1040 -0.6394
11054TIP3    H154653   5.312   2.769  12.515 -0.1943 -1.5909 -2.1281
11054TIP3    H254654   5.400   2.662  12.575  0.9340  0.2629 -0.4290
11055TIP3   OH254655   5.844   2.573  11.033 -0.1017 -0.1462  1.0090
11055TIP3    H154656   5.874   2.582  10.942  0.3973  1.0345  1.2781
11055TIP3    H254657   5.790   2.494  11.033 -1.1303  0.5355 -0.5913
11056TIP3   OH254658   3.543   5.735   2.933 -0.0150  0.0988 -0.1173
11056TIP3    H154659   3.516   5.804   2.994 -0.9026  0.2820 -0.7173
11056TIP3    H254660   3.636   5.721   2.953 -0.1828  0.4708  0.9713
11057TIP3   OH254661   1.331   5.717  14.880  0.1430 -0.2036  0.2187
11057TIP3    H154662   1.360   5.699  14.969  1.7929  0.6666 -0.1114
11057TIP3    H254663   1.357   5.640  14.829 -0.7375 -0.6701  0.4713
11058TIP3   OH254664   5.601   4.085  13.588  0.4219  0.4961 -0.2618
11058TIP3    H154665   5.662   4.096  13.662 -0.0831  0.5413  0.1532
11058TIP3    H254666   5.651   4.034  13.524 -0.0585 -2.0087  1.2513
11059TIP3   OH254667   4.806   0.818  12.292 -0.2730 -0.1732  0.1183
11059TIP3    H154668   4.806   0.867  12.210 -0.4872 -0.8474 -0.2921
11059TIP3    H254669   4.893   0.832  12.328  0.1690 -0.6859 -0.7242
11060TIP3   OH254670   1.141   6.714  12.633  0.4815 -0.9654  0.5816
11060TIP3    H154671   1.202   6.784  12.612 -0.0535 -0.8223 -0.5159
11060TIP3    H254672   1.173   6.678  12.716  0.9064  0.4012  1.0093
11061TIP3   OH254673   2.227   1.956  14.159 -0.0323  0.3194 -0.3501
11061TIP3    H154674   2.170   1.915  14.093 -0.2251  2.0352 -1.2772
11061TIP3    H254675   2.289   2.007  14.108  0.2177  1.1616  0.7822
11062TIP3   OH254676   1.757   1.895   2.448 -0.1410  0.0005 -0.2379
11062TIP3    H154677   1.829   1.919   2.507 -1.5551  0.9217  1.1641
11062TIP3    H254678   1.712   1.977   2.429 -1.0131 -0.5954 -0.8398
11063TIP3   OH254679   0.090   2.268   1.778 -0.4696  0.1403 -0.1571
11063TIP3    H154680   0.144   2.288   1.855 -1.2683  0.0658  0.4265
11063TIP3    H254681   0.022   2.211   1.811 -1.3427  0.8311 -0.7485
11064TIP3   OH254682   5.023   0.452  15.007  0.0260  0.6032 -0.1214
11064TIP3    H154683   5.024   0.393  14.932 -0.5838  1.2197 -0.6191
11064TIP3    H254684   5.114   0.460  15.033  0.1174 -0.5928 -0.0207
11065TIP3   OH254685   0.152   4.926  11.079 -0.5438  0.1926  0.9339
11065TIP3    H154686   0.118   4.933  10.990 -0.1582 -1.3711  0.6502
11065TIP3    H254687   0.074   4.920  11.134 -0.7606 -1.3891  0.4677
11066TIP3   OH254688   4.212   0.419   3.111  0.0453  0.2514  0.3701
11066TIP3    H154689   4.266   0.496   3.128 -3.4482  3.0864 -0.6488
11066TIP3    H254690   4.136   0.430   3.168 -0.7957 -2.2012 -0.2006
11067TIP3   OH254691   4.736   6.548  17.276 -0.2952 -0.0926  0.8435
11067TIP3    H154692   4.830   6.529  17.270  0.1018  1.6233  1.4464
11067TIP3    H254693   4.730   6.618  17.341 -1.8359  1.0147 -0.4549
11068TIP3   OH254694   5.453   2.906   6.027 -0.2158 -0.4799 -0.0573
11068TIP3    H154695   5.523   2.956   5.986 -0.3978 -0.1244  0.0564
11068TIP3    H254696   5.474   2.909   6.121  0.6712 -2.0235 -0.2029
11069TIP3   OH254697   3.389   4.498  16.177  0.5555 -0.0937 -0.5803
11069TIP3    H154698   3.401   4.591  16.156  0.8644  0.4838  2.0038
11069TIP3    H254699   3.472   4.458  16.151  1.2121  0.7211  0.2093
11070TIP3   OH254700   4.703   3.229  14.549 -0.2262 -0.0463  0.7686
11070TIP3    H154701   4.780   3.248  14.603 -0.1671 -1.0740  1.0497
11070TIP3    H254702   4.630   3.264  14.599  0.0920  1.3636  0.2815
11071TIP3   OH254703   1.258   5.830  14.225 -0.0320  0.0900 -0.3196
11071TIP3    H154704   1.334   5.835  14.282  1.4528 -1.8249 -2.0478
11071TIP3    H254705   1.268   5.903  14.164  1.1882 -0.9501 -1.4005
11072TIP3   OH254706   2.228   5.805  13.905 -0.2049 -0.1064 -0.3520
11072TIP3    H154707   2.211   5.725  13.856 -0.8355  1.6693 -3.1260
11072TIP3    H254708   2.320   5.799  13.931 -0.4718 -2.0773  0.1955
11073TIP3   OH254709   1.155   5.647   1.157 -0.3224  0.5429  0.0412
11073TIP3    H154710   1.189   5.643   1.068  2.7195  0.3955  1.1407
11073TIP3    H254711   1.114   5.562   1.171  0.9632 -0.1865 -0.5617
11074TIP3   OH254712   5.447   2.155  13.080 -0.0408 -1.3508 -0.1334
11074TIP3    H154713   5.407   2.076  13.046  0.0852 -1.1538 -0.7372
11074TIP3    H254714   5.442   2.145  13.175  1.0172 -2.6032 -0.1998
11075TIP3   OH254715   5.900   5.834   1.049  0.6554  0.5761  0.1067
11075TIP3    H154716   5.974   5.893   1.060  1.5536 -0.7964  1.6099
11075TIP3    H254717   5.939   5.747   1.048 -0.8840 -0.1328  0.2366
11076TIP3   OH254718   6.275   4.965   5.910 -0.1577  0.6488  0.1521
11076TIP3    H154719   6.355   4.923   5.878 -0.1723  0.1691  0.7309
11076TIP3    H254720   6.204   4.921   5.864 -0.2307 -0.6105  1.4217
11077TIP3   OH254721   2.059   4.200  16.486 -0.9135  0.0132  0.5654
11077TIP3    H154722   2.140   4.250  16.496 -0.5091 -0.6545  0.7116
11077TIP3    H254723   1.989   4.263  16.502 -0.4445  0.8192 -0.4919
11078TIP3   OH254724   4.017   2.492  16.983  0.7403  0.0799 -0.0560
11078TIP3    H154725   4.090   2.473  17.042  0.8587  1.5451  0.3031
11078TIP3    H254726   3.939   2.486  17.039  0.8024  0.8830  0.1253
11079TIP3   OH254727   6.190   1.385  14.364 -0.3990  0.0725  0.1996
11079TIP3    H154728   6.123   1.330  14.404 -0.6389 -0.3331 -0.7486
11079TIP3    H254729   6.141   1.460  14.330 -0.2488  0.2172  0.3021
11080TIP3   OH254730   1.242   2.179  11.586  0.1021  0.3452 -0.2734
11080TIP3    H154731   1.249   2.255  11.528  2.1444 -0.3996 -1.0541
11080TIP3    H254732   1.217   2.216  11.671  0.5189  1.8361 -0.7804
11081TIP3   OH254733   0.632   5.697   5.333 -0.4005  0.2203  0.5359
11081TIP3    H154734   0.595   5.626   5.281  0.8370 -0.7457  0.9455
11081TIP3    H254735   0.664   5.761   5.269 -0.1703 -0.2985  0.1296
11082TIP3   OH254736   5.629   4.895  14.720  0.9535  0.1786 -0.1907
11082TIP3    H154737   5.679   4.825  14.762 -0.0153 -0.5542 -0.2425
11082TIP3    H254738   5.685   4.973  14.729  1.1872 -0.1691  1.5856
11083TIP3   OH254739   4.247   3.361  17.013  0.3005 -0.0297 -0.1331
11083TIP3    H154740   4.202   3.415  16.948  0.5913 -1.8361 -1.8900
11083TIP3    H254741   4.176   3.324  17.067  0.1666  3.0495  1.9216
11084TIP3   OH254742   4.776   1.270   5.322  0.1121 -0.3516  0.2924
11084TIP3    H154743   4.840   1.213   5.278 -0.0775  0.6813 -1.3693
11084TIP3    H254744   4.782   1.245   5.414  2.2170 -0.9571  0.0341
11085TIP3   OH254745   1.653   0.601  16.793 -0.1435 -0.1314  0.0647
11085TIP3    H154746   1.699   0.665  16.738  0.3820  0.2890  0.9772
11085TIP3    H254747   1.585   0.651  16.838 -0.8746 -0.5658 -0.5578
11086TIP3   OH254748   2.612   3.532  12.422  0.0972  0.3340  0.0701
11086TIP3    H154749   2.538   3.590  12.406 -0.0354  0.1640  0.0679
11086TIP3    H254750   2.609   3.514  12.516  0.8711  1.3283  0.2924
11087TIP3   OH254751   0.216   5.671   1.154 -0.1186 -0.3065  0.1256
11087TIP3    H154752   0.241   5.586   1.189  2.4899  0.4556  0.1727
11087TIP3    H254753   0.244   5.734   1.221  2.5243  0.9679 -2.0951
11088TIP3   OH254754   3.384   6.813   3.671 -0.0651 -0.2727 -0.4227
11088TIP3    H154755   3.389   6.717   3.675  0.9112 -0.1832  1.0938
11088TIP3    H254756   3.460   6.843   3.721 -0.9623  1.2953  0.0465
11089TIP3   OH254757   5.316   0.063   6.316 -0.1407  0.1080 -0.0945
11089TIP3    H154758   5.380   0.115   6.268 -0.7163  0.3137 -0.6456
11089TIP3    H254759   5.336   0.081   6.408 -1.7777  3.1658 -0.2590
11090TIP3   OH254760   2.084   5.032  13.158  0.2557  0.1473  0.3557
11090TIP3    H154761   2.037   5.112  13.134  0.3091 -0.2689 -1.1907
11090TIP3    H254762   2.121   5.051  13.244  2.9943  3.0188 -1.3190
11091TIP3   OH254763   6.348   1.895   2.697 -0.1770 -0.1755  0.8096
11091TIP3    H154764   6.361   1.852   2.613  1.2748 -0.2916  1.0869
11091TIP3    H254765   6.289   1.968   2.678 -0.9055 -0.9745 -0.0625
11092TIP3   OH254766   1.604   1.738  16.148  0.4470 -0.1834 -0.0392
11092TIP3    H154767   1.667   1.765  16.215 -0.1994  0.9183  0.1286
11092TIP3    H254768   1.528   1.795  16.161 -0.0464 -0.5733 -1.1285
11093TIP3   OH254769   2.109   4.505  16.712 -0.2318 -0.1709  0.2620
11093TIP3    H154770   2.028   4.457  16.723 -0.3330 -0.8499 -2.9484
11093TIP3    H254771   2.178   4.440  16.729 -0.3728 -0.3656  0.0964
11094TIP3   OH254772   0.477   0.798  15.858  0.0681 -0.7880 -0.4836
11094TIP3    H154773   0.543   0.755  15.803 -0.3395  0.7291 -2.1891
11094TIP3    H254774   0.402   0.811  15.800 -1.4586 -1.7663  1.2262
11095TIP3   OH254775   2.453   4.787   3.442 -0.4057  0.0662 -0.2355
11095TIP3    H154776   2.409   4.867   3.413 -2.4453 -0.9563  0.0247
11095TIP3    H254777   2.460   4.733   3.363 -0.4514 -0.1759 -0.0722
11096TIP3   OH254778   3.081   3.776   2.202 -0.1829 -0.3216 -0.0854
11096TIP3    H154779   3.065   3.865   2.232 -1.0974 -0.1937 -0.9292
11096TIP3    H254780   3.003   3.727   2.228 -0.8248 -0.2888 -1.8689
11097TIP3   OH254781   2.129   0.453  14.653 -0.1403 -0.1391 -0.0568
11097TIP3    H154782   2.112   0.492  14.567 -1.5426 -1.9301 -0.6301
11097TIP3    H254783   2.207   0.399  14.639  0.3797  0.5534  0.1308
11098TIP3   OH254784   1.926   0.897  11.713 -0.8733 -0.0305  0.1335
11098TIP3    H154785   1.994   0.893  11.780 -1.4053  2.1957  0.8351
11098TIP3    H254786   1.952   0.970  11.657 -1.5824 -0.5055 -0.8229
11099TIP3   OH254787   5.552   0.060   2.399 -0.1624 -0.4452 -0.0338
11099TIP3    H154788   5.583   0.070   2.309  0.4645  3.8134  0.5198
11099TIP3    H254789   5.457   0.067   2.393  0.0113  2.3704 -0.1885
11100TIP3   OH254790   2.848   4.705   2.038 -0.5721  0.4841 -0.0539
11100TIP3    H154791   2.842   4.799   2.054 -1.7789  0.2912  0.6972
11100TIP3    H254792   2.775   4.686   1.979 -1.8531 -0.3706  1.7492
11101TIP3   OH254793   1.955   1.116   1.348  0.4981 -0.7977  0.3552
11101TIP3    H154794   1.937   1.119   1.442 -0.2418 -1.7234  0.2526
11101TIP3    H254795   2.002   1.197   1.330  2.8465 -1.7602  1.9611
11102TIP3   OH254796   1.501   2.640   2.122  0.2877  1.0693 -1.0804
11102TIP3    H154797   1.452   2.600   2.050 -0.5336  0.7077 -0.3416
11102TIP3    H254798   1.589   2.605   2.113  0.1051  0.7546 -1.7007
11103TIP3   OH254799   4.886   1.576  13.780 -0.2788  0.0222 -0.5137
11103TIP3    H154800   4.843   1.540  13.703  1.5051 -0.1611 -1.4292
11103TIP3    H254801   4.840   1.535  13.854 -0.9041 -1.0554 -1.4873
11104TIP3   OH254802   4.315   0.931  13.897  0.4002 -0.4376 -0.4049
11104TIP3    H154803   4.251   0.901  13.961  0.0127  0.8154 -0.1911
11104TIP3    H254804   4.276   0.910  13.812 -1.1035  1.8337 -0.3265
11105TIP3   OH254805   5.433   4.963  11.278  0.3752  0.3141 -0.0410
11105TIP3    H154806   5.416   5.006  11.195 -0.4811  1.1505  0.5592
11105TIP3    H254807   5.464   4.875  11.254  1.2873  0.9584 -1.2442
11106TIP3   OH254808   0.377   0.446   5.422 -0.2540  0.2256 -0.3312
11106TIP3    H154809   0.394   0.540   5.430 -2.9414  0.6361  1.1645
11106TIP3    H254810   0.282   0.440   5.410 -0.3334 -2.3696  1.1974
11107TIP3   OH254811   2.314   5.020   3.339  0.3272  0.1098 -0.3951
11107TIP3    H154812   2.228   4.993   3.309 -0.3108  1.9586 -0.2868
11107TIP3    H254813   2.308   5.115   3.348  2.7160  0.4124 -1.5020
11108TIP3   OH254814   5.740   4.124  15.293 -0.2935  0.1056  0.3930
11108TIP3    H154815   5.664   4.168  15.256 -0.3332 -0.6559 -0.4519
11108TIP3    H254816   5.780   4.079  15.219  1.0587  0.6054  0.7981
11109TIP3   OH254817   1.530   6.695   4.036 -0.1918 -0.3065  0.2246
11109TIP3    H154818   1.548   6.617   3.983  0.7729  1.2818 -1.8399
11109TIP3    H254819   1.446   6.728   4.003  0.7039  1.0268 -0.7799
11110TIP3   OH254820   3.882   1.707  15.709  1.0834 -0.0447 -0.4457
11110TIP3    H154821   3.939   1.683  15.636 -0.3927 -2.8890 -0.7236
11110TIP3    H254822   3.813   1.760  15.668  1.1905 -0.2119 -0.8500
11111TIP3   OH254823   4.725   4.495  13.604  0.2863  0.2844  0.4790
11111TIP3    H154824   4.671   4.486  13.682  0.1161  1.9705  0.5861
11111TIP3    H254825   4.663   4.497  13.531  0.4881 -1.9651  0.2206
11112TIP3   OH254826   2.111   1.834  13.620  0.0216  0.1980 -0.3598
11112TIP3    H154827   2.199   1.833  13.582  0.4723  0.1524  0.6828
11112TIP3    H254828   2.119   1.889  13.697 -0.3227 -1.6786  1.0486
11113TIP3   OH254829   6.550   2.813  12.070 -0.2265  0.0042  0.0321
11113TIP3    H154830   6.504   2.897  12.064 -0.8219 -0.3191  0.0443
11113TIP3    H254831   6.643   2.836  12.065 -0.4206  0.5615 -1.1243
11114TIP3   OH254832   1.534   3.642   2.261 -0.3384 -0.2819 -0.1084
11114TIP3    H154833   1.565   3.552   2.255  2.3441  0.6254 -0.4333
11114TIP3    H254834   1.550   3.666   2.352  3.1903  1.2607 -1.0363
11115TIP3   OH254835   1.252   6.029   1.172 -0.6353  0.1459  0.3200
11115TIP3    H154836   1.188   6.096   1.196 -0.4314 -0.2012  1.8468
11115TIP3    H254837   1.234   6.011   1.079 -0.4509  2.5727 -0.2173
11116TIP3   OH254838   6.584   0.364   2.940  0.3945 -0.6846 -0.5399
11116TIP3    H154839   6.515   0.428   2.929  0.3721 -0.7654 -0.8604
11116TIP3    H254840   6.539   0.279   2.944  0.5379 -0.8146 -1.5816
11117TIP3   OH254841   0.563   1.169  13.713  0.3290 -0.4139  0.3382
11117TIP3    H154842   0.505   1.157  13.638  1.8286  0.7849 -1.0536
11117TIP3    H254843   0.559   1.263  13.732  0.8612 -0.5258  1.0293
11118TIP3   OH254844   3.206   2.534   2.401 -0.6616 -0.3553 -0.1144
11118TIP3    H154845   3.137   2.600   2.398 -1.3693 -0.9814  1.8615
11118TIP3    H254846   3.283   2.579   2.365 -0.6957  2.1046  2.6504
11119TIP3   OH254847   0.972   5.428   5.215 -0.1587 -0.3849 -0.2745
11119TIP3    H154848   0.967   5.373   5.137 -1.2798  0.1437 -0.5780
11119TIP3    H254849   1.065   5.448   5.225  0.6256 -4.1705  1.1096
11120TIP3   OH254850   6.349   3.754   0.886  0.6407  0.4300 -0.4550
11120TIP3    H154851   6.294   3.680   0.859  1.3839 -0.6794  1.0015
11120TIP3    H254852   6.387   3.787   0.805 -0.8088  0.1155 -1.2746
11121TIP3   OH254853   6.042   2.131   2.159  0.3545  0.0713 -0.6331
11121TIP3    H154854   5.970   2.069   2.150  0.0528  0.6635 -2.4506
11121TIP3    H254855   6.003   2.217   2.142  1.4302  0.4129 -1.4362
11122TIP3   OH254856   4.075   6.053   4.689 -0.5422  0.3848 -0.0977
11122TIP3    H154857   4.144   5.988   4.701 -0.0502  0.5535 -1.9837
11122TIP3    H254858   4.001   6.003   4.654 -0.4654  0.6828 -0.6844
11123TIP3   OH254859   1.211   2.248  15.866  0.2695  0.3385  0.1486
11123TIP3    H154860   1.123   2.275  15.838 -0.1973  0.5051  1.7505
11123TIP3    H254861   1.269   2.285  15.799 -0.6474  2.5513  0.5155
11124TIP3   OH254862   4.474   6.605  15.664  0.1846  0.4530 -0.2948
11124TIP3    H154863   4.429   6.559  15.734 -0.6242  2.2596  0.3981
11124TIP3    H254864   4.550   6.549  15.644  1.3994  0.7182  3.1777
11125TIP3   OH254865   4.962   3.116  13.601  0.4577 -0.1301  0.0111
11125TIP3    H154866   5.035   3.169  13.571  0.7510  0.5655  1.8998
11125TIP3    H254867   5.000   3.031  13.620  0.9030  0.3907  1.5195
11126TIP3   OH254868   3.917   6.175   2.414  0.5945  0.6137 -0.1518
11126TIP3    H154869   3.937   6.266   2.432 -0.4315  0.4696  1.9560
11126TIP3    H254870   3.849   6.178   2.346 -0.2265  1.4813  0.6871
11127TIP3   OH254871   1.893   0.608   0.742  0.5812  0.4294  0.4120
11127TIP3    H154872   1.978   0.564   0.735  1.1436  1.6618 -0.8216
11127TIP3    H254873   1.864   0.591   0.831  1.5786 -1.0081  0.4708
11128TIP3   OH254874   2.947   0.527  12.113  0.1799 -0.4592  0.0684
11128TIP3    H154875   2.945   0.432  12.102 -0.8026 -0.4476  0.0909
11128TIP3    H254876   2.855   0.552  12.120  0.4166  0.5406 -0.3126
11129TIP3   OH254877   4.763   2.952  16.569  0.1830  0.4167  0.1621
11129TIP3    H154878   4.702   2.953  16.644 -1.8828 -0.5907 -1.4452
11129TIP3    H254879   4.762   3.042  16.537  1.8292  1.0891  1.8934
11130TIP3   OH254880   5.157   2.691   5.874 -0.2557 -0.8194  0.2115
11130TIP3    H154881   5.145   2.627   5.945 -0.4075 -2.4254 -1.2371
11130TIP3    H254882   5.211   2.646   5.810 -0.5276  0.4484 -0.9254
11131TIP3   OH254883   1.213   2.121   4.535 -0.1691 -0.2656 -0.5814
11131TIP3    H154884   1.292   2.073   4.509  2.2708  1.5503  3.0776
11131TIP3    H254885   1.190   2.084   4.619 -0.2003  2.6253  0.7397
11132TIP3   OH254886   3.831   5.925   2.439  0.4403 -0.4384  0.2445
11132TIP3    H154887   3.822   5.895   2.529  0.6720 -1.4395 -0.0536
11132TIP3    H254888   3.902   5.989   2.441  1.2825 -1.3818  0.5622
11133TIP3   OH254889   6.700   3.634   1.777  0.2218  0.6272  0.0206
11133TIP3    H154890   6.721   3.692   1.704  1.4564 -1.4491 -1.3491
11133TIP3    H254891   6.700   3.546   1.738 -2.8544 -0.2077  1.7527
11134TIP3   OH254892   4.273   0.536  13.252  0.2821 -0.1580 -0.2001
11134TIP3    H154893   4.360   0.573  13.270  0.7678 -0.9244 -0.8951
11134TIP3    H254894   4.217   0.612  13.239  1.0617  0.3443 -0.6784
11135TIP3   OH254895   6.695   6.040  16.280 -0.0834  1.0324  0.0729
11135TIP3    H154896   6.699   5.970  16.344  0.5106  1.2404  0.2642
11135TIP3    H254897   6.609   6.029  16.238  1.1863 -1.6297 -1.9885
11136TIP3   OH254898   0.333   3.851   5.859  0.6818  0.3015  0.1561
11136TIP3    H154899   0.257   3.801   5.827 -1.3694  1.9553  2.3069
11136TIP3    H254900   0.361   3.803   5.937  1.2587  0.2716 -0.0649
11137TIP3   OH254901   0.046   5.681  13.887 -0.3398 -0.1127 -0.1776
11137TIP3    H154902   0.023   5.701  13.796 -0.4362  0.1668 -0.0900
11137TIP3    H254903   0.092   5.597  13.882  0.4986  0.3622 -0.5969
11138TIP3   OH254904   2.822   1.716  13.129 -0.0061  0.4878 -0.1653
11138TIP3    H154905   2.735   1.703  13.168  0.4626 -0.3824  0.6051
11138TIP3    H254906   2.861   1.787  13.180  0.1454  0.1659  0.1607
11139TIP3   OH254907   0.449   4.286  12.299  0.2711 -0.3655  0.6874
11139TIP3    H154908   0.400   4.218  12.254  1.8411 -0.8536 -0.3331
11139TIP3    H254909   0.383   4.345  12.336 -1.0440 -1.0786 -0.5400
11140TIP3   OH254910   1.860   3.445  14.982  0.0719 -0.4193  0.3974
11140TIP3    H154911   1.872   3.376  15.047 -2.4494  0.1653  1.5228
11140TIP3    H254912   1.828   3.520  15.032 -0.6442  0.4610 -1.3246
11141TIP3   OH254913   3.380   1.098   4.853  0.1027 -0.8773  0.0150
11141TIP3    H154914   3.356   1.176   4.803  0.2530 -0.5867  0.3938
11141TIP3    H254915   3.302   1.078   4.906 -0.3494 -1.6644 -0.9344
11142TIP3   OH254916   2.207   0.886   3.122  0.6841  0.2348 -0.0786
11142TIP3    H154917   2.226   0.802   3.163 -0.0597  0.9514  1.7779
11142TIP3    H254918   2.273   0.946   3.158  1.1946  0.4711 -1.3685
11143TIP3   OH254919   3.893   1.947   3.952 -0.3533 -0.5624 -0.1170
11143TIP3    H154920   3.872   2.032   3.916 -2.2076 -0.1482  1.8625
11143TIP3    H254921   3.957   1.910   3.891 -1.3760  1.1991 -2.3026
11144TIP3   OH254922   1.353   2.435  11.957 -0.7501 -0.3062  0.1885
11144TIP3    H154923   1.293   2.489  12.008  1.1078  1.0383  1.0004
11144TIP3    H254924   1.440   2.457  11.990  0.1883 -2.5163 -0.6796
11145TIP3   OH254925   6.668   1.304  16.247 -0.0774  0.2286 -0.0626
11145TIP3    H154926   6.637   1.231  16.300 -1.3440  0.7676 -0.0319
11145TIP3    H254927   6.641   1.283  16.158  0.0790  0.3707 -0.1466
11146TIP3   OH254928   1.957   1.949  13.947  0.0262 -0.3005  0.0934
11146TIP3    H154929   1.900   1.924  13.874 -0.1604  0.1282  0.0901
11146TIP3    H254930   1.960   1.871  14.003 -0.7171 -0.2697  0.1882
11147TIP3   OH254931   0.028   0.756  13.852  0.1127  0.4590  0.3137
11147TIP3    H154932  -0.042   0.817  13.828  0.9370  1.4080  0.3091
11147TIP3    H254933  -0.001   0.718  13.935  0.0308  1.5730  0.8055
11148TIP3   OH254934   3.808   6.650  16.340  0.0351 -0.3887 -0.2762
11148TIP3    H154935   3.896   6.640  16.304 -0.2767  0.8711 -1.4024
11148TIP3    H254936   3.753   6.669  16.264 -0.9834  0.1974  0.6027
11149TIP3   OH254937   4.275   6.765   4.469 -0.4220  0.3870  0.4376
11149TIP3    H154938   4.243   6.855   4.465 -1.3908  0.0810  1.0607
11149TIP3    H254939   4.196   6.712   4.482  0.0789 -0.6045 -0.4918
11150TIP3   OH254940   1.761   2.561  16.567 -0.0019  0.0464 -0.3385
11150TIP3    H154941   1.743   2.648  16.532 -0.0895 -0.5726 -1.8977
11150TIP3    H254942   1.802   2.515  16.494 -0.4658 -1.3928  0.2975
11151TIP3   OH254943   1.850   6.485   0.628 -0.5623  0.0607 -0.2923
11151TIP3    H154944   1.938   6.448   0.624 -0.5154  0.0929  0.4498
11151TIP3    H254945   1.821   6.470   0.718 -1.0098  0.7495 -0.3184
11152TIP3   OH254946   0.912   1.541  16.670 -0.9145  0.4681 -0.2490
11152TIP3    H154947   0.903   1.627  16.712  1.2013  1.1060 -1.0910
11152TIP3    H254948   0.884   1.479  16.738 -0.6246  1.7013  1.0257
11153TIP3   OH254949   4.046   4.869   5.321  0.4091  0.2372 -0.1639
11153TIP3    H154950   4.049   4.965   5.319 -0.7136  0.2636 -0.5476
11153TIP3    H254951   4.082   4.842   5.236 -0.9991  0.3597 -0.8054
11154TIP3   OH254952   2.205   5.651  10.915 -0.5587  0.0291 -0.0164
11154TIP3    H154953   2.281   5.610  10.874 -0.4684 -1.8425  1.9485
11154TIP3    H254954   2.142   5.580  10.927 -1.6666  1.0796  0.5656
11155TIP3   OH254955   2.055   6.681  11.912 -0.0496  0.1489  0.1086
11155TIP3    H154956   2.093   6.600  11.880 -0.5374 -0.7956  1.8746
11155TIP3    H254957   1.961   6.673  11.892  0.1035  0.9167 -0.9970
11156TIP3   OH254958   5.795   0.679  16.772 -0.6771  0.2534 -0.0069
11156TIP3    H154959   5.720   0.683  16.714 -0.2896 -0.8660 -0.6206
11156TIP3    H254960   5.773   0.610  16.835 -0.2717  0.0881 -0.0431
11157TIP3   OH254961   3.234   1.156   4.520 -0.0746 -0.1413  0.2353
11157TIP3    H154962   3.265   1.184   4.606  0.3192 -0.1539  0.0964
11157TIP3    H254963   3.290   1.202   4.458 -0.5684  0.1206 -0.0228
11158TIP3   OH254964   4.811   0.977  13.388 -0.2041  0.0189  0.0009
11158TIP3    H154965   4.842   0.900  13.435  0.5924  0.0632 -0.4441
11158TIP3    H254966   4.726   0.996  13.427 -0.4564 -1.1479  0.0423
11159TIP3   OH254967   5.103   5.120   6.791  0.6570 -0.1953  0.3650
11159TIP3    H154968   5.068   5.163   6.712  2.4857 -0.2666 -0.4994
11159TIP3    H254969   5.026   5.105   6.845 -0.5627  0.4123 -1.1454
11160TIP3   OH254970   5.087   4.902   0.192  0.5657  0.1501  0.2900
11160TIP3    H154971   5.102   4.988   0.154  1.0008 -0.2409 -0.4309
11160TIP3    H254972   5.004   4.873   0.154  0.7672 -0.0440  0.0005
11161TIP3   OH254973   3.213   5.053  13.800 -0.5431 -0.3374 -0.1225
11161TIP3    H154974   3.284   5.007  13.845 -1.2086 -2.4149 -1.1235
11161TIP3    H254975   3.140   4.990  13.799 -1.5096  0.7594 -1.4591
11162TIP3   OH254976   3.646   0.416  16.313  0.1286 -1.3839  0.1082
11162TIP3    H154977   3.555   0.443  16.319  1.3936  2.6908  2.9495
11162TIP3    H254978   3.671   0.434  16.222 -1.2552 -0.3138 -0.0720
11163TIP3   OH254979   1.817   5.616  16.883 -0.1714  0.0758 -0.1836
11163TIP3    H154980   1.758   5.559  16.932  0.6344 -0.6611 -0.0637
11163TIP3    H254981   1.870   5.659  16.949 -0.7093  0.8915 -0.2785
11164TIP3   OH254982   6.288   1.919  11.401  0.5026  0.0576 -0.0546
11164TIP3    H154983   6.301   1.945  11.492 -1.4826  0.9729 -0.0112
11164TIP3    H254984   6.226   1.982  11.366  0.8595 -0.5745 -1.9271
11165TIP3   OH254985   6.779   5.383  14.995 -0.2448  0.0281 -0.0848
11165TIP3    H154986   6.861   5.417  14.959 -0.1695  0.6520  0.6608
11165TIP3    H254987   6.806   5.311  15.052 -0.1285  0.9045  0.9720
11166TIP3   OH254988   2.822   3.750   5.013  1.0205  0.1786 -0.2348
11166TIP3    H154989   2.745   3.806   5.000  0.2698 -0.7536  0.1158
11166TIP3    H254990   2.882   3.803   5.065 -0.3210  0.1081  1.4290
11167TIP3   OH254991   4.975   3.507  14.227 -0.9478 -0.4249 -0.1564
11167TIP3    H154992   4.900   3.539  14.277  0.5523  1.9519  0.6459
11167TIP3    H254993   4.993   3.575  14.162  0.7767 -0.7187 -0.0338
11168TIP3   OH254994   1.611   5.340  15.545  0.2186 -0.2111 -0.1345
11168TIP3    H154995   1.561   5.260  15.564 -0.1328 -0.1227 -0.6529
11168TIP3    H254996   1.682   5.311  15.488 -0.0283 -0.1239 -0.4895
11169TIP3   OH254997   4.865   2.232  16.718 -0.4009  0.8170  0.1528
11169TIP3    H154998   4.930   2.192  16.776 -0.8237  0.0790  0.1262
11169TIP3    H254999   4.909   2.308  16.681  0.6485 -0.0030 -0.2990
11170TIP3   OH255000   1.414   0.876   6.008 -0.0357 -0.1239 -0.0548
11170TIP3    H155001   1.491   0.908   5.960  0.3331  1.1396  1.3333
11170TIP3    H255002   1.445   0.801   6.057  0.1389 -0.0394 -0.0360
11171TIP3   OH255003   1.071   3.886   4.874  0.2829 -0.5650  0.3011
11171TIP3    H155004   1.088   3.816   4.811  3.6422 -0.3171  0.8515
11171TIP3    H255005   1.108   3.854   4.956  0.1284  1.0461  1.0182
11172TIP3   OH255006   3.744   5.207   1.410 -0.0836  0.0418 -0.2765
11172TIP3    H155007   3.760   5.163   1.326 -0.2726 -0.7931  0.1146
11172TIP3    H255008   3.650   5.227   1.409  0.0903  0.8626 -0.6497
11173TIP3   OH255009   5.542   6.755  12.934  0.3114 -0.2812  0.1416
11173TIP3    H155010   5.496   6.688  12.883  1.2964 -0.1597 -0.9211
11173TIP3    H255011   5.634   6.742  12.913  0.6993  0.0640  1.5548
11174TIP3   OH255012   5.371   4.605  15.957 -0.0678  0.2956 -0.6072
11174TIP3    H155013   5.436   4.535  15.953  1.2059  1.4916 -0.8591
11174TIP3    H255014   5.384   4.656  15.878 -1.0494  0.7837 -0.4662
11175TIP3   OH255015   0.388   3.437  11.398  0.0275  0.3717 -0.4943
11175TIP3    H155016   0.435   3.447  11.481  2.2619 -0.5965 -1.6042
11175TIP3    H255017   0.439   3.490  11.336 -1.1566  0.4326 -1.4213
11176TIP3   OH255018   2.097   4.254   0.034  0.6312  0.1287 -0.0878
11176TIP3    H155019   2.173   4.278   0.087  1.3704 -0.7476 -0.7356
11176TIP3    H255020   2.093   4.158   0.039 -0.2212  0.1448 -0.3408
11177TIP3   OH255021   1.886   2.592   0.582 -0.4279 -0.1598  0.2783
11177TIP3    H155022   1.935   2.513   0.604 -0.5220 -0.4856 -0.6612
11177TIP3    H255023   1.795   2.566   0.590 -0.4530  0.5698  2.4601
11178TIP3   OH255024   5.627   0.951  14.262 -0.3378  0.6785 -0.5393
11178TIP3    H155025   5.698   0.953  14.198 -1.4577  0.6611 -1.7989
11178TIP3    H255026   5.582   1.035  14.249 -2.4575 -0.6377 -1.9647
11179TIP3   OH255027   3.896   3.413  11.257 -0.3244  0.2631 -0.0283
11179TIP3    H155028   3.944   3.351  11.312 -1.1217  0.4479  0.8950
11179TIP3    H255029   3.904   3.377  11.168 -0.5534 -1.0268  0.4574
11180TIP3   OH255030   1.702   4.588  10.869  0.2850  0.0122 -0.9174
11180TIP3    H155031   1.614   4.553  10.862  1.0609 -1.8761 -1.5011
11180TIP3    H255032   1.732   4.562  10.957 -0.1292  1.6221 -0.2755
11181TIP3   OH255033   4.432   4.722  12.163  0.3740  0.0525 -0.3524
11181TIP3    H155034   4.468   4.748  12.078 -0.5628  1.2183 -0.4204
11181TIP3    H255035   4.455   4.630  12.173  2.0557  0.3932 -1.0510
11182TIP3   OH255036   3.977   6.736   1.368 -0.5863  0.0807 -0.2044
11182TIP3    H155037   4.015   6.664   1.318 -0.2988  0.2736 -0.2637
11182TIP3    H255038   3.920   6.693   1.431  1.2633 -0.3483  1.2332
11183TIP3   OH255039   1.238   4.776   5.606  0.1096  0.3848 -0.1096
11183TIP3    H155040   1.254   4.813   5.693  0.1648  0.5757 -0.2015
11183TIP3    H255041   1.160   4.823   5.575  0.4110  0.6995 -0.3867
11184TIP3   OH255042   6.305   4.999   5.517  0.3316  0.0835  0.0073
11184TIP3    H155043   6.226   4.951   5.543  0.6424 -0.9734 -0.9829
11184TIP3    H255044   6.274   5.086   5.494 -0.4052 -0.0138  0.6045
11185TIP3   OH255045   5.679   6.608   4.380  0.3877 -0.3211  0.4634
11185TIP3    H155046   5.596   6.594   4.425 -0.0049 -0.3656 -0.2700
11185TIP3    H255047   5.737   6.644   4.447 -0.8988  1.9224  0.4185
11186TIP3   OH255048   2.340   1.266  16.742  0.0781  0.5790 -0.0404
11186TIP3    H155049   2.274   1.261  16.811 -0.4007  0.7393 -0.4897
11186TIP3    H255050   2.422   1.243  16.787 -0.0832  1.5804  0.7982
11187TIP3   OH255051   2.485   3.648  11.358 -0.2790  0.1346 -0.4928
11187TIP3    H155052   2.529   3.571  11.323  0.0432 -0.4313  1.1302
11187TIP3    H255053   2.422   3.614  11.421 -0.3604  1.1740  0.0006
11188TIP3   OH255054   4.470   2.412   3.052  0.3351 -0.4794  0.1930
11188TIP3    H155055   4.399   2.367   3.098  0.2807 -0.5081  0.0797
11188TIP3    H255056   4.503   2.348   2.990 -0.1623 -0.1509 -0.4182
11189TIP3   OH255057   4.240   4.133  15.568  0.3294 -0.0899 -0.3668
11189TIP3    H155058   4.269   4.224  15.573 -0.6540  0.1444  2.1022
11189TIP3    H255059   4.144   4.139  15.573  0.1920 -1.2038 -1.4662
11190TIP3   OH255060   1.216   0.670   4.498 -0.2225 -0.1070  0.4383
11190TIP3    H155061   1.289   0.677   4.560 -0.0593 -1.9274  0.4556
11190TIP3    H255062   1.167   0.752   4.510  2.0986  1.3904  0.0382
11191TIP3   OH255063   5.526   3.630   5.992  0.3023 -0.7660  0.0605
11191TIP3    H155064   5.583   3.584   5.930 -1.8230 -0.6018 -2.1015
11191TIP3    H255065   5.518   3.570   6.066  0.1237 -2.4989 -1.3360
11192TIP3   OH255066   1.463   2.128   4.966 -0.0210 -0.0037 -0.1745
11192TIP3    H155067   1.453   2.218   4.934  1.0197  0.0463 -0.3813
11192TIP3    H255068   1.386   2.113   5.020 -0.3914  0.8854 -0.4420
11193TIP3   OH255069   3.632   5.851  12.690 -0.2936 -0.0669  0.2029
11193TIP3    H155070   3.664   5.891  12.609  0.8249 -1.8389 -0.2399
11193TIP3    H255071   3.707   5.804  12.726 -1.1553 -0.4576  1.5474
11194TIP3   OH255072   0.998   2.198   5.758  0.2408 -0.1760 -0.0717
11194TIP3    H155073   0.960   2.193   5.845  0.1343  1.1596 -0.0245
11194TIP3    H255074   1.026   2.109   5.738  0.2033 -0.4988  1.2992
11195TIP3   OH255075   4.239   4.215   0.607 -0.2196 -0.2315  0.2772
11195TIP3    H155076   4.228   4.159   0.684 -1.1837 -0.3395  0.0612
11195TIP3    H255077   4.193   4.170   0.537 -1.1211  0.8866  0.1345
11196TIP3   OH255078   6.327   3.347  15.041 -0.2150 -0.0153 -0.6137
11196TIP3    H155079   6.315   3.291  15.118  1.4495 -0.1433 -0.4274
11196TIP3    H255080   6.320   3.287  14.967 -0.4646 -0.1283 -0.4992
11197TIP3   OH255081   5.987   5.163  10.905  0.1204  0.1412 -0.4849
11197TIP3    H155082   5.932   5.126  10.974  0.3700 -0.0146 -0.3701
11197TIP3    H255083   6.055   5.098  10.891 -0.6833 -0.4481 -1.8171
11198TIP3   OH255084   5.588   4.189   5.797 -0.2630  0.3869  0.5857
11198TIP3    H155085   5.566   4.121   5.732 -0.9632  1.4053 -0.2651
11198TIP3    H255086   5.554   4.154   5.879 -0.3791 -0.4199  0.2063
11199TIP3   OH255087   5.787   4.659  14.143  0.0886 -0.3523  0.4014
11199TIP3    H155088   5.859   4.597  14.158  0.6771  0.2992  0.3211
11199TIP3    H255089   5.799   4.688  14.053 -1.1282 -1.3172 -0.0720
11200TIP3   OH255090   5.851   4.156   2.778  0.0929 -0.2441  0.2056
11200TIP3    H155091   5.910   4.175   2.706  0.1605  0.8773  0.5388
11200TIP3    H255092   5.887   4.078   2.820  0.9248  0.0130 -0.0317
11201TIP3   OH255093   0.497   0.419   2.229  0.4622  0.5632  0.1093
11201TIP3    H155094   0.508   0.501   2.181 -2.5797  1.1969  0.4232
11201TIP3    H255095   0.436   0.368   2.177  1.8753 -1.2871  0.2206
11202TIP3   OH255096   5.677   0.136  14.449  0.1384 -0.2971 -0.0423
11202TIP3    H155097   5.698   0.228  14.433  0.8436 -0.1518  1.6141
11202TIP3    H255098   5.586   0.127  14.420  0.5577  0.5163 -1.7147
11203TIP3   OH255099   4.305   1.184  14.101  0.0237  0.2588 -0.3176
11203TIP3    H155100   4.316   1.102  14.148  2.2577 -0.8240 -2.6086
11203TIP3    H255101   4.211   1.187  14.081 -0.5173 -0.4464  2.0033
11204TIP3   OH255102   4.857   4.473   2.211 -0.4868  0.4549 -0.5537
11204TIP3    H155103   4.851   4.377   2.214 -0.4769  0.4962  1.8254
11204TIP3    H255104   4.767   4.504   2.220 -0.5684  0.6724 -2.0446
11205TIP3   OH255105   1.716   6.137   0.520  0.4743 -0.2478  0.5306
11205TIP3    H155106   1.698   6.107   0.609 -2.1260 -1.4906 -0.3868
11205TIP3    H255107   1.771   6.069   0.482 -1.0499 -1.3087  0.1783
11206TIP3   OH255108   5.855   5.766  12.077 -0.9082 -0.0274 -0.0010
11206TIP3    H155109   5.878   5.836  12.138 -1.0972 -0.6283  0.7842
11206TIP3    H255110   5.759   5.764  12.077 -0.9087 -0.0374 -0.3076
11207TIP3   OH255111   0.781   3.149  16.498  0.2081 -0.2201 -0.1163
11207TIP3    H155112   0.688   3.131  16.511 -0.2372  1.2748 -1.0114
11207TIP3    H255113   0.783   3.218  16.432  2.0032 -1.0869 -1.0332
11208TIP3   OH255114   4.362   2.679   5.398 -0.8735 -0.2033  0.1897
11208TIP3    H155115   4.349   2.773   5.409  0.0479 -0.0210 -0.2719
11208TIP3    H255116   4.456   2.665   5.407 -0.7874 -0.8338 -1.4163
11209TIP3   OH255117   4.193   6.281  13.131  0.4120 -0.4487 -0.5961
11209TIP3    H155118   4.237   6.328  13.202  0.6120 -0.3617 -0.7743
11209TIP3    H255119   4.191   6.190  13.160  0.7052 -0.4519 -0.5823
11210TIP3   OH255120   0.836   5.483   1.364 -0.4528  0.1664  0.0104
11210TIP3    H155121   0.913   5.454   1.317  0.6537  1.3792  1.0177
11210TIP3    H255122   0.780   5.524   1.298  1.1499  1.9878 -0.2697
11211TIP3   OH255123   3.947   2.298   1.273 -0.0299 -0.9385  0.2567
11211TIP3    H155124   4.041   2.284   1.266 -0.0152  0.0288 -1.9816
11211TIP3    H255125   3.908   2.224   1.226 -0.3426 -0.6235  0.0163
11212TIP3   OH255126   0.231   2.680  13.375  0.1212  0.1024 -0.9538
11212TIP3    H155127   0.269   2.748  13.430 -0.0607 -0.5521 -0.0002
11212TIP3    H255128   0.164   2.724  13.323  1.0565  0.9413 -1.4561
11213TIP3   OH255129   0.354   1.144  13.541  0.1092  0.0185  0.0344
11213TIP3    H155130   0.316   1.231  13.551  0.5085  0.3020 -0.9022
11213TIP3    H255131   0.281   1.084  13.558 -0.4756  0.5521 -0.5808
11214TIP3   OH255132   0.848   0.861   2.698  0.1652  0.1798  0.4617
11214TIP3    H155133   0.914   0.840   2.763 -0.8637 -0.9999  1.1377
11214TIP3    H255134   0.857   0.793   2.632  0.1694  0.4910  0.1375
11215TIP3   OH255135   1.466   1.066  12.758  0.1541  0.4686 -0.4213
11215TIP3    H155136   1.423   1.117  12.690 -0.5855 -1.8643 -1.7775
11215TIP3    H255137   1.395   1.039  12.817  0.2369 -0.4931 -0.7423
11216TIP3   OH255138   3.871   3.086  14.178 -0.0138  0.0118 -0.2157
11216TIP3    H155139   3.932   3.107  14.249 -0.5851 -0.0097  0.2793
11216TIP3    H255140   3.865   2.991  14.178 -1.2061  0.0737  0.7167
11217TIP3   OH255141   6.100   1.280   5.991 -0.0413  0.3099 -0.2579
11217TIP3    H155142   6.110   1.267   5.897  2.2842  1.4440 -0.1849
11217TIP3    H255143   6.014   1.321   6.001 -1.3316 -1.9338 -1.6531
11218TIP3   OH255144   1.184   6.115  12.005  0.1186 -0.5505 -0.9021
11218TIP3    H155145   1.222   6.170  11.937 -0.9283 -2.1489 -2.8149
11218TIP3    H255146   1.234   6.033  12.002 -0.4626 -0.9374 -0.2991
11219TIP3   OH255147   1.539   2.067  13.131  0.1156 -0.3204 -0.4005
11219TIP3    H155148   1.613   2.033  13.082  1.4108  0.6846  0.7935
11219TIP3    H255149   1.576   2.088  13.217 -1.5260  0.3347  0.1563
11220TIP3   OH255150   5.542   1.483  16.906 -0.6256  0.1129 -0.2741
11220TIP3    H155151   5.495   1.437  16.837 -0.5134 -1.0167  0.3953
11220TIP3    H255152   5.632   1.488  16.875 -0.2136 -1.9261  0.5451
11221TIP3   OH255153   2.782   4.833  10.922  0.0982  0.1676 -0.3426
11221TIP3    H155154   2.811   4.822  10.831 -3.3258  0.5472 -1.5344
11221TIP3    H255155   2.738   4.751  10.944 -0.5714  0.7176  0.4142
11222TIP3   OH255156   4.421   3.557  14.863  0.2443 -0.3819 -0.1172
11222TIP3    H155157   4.401   3.477  14.910 -0.1587 -0.2874 -0.1281
11222TIP3    H255158   4.451   3.618  14.931 -0.4124 -0.2197  0.0292
11223TIP3   OH255159   2.627   3.861   1.209 -0.1349 -0.0163 -0.0864
11223TIP3    H155160   2.533   3.861   1.229  0.0906  0.3716  1.0422
11223TIP3    H255161   2.664   3.926   1.269  0.9089 -0.4345 -0.2645
11224TIP3   OH255162   1.457   2.360   6.180 -0.3568 -0.3460 -0.2782
11224TIP3    H155163   1.386   2.308   6.217 -0.6380  0.0815 -0.2160
11224TIP3    H255164   1.414   2.422   6.121 -0.0799  0.1931  0.0756
11225TIP3   OH255165   2.603   5.537   5.016  0.1169 -0.2902 -0.3149
11225TIP3    H155166   2.680   5.588   4.990 -0.4224  1.0467  0.6850
11225TIP3    H255167   2.529   5.581   4.974 -0.2288 -1.0074 -0.4798
11226TIP3   OH255168   2.052   5.999   0.221 -0.0326 -0.2775  0.0978
11226TIP3    H155169   2.041   5.950   0.140  1.9393 -1.0335  0.2656
11226TIP3    H255170   2.120   6.064   0.201 -0.3152  0.2598  0.8408
11227TIP3   OH255171   4.036   0.315   1.074  0.1982  0.1300 -0.2201
11227TIP3    H155172   3.995   0.290   1.157  2.4508  1.4674  1.3601
11227TIP3    H255173   3.968   0.365   1.028 -1.8019 -2.4662 -0.1771
11228TIP3   OH255174   0.056   2.631  15.423  0.1469 -0.8387  0.2251
11228TIP3    H155175   0.009   2.586  15.493 -1.1241  0.4584  0.2144
11228TIP3    H255176   0.102   2.561  15.376  1.0383 -1.7226  2.3537
11229TIP3   OH255177   4.115   0.029   0.249  0.2847 -0.9516  0.5243
11229TIP3    H155178   4.149   0.106   0.204  1.5461 -2.5607 -1.3446
11229TIP3    H255179   4.091   0.061   0.336  1.2003  1.4415 -0.0623
11230TIP3   OH255180   3.503   1.044   1.609  1.0075  0.3885  0.4480
11230TIP3    H155181   3.421   1.052   1.659  0.9700  0.5737  0.3567
11230TIP3    H255182   3.499   0.956   1.570  1.3947 -0.0598  1.4013
11231TIP3   OH255183   2.004   5.080  16.282  0.1840 -0.1510  0.3993
11231TIP3    H155184   1.976   5.041  16.199  1.2110  0.6255 -0.3178
11231TIP3    H255185   2.087   5.037  16.303  0.9954  1.1597 -0.0618
11232TIP3   OH255186   0.640   1.642   1.527  0.0455  0.3881 -0.0848
11232TIP3    H155187   0.589   1.584   1.584 -2.5004  0.0344 -2.6132
11232TIP3    H255188   0.722   1.657   1.575 -1.3836 -1.0860  2.9521
11233TIP3   OH255189   2.073   6.531   3.646  0.1689 -0.3278 -0.0783
11233TIP3    H155190   2.102   6.601   3.705 -2.7275  1.4696 -0.7042
11233TIP3    H255191   2.068   6.453   3.701  1.1149  0.4871  1.1826
11234TIP3   OH255192   4.972   5.208   5.377  0.1078 -0.1778 -0.0655
11234TIP3    H155193   4.965   5.209   5.473 -0.1790 -0.3151 -0.0829
11234TIP3    H255194   4.979   5.115   5.355 -1.8131 -0.2858 -0.3035
11235TIP3   OH255195   5.240   3.952   2.818  0.3195 -0.3324 -0.2448
11235TIP3    H155196   5.145   3.946   2.804  0.2167  1.5281 -0.4257
11235TIP3    H255197   5.265   4.034   2.775  2.0498 -0.9314 -0.3842
11236TIP3   OH255198   0.478   0.550  14.946  0.4695  0.4481 -0.2218
11236TIP3    H155199   0.548   0.604  14.982  1.9097 -0.8897 -0.9737
11236TIP3    H255200   0.503   0.537  14.855 -0.0868 -1.1373 -0.1531
11237TIP3   OH255201   1.714   3.799  12.540  0.6118  1.0103  0.0433
11237TIP3    H155202   1.804   3.782  12.568  0.9899  1.1327 -1.0732
11237TIP3    H255203   1.666   3.719  12.563  1.6547 -0.2491 -2.0852
11238TIP3   OH255204   4.486   4.548   0.374 -0.1248  0.1716  0.1226
11238TIP3    H155205   4.399   4.536   0.411 -0.1493  0.1392  0.0543
11238TIP3    H255206   4.504   4.641   0.382 -1.4975  0.7504 -2.8307
11239TIP3   OH255207   4.144   3.063  11.092 -0.1841 -0.1055  1.1097
11239TIP3    H155208   4.058   3.084  11.128  0.1953  0.4738  1.7070
11239TIP3    H255209   4.164   3.136  11.033 -0.6445 -0.8725 -0.0055
11240TIP3   OH255210   5.732   1.555   0.751 -0.1111 -0.2774 -0.8412
11240TIP3    H155211   5.787   1.563   0.673  0.5530 -0.2195 -0.3690
11240TIP3    H255212   5.654   1.608   0.730  0.2177  0.0240 -1.3268
11241TIP3   OH255213   3.101   2.344   3.485  0.4240 -0.3380  0.9330
11241TIP3    H155214   3.156   2.342   3.407  0.1124 -1.7426  0.7284
11241TIP3    H255215   3.059   2.258   3.486  0.7097 -0.4825  2.8433
11242TIP3   OH255216   1.091   6.759   4.319 -0.2489 -0.2143 -0.1693
11242TIP3    H155217   1.046   6.790   4.240 -0.3413 -0.5254 -0.2396
11242TIP3    H255218   1.021   6.745   4.382 -0.0963  0.8354  0.2442
11243TIP3   OH255219   4.689   1.722   5.329  0.5099 -0.4359  0.2485
11243TIP3    H155220   4.661   1.682   5.246  0.6230 -0.8375  0.4009
11243TIP3    H255221   4.670   1.655   5.395  0.1746 -0.0129  0.5807
11244TIP3   OH255222   0.670   5.083   5.914 -0.7646  0.0182 -0.3714
11244TIP3    H155223   0.601   5.068   5.979 -0.8182 -2.4233 -0.9519
11244TIP3    H255224   0.714   5.163   5.944 -2.8013  0.6971  0.8980
11245TIP3   OH255225   1.226   6.755  16.585  0.0946 -0.1014  0.6254
11245TIP3    H155226   1.240   6.676  16.533  0.5005 -0.3665  1.1399
11245TIP3    H255227   1.305   6.763  16.638  0.3794  1.0688  0.0272
11246TIP3   OH255228   3.235   2.850   2.298 -0.3232 -0.0166 -0.0545
11246TIP3    H155229   3.258   2.899   2.219  0.7621  0.2285  0.4013
11246TIP3    H255230   3.140   2.843   2.295 -0.4493  1.6206 -0.4246
11247TIP3   OH255231   0.096   6.660   0.161 -0.1436  0.2427  0.2377
11247TIP3    H155232   0.187   6.647   0.187 -0.4641  1.8818  2.3052
11247TIP3    H255233   0.098   6.656   0.065  2.1410  0.4543  0.2472
11248TIP3   OH255234   1.466   2.731  11.789  0.0170 -0.0738  0.5587
11248TIP3    H155235   1.438   2.647  11.753  0.2605  0.1397 -0.1310
11248TIP3    H255236   1.549   2.750  11.745  0.1904  0.3158  1.0419
11249TIP3   OH255237   2.851   1.931  14.917 -0.0750  0.2168  0.2601
11249TIP3    H155238   2.829   2.022  14.939 -1.3483 -0.3025  1.2135
11249TIP3    H255239   2.868   1.890  15.001  1.7338 -0.1311 -0.2629
11250TIP3   OH255240   5.259   5.465   2.288  0.6528  0.1015 -0.1038
11250TIP3    H155241   5.260   5.428   2.376  1.7412 -0.3026 -0.2801
11250TIP3    H255242   5.258   5.560   2.302 -0.4553  0.0225  0.3416
11251TIP3   OH255243   5.425   2.861  15.517  0.1717  0.2642 -0.6085
11251TIP3    H155244   5.418   2.916  15.595 -0.8295 -1.7659  0.8025
11251TIP3    H255245   5.339   2.818  15.511  1.2321 -1.8423 -1.1056
11252TIP3   OH255246   1.661   6.516   5.955  0.6763  0.5104  0.0786
11252TIP3    H155247   1.581   6.519   5.903  0.0942  0.5690  0.9670
11252TIP3    H255248   1.718   6.582   5.914 -0.3180  1.5790  0.3964
11253TIP3   OH255249   1.667   6.790  12.264  0.0836 -0.5304 -0.1261
11253TIP3    H155250   1.744   6.844  12.251 -2.2451  2.6178 -1.4769
11253TIP3    H255251   1.663   6.775  12.358 -0.1257  3.1009  0.4804
11254TIP3   OH255252   0.336   4.925  12.213  0.0982 -0.1328 -0.2012
11254TIP3    H155253   0.349   4.900  12.121 -0.3537  0.9122 -0.5542
11254TIP3    H255254   0.298   5.013  12.209 -0.4869 -0.3225  0.9770
11255TIP3   OH255255   5.411   4.700   1.609 -0.3718  0.7709 -0.8231
11255TIP3    H155256   5.500   4.692   1.575 -0.1849  0.0283 -0.1759
11255TIP3    H255257   5.386   4.790   1.590  1.0357  1.4059  0.2134
11256TIP3   OH255258   3.411   5.215   2.041  0.4995  0.5017  0.4533
11256TIP3    H155259   3.418   5.122   2.062  1.1038  0.5399  0.4295
11256TIP3    H255260   3.460   5.226   1.960 -0.1059  0.7264  0.1175
11257TIP3   OH255261   0.560   2.862  12.740  0.0333 -0.1375  0.4687
11257TIP3    H155262   0.595   2.948  12.719  1.3843 -0.4955  1.1872
11257TIP3    H255263   0.466   2.870  12.725  0.2894  1.1250 -0.5571
11258TIP3   OH255264   1.145   3.470   4.179 -0.0462 -0.4844  0.2441
11258TIP3    H155265   1.232   3.433   4.164 -0.3310 -0.8371 -0.5593
11258TIP3    H255266   1.150   3.559   4.143  0.1302 -0.3296  0.6492
11259TIP3   OH255267   2.169   3.810   6.176  0.0153 -0.6099 -0.0224
11259TIP3    H155268   2.211   3.881   6.224 -1.4806 -0.8005  1.6234
11259TIP3    H255269   2.141   3.748   6.243  1.3666 -2.8306 -1.4303
11260TIP3   OH255270   5.043   2.857  13.712 -0.3418  0.2078  0.3986
11260TIP3    H155271   5.093   2.791  13.760  1.1332  0.2708 -1.0057
11260TIP3    H255272   4.976   2.886  13.774  2.4265  1.3833  2.9624
11261TIP3   OH255273   5.033   2.752   3.504  0.0892 -0.6441 -0.1499
11261TIP3    H155274   4.940   2.759   3.527  0.4513  0.4020  1.0148
11261TIP3    H255275   5.068   2.688   3.566 -0.0385 -1.7509 -1.1950
11262TIP3   OH255276   0.986   5.357   3.136  0.5861 -0.0228  0.0932
11262TIP3    H155277   0.979   5.267   3.103 -0.5852 -0.1185  0.5857
11262TIP3    H255278   1.070   5.388   3.102 -0.3369 -0.2935 -2.5982
11263TIP3   OH255279   3.525   5.427   3.518 -0.5331 -0.3500 -0.2517
11263TIP3    H155280   3.575   5.391   3.592  0.6964 -1.5341 -1.6407
11263TIP3    H255281   3.521   5.356   3.455 -3.1172  0.0681 -0.6192
11264TIP3   OH255282   3.386   3.481   1.875  1.0291 -0.4488  0.0875
11264TIP3    H155283   3.439   3.536   1.817  0.0794 -0.6260 -0.9713
11264TIP3    H255284   3.339   3.543   1.931  2.2734 -0.2898  0.9800
11265TIP3   OH255285   0.954   5.961   3.378 -0.0387 -0.5719 -0.2275
11265TIP3    H155286   0.962   5.899   3.451 -0.5486 -2.4649 -1.7402
11265TIP3    H255287   1.024   5.936   3.318  0.4216  1.0295 -0.3846
11266TIP3   OH255288   6.131   2.142  12.661  0.1148 -0.4797 -0.2596
11266TIP3    H155289   6.055   2.088  12.682  0.6932 -1.5378 -0.8754
11266TIP3    H255290   6.108   2.228  12.695 -1.2154 -0.8676 -0.1242
11267TIP3   OH255291   4.915   0.772   5.577  0.7737 -0.1569  0.5381
11267TIP3    H155292   4.851   0.756   5.647 -1.2906  1.2905 -0.9545
11267TIP3    H255293   4.894   0.707   5.511  0.4208  0.6958 -0.2077
11268TIP3   OH255294   6.508   0.167  15.124  0.1686  0.5658 -0.0542
11268TIP3    H155295   6.531   0.099  15.187  0.0381 -0.4464 -1.0884
11268TIP3    H255296   6.412   0.172  15.128 -0.0128 -1.0462 -1.7369
11269TIP3   OH255297   6.084   1.597  16.138 -0.0084  0.1479  0.3222
11269TIP3    H155298   6.057   1.543  16.063  0.3621 -0.2008  0.4353
11269TIP3    H255299   6.177   1.613  16.123  0.4611 -1.2855  1.5298
11270TIP3   OH255300   5.641   6.629   3.312 -0.3971  0.4960  0.1873
11270TIP3    H155301   5.596   6.651   3.393 -1.9805 -3.3284  0.4497
11270TIP3    H255302   5.732   6.611   3.339 -0.5665  0.6324  0.8602
11271TIP3   OH255303   6.308   3.449   4.266 -0.4273  0.0582 -0.3293
11271TIP3    H155304   6.309   3.356   4.241 -1.1060  0.1353 -0.6643
11271TIP3    H255305   6.369   3.455   4.339  1.0270 -0.3214 -1.4807
11272TIP3   OH255306   3.074   1.135  13.888  0.5385 -0.6415  0.2481
11272TIP3    H155307   2.995   1.094  13.854 -0.6542  1.6989  0.0646
11272TIP3    H255308   3.117   1.173  13.811  0.4121  0.4055  0.6764
11273TIP3   OH255309   4.647   0.898   0.755  0.1956  0.4383  0.4260
11273TIP3    H155310   4.648   0.807   0.725 -0.8073  0.7859 -0.6916
11273TIP3    H255311   4.562   0.932   0.726  0.4187  1.6405  1.1327
11274TIP3   OH255312   0.065   1.164   3.948  0.0972  0.3120  0.0973
11274TIP3    H155313   0.116   1.090   3.980  0.0239 -0.7140 -2.0898
11274TIP3    H255314   0.007   1.127   3.881 -1.4677  1.9649  0.4752
11275TIP3   OH255315   1.639   6.019  14.177 -0.0274 -0.1073 -0.7031
11275TIP3    H155316   1.578   5.949  14.155  0.6430 -0.7262 -0.5985
11275TIP3    H255317   1.717   5.974  14.207  1.7430  0.5893 -4.0236
11276TIP3   OH255318   4.334   4.244  16.199  0.2926  0.5087  0.2326
11276TIP3    H155319   4.407   4.255  16.137  0.3223  1.1281  0.3740
11276TIP3    H255320   4.319   4.150  16.202 -1.6716  0.6337 -3.0133
11277TIP3   OH255321   1.392   5.153   4.829  0.1330  0.3737 -0.4157
11277TIP3    H155322   1.347   5.235   4.809 -0.5698 -0.3386 -1.8088
11277TIP3    H255323   1.325   5.098   4.869 -0.0799 -0.4407 -1.8656
11278TIP3   OH255324   3.197   0.836  14.052  0.2717  0.1983  0.3592
11278TIP3    H155325   3.255   0.787  13.995  0.8669 -0.1643  1.2682
11278TIP3    H255326   3.136   0.881  13.992 -0.3440 -1.6934 -0.4735
11279TIP3   OH255327   5.160   1.323  15.188  0.6016 -0.5611  0.7640
11279TIP3    H155328   5.161   1.330  15.093 -1.2313  2.2914  0.8945
11279TIP3    H255329   5.122   1.237  15.206  1.9876 -1.5788 -1.0691
11280TIP3   OH255330   0.509   6.639  17.219  0.6199 -0.1963  0.4618
11280TIP3    H155331   0.475   6.622  17.131  0.5755 -2.5933  0.9221
11280TIP3    H255332   0.459   6.715  17.249  0.5146  0.5420 -1.5027
11281TIP3   OH255333   0.022   5.398  11.282 -0.4499 -0.2962 -0.0319
11281TIP3    H155334  -0.015   5.478  11.318  1.1653  0.2126  0.5050
11281TIP3    H255335   0.010   5.407  11.187  1.0599  1.2674 -0.0923
11282TIP3   OH255336   5.387   2.463  14.159 -0.2462  0.1318  0.1924
11282TIP3    H155337   5.345   2.456  14.244  0.0462 -0.1480  0.3124
11282TIP3    H255338   5.395   2.557  14.144 -0.2228  0.1790  0.5070
11283TIP3   OH255339   4.568   5.643   0.194  0.2063  0.2510 -1.0042
11283TIP3    H155340   4.656   5.670   0.223  0.3414  0.0437 -1.2287
11283TIP3    H255341   4.577   5.625   0.101  0.3044 -1.4053 -0.6782
11284TIP3   OH255342   6.449   4.602  12.482  0.1437  0.4768 -0.6847
11284TIP3    H155343   6.446   4.535  12.413  3.2983 -0.4444 -0.0170
11284TIP3    H255344   6.510   4.668  12.448 -1.0864  1.8400 -0.2910
11285TIP3   OH255345   4.036   6.299   3.532 -0.1830 -0.3172 -0.2213
11285TIP3    H155346   4.118   6.320   3.578 -1.4096  0.4118  1.7016
11285TIP3    H255347   4.034   6.204   3.527  1.2511 -0.3170 -1.1931
11286TIP3   OH255348   1.808   2.020  12.327 -0.0976 -0.2211 -0.6877
11286TIP3    H155349   1.751   2.041  12.401  0.1037 -4.2045  0.7099
11286TIP3    H255350   1.753   2.034  12.250 -1.2694  1.0788  0.3517
11287TIP3   OH255351   1.957   4.007   3.326 -0.0605  0.2177  0.5389
11287TIP3    H155352   1.892   4.072   3.352  0.1742  0.0938  1.4627
11287TIP3    H255353   2.030   4.059   3.292 -0.4681  0.3715 -0.1285
11288TIP3   OH255354   0.686   6.503  14.345 -0.5668 -0.0064  0.5037
11288TIP3    H155355   0.738   6.425  14.364 -2.9111 -1.8092 -0.2677
11288TIP3    H255356   0.710   6.565  14.413  0.8738 -1.6210  1.5046
11289TIP3   OH255357   5.409   0.642  12.605 -0.1428 -0.2855 -0.5925
11289TIP3    H155358   5.492   0.690  12.602 -0.6285  0.4837 -1.8592
11289TIP3    H255359   5.402   0.601  12.519 -1.8699  1.0420 -1.1261
11290TIP3   OH255360   2.065   0.952  15.096 -0.4959 -0.0483 -0.4616
11290TIP3    H155361   2.062   0.870  15.145  2.0758 -0.6660 -1.2455
11290TIP3    H255362   2.035   1.018  15.158 -1.1736 -1.3682  0.6513
11291TIP3   OH255363   3.759   0.294   1.779  0.5226 -1.0491  0.2828
11291TIP3    H155364   3.673   0.312   1.818 -0.0206 -0.3708 -1.1839
11291TIP3    H255365   3.817   0.359   1.818  0.3358 -1.3876  1.1373
11292TIP3   OH255366   5.399   2.017  11.997 -0.3300 -0.0975 -0.2894
11292TIP3    H155367   5.470   2.081  12.001  0.4799 -0.9820 -0.3496
11292TIP3    H255368   5.433   1.941  12.046 -1.9085  0.1309  1.2301
11293TIP3   OH255369   2.053   1.458   4.000  0.0175 -0.0733 -0.2169
11293TIP3    H155370   2.118   1.506   4.051  1.0033 -2.2480  0.6090
11293TIP3    H255371   2.103   1.398   3.945 -1.2266 -1.0475 -0.3292
11294TIP3   OH255372   5.786   0.836   5.020  0.0747  0.2031 -0.3770
11294TIP3    H155373   5.760   0.926   5.038  0.0589  0.1117  0.0478
11294TIP3    H255374   5.865   0.822   5.072  1.4287  0.7260 -2.2341
11295TIP3   OH255375   2.182   1.469   0.654 -0.2628 -0.6986 -0.3096
11295TIP3    H155376   2.164   1.379   0.680 -0.6741 -0.4470  0.2788
11295TIP3    H255377   2.233   1.505   0.726  0.1142 -0.5311 -0.6558
11296TIP3   OH255378   0.639   0.483   4.802  1.0986  0.1647 -0.2899
11296TIP3    H155379   0.648   0.390   4.781 -0.0318 -0.4354  1.7679
11296TIP3    H255380   0.552   0.490   4.842  0.8933  2.2325 -1.0387
11297TIP3   OH255381   4.726   2.149  10.913  0.2730 -0.1216 -0.0059
11297TIP3    H155382   4.664   2.175  10.981  0.5998  1.2819 -0.2399
11297TIP3    H255383   4.811   2.153  10.955  0.9274  4.5349 -1.4637
11298TIP3   OH255384   2.404   3.859  10.990  0.2801  0.0020  0.5871
11298TIP3    H155385   2.407   3.862  11.086 -1.5681  0.2586  0.6488
11298TIP3    H255386   2.314   3.833  10.969  1.1841 -1.9730 -1.0428
11299TIP3   OH255387   0.656   4.473   5.712  0.0727  0.3262 -0.0304
11299TIP3    H155388   0.656   4.462   5.807  0.4879  0.3971 -0.0228
11299TIP3    H255389   0.729   4.419   5.681  1.4842  2.2146 -0.0739
11300TIP3   OH255390   3.583   6.125  16.621  0.4500  0.0667  0.1765
11300TIP3    H155391   3.529   6.175  16.683  1.4323  1.1293  0.2039
11300TIP3    H255392   3.610   6.189  16.555 -1.0798 -1.1902 -1.7133
11301TIP3   OH255393   6.527   1.573  12.407  0.5629  0.2951 -0.1573
11301TIP3    H155394   6.466   1.628  12.358 -0.3064  0.2543  0.8529
11301TIP3    H255395   6.523   1.488  12.364 -2.1692 -0.4897  1.5149
11302TIP3   OH255396   0.211   3.409  14.712 -0.2983  0.4879  0.4737
11302TIP3    H155397   0.187   3.368  14.796  0.8990 -0.8619  0.1714
11302TIP3    H255398   0.235   3.335  14.656 -0.7865  1.4096 -0.9761
11303TIP3   OH255399   4.007   1.068   2.489 -0.1106 -0.2059  0.0122
11303TIP3    H155400   4.062   1.008   2.438 -0.3340  0.3803 -0.9286
11303TIP3    H255401   3.961   1.120   2.423  0.3399  1.2327  0.8142
11304TIP3   OH255402   4.434   0.843   1.690  0.1989 -0.3198  0.2876
11304TIP3    H155403   4.375   0.809   1.757 -0.8950  0.3252 -0.3412
11304TIP3    H255404   4.511   0.786   1.695 -0.5981 -1.3588  0.9051
11305TIP3   OH255405   3.509   0.785   2.609 -0.3248  0.1328 -0.4713
11305TIP3    H155406   3.534   0.725   2.539 -0.8400  0.9713 -1.3920
11305TIP3    H255407   3.592   0.815   2.646 -0.0532 -0.3920 -0.6483
11306TIP3   OH255408   4.873   1.954  13.439  0.3969  0.3535  1.1155
11306TIP3    H155409   4.827   2.019  13.387  0.2403 -0.5677  0.0930
11306TIP3    H255410   4.828   1.871  13.420  1.2976 -0.2434  1.5369
11307TIP3   OH255411   4.512   1.672  16.085  0.5512 -0.0045  0.1606
11307TIP3    H155412   4.605   1.684  16.104  0.6064 -1.4674  0.9037
11307TIP3    H255413   4.479   1.622  16.160 -0.4481 -1.0450 -0.9559
11308TIP3   OH255414   3.605   2.790  11.737 -0.1150 -0.2414 -0.2219
11308TIP3    H155415   3.574   2.789  11.646  0.6635  0.3276 -0.5010
11308TIP3    H255416   3.672   2.722  11.740 -0.6790 -0.7910  0.1302
11309TIP3   OH255417   3.709   1.416   1.233  0.5455 -0.1708 -0.0221
11309TIP3    H155418   3.751   1.500   1.253  0.0259  0.2942 -0.8362
11309TIP3    H255419   3.712   1.410   1.138  0.3810 -0.9757  0.0228
11310TIP3   OH255420   6.731   3.068  12.619 -0.8567  0.2857  0.1614
11310TIP3    H155421   6.795   3.012  12.576 -0.4014 -1.1371  2.5646
11310TIP3    H255422   6.652   3.015  12.625 -0.2388 -0.4165  3.0039
11311TIP3   OH255423   1.009   1.189   4.538 -0.1089  0.2872 -0.1747
11311TIP3    H155424   0.928   1.183   4.588 -0.1758  2.6592  0.0403
11311TIP3    H255425   1.006   1.276   4.498  2.6666  0.6658  0.3966
11312TIP3   OH255426   6.702   4.668  15.639 -0.1448 -0.3686 -0.0945
11312TIP3    H155427   6.615   4.709  15.640 -0.0055 -0.0480  2.5330
11312TIP3    H255428   6.685   4.574  15.635 -0.5626 -0.2413 -1.4760
11313TIP3   OH255429   2.170   0.210   2.973 -0.0095  0.1102  0.0125
11313TIP3    H155430   2.230   0.282   2.956 -0.7452  0.4012 -1.4330
11313TIP3    H255431   2.089   0.235   2.929 -0.8514 -0.7656  1.0398
11314TIP3   OH255432   1.904   3.629  10.819 -0.3135  0.0121 -0.2816
11314TIP3    H155433   1.895   3.584  10.734  0.2437 -1.4442  0.4183
11314TIP3    H255434   1.840   3.586  10.876 -0.9511  1.2416 -0.0460
11315TIP3   OH255435   5.038   5.953   4.262  0.4654 -0.3480 -0.2282
11315TIP3    H155436   5.089   5.960   4.181  1.8632  0.3488  0.6939
11315TIP3    H255437   5.101   5.970   4.332 -1.4730  2.8717  0.8507
11316TIP3   OH255438   2.667   5.565   5.312 -0.3220 -0.0135 -0.8662
11316TIP3    H155439   2.633   5.530   5.230  0.3810 -0.0548 -1.1380
11316TIP3    H255440   2.618   5.647   5.325  1.0674  1.0951 -2.4229
11317TIP3   OH255441   5.075   0.506   5.688 -0.2016  0.0007 -0.0407
11317TIP3    H155442   5.039   0.454   5.616  0.2956  0.9517 -0.9816
11317TIP3    H255443   5.117   0.580   5.646  2.5191 -0.8588  1.0384
11318TIP3   OH255444   0.902   2.268   4.176 -0.1300  0.1770  0.5778
11318TIP3    H155445   0.943   2.187   4.206  1.1442  1.2076  1.6918
11318TIP3    H255446   0.815   2.267   4.216 -1.7231 -2.5748 -2.7169
11319TIP3   OH255447   1.919   1.981   4.583  0.0401 -0.0594  0.3955
11319TIP3    H155448   2.001   2.027   4.566  1.6420 -3.3051 -0.9625
11319TIP3    H255449   1.861   2.008   4.511  0.3802  1.0952  0.5431
11320TIP3   OH255450   0.745   1.851   1.252  0.6290  0.0903  0.2449
11320TIP3    H155451   0.667   1.816   1.297  1.0751 -0.2782  0.7337
11320TIP3    H255452   0.816   1.792   1.278  0.6311 -0.9335 -2.0240
11321TIP3   OH255453   4.537   3.292   5.610  0.4580  0.0663  0.1636
11321TIP3    H155454   4.591   3.370   5.620 -1.1645  1.1262  0.8873
11321TIP3    H255455   4.463   3.321   5.557 -1.5021 -0.2676  2.6005
11322TIP3   OH255456   5.696   4.418   0.166 -0.3153  0.1145  0.1273
11322TIP3    H155457   5.657   4.482   0.106  1.7470  1.9161  0.6250
11322TIP3    H255458   5.622   4.387   0.219 -1.9586 -0.6397 -2.5381
11323TIP3   OH255459   0.169   5.845   6.421 -0.3027  0.7128 -0.2340
11323TIP3    H155460   0.229   5.882   6.486 -1.2360  0.8756  0.5562
11323TIP3    H255461   0.158   5.754   6.448 -0.9897  0.8833  0.0543
11324TIP3   OH255462   3.414   1.241  12.908 -0.0395 -0.6112  0.3020
11324TIP3    H155463   3.371   1.219  12.825  1.1930 -1.4568 -0.1201
11324TIP3    H255464   3.392   1.333  12.922  1.3897  0.1213 -2.0004
11325TIP3   OH255465   2.953   2.822  13.372 -0.4491 -0.0694  0.4790
11325TIP3    H155466   3.000   2.783  13.445 -0.9140 -2.6675 -0.5495
11325TIP3    H255467   2.875   2.861  13.412  0.4672  0.6015  1.6464
11326TIP3   OH255468   1.931   5.945  14.197 -0.1284 -0.5356  0.2625
11326TIP3    H155469   1.916   5.855  14.168  1.5840 -1.0720  0.9977
11326TIP3    H255470   2.015   5.969  14.158  0.4121  0.0108  1.7322
11327TIP3   OH255471   2.032   5.291   2.189  0.2514  0.2005  0.6805
11327TIP3    H155472   2.010   5.211   2.237  0.9645 -0.4428 -0.0642
11327TIP3    H255473   2.072   5.349   2.255  0.8965 -0.5400  0.9419
11328TIP3   OH255474   5.301   1.808   3.752 -0.2938  0.1973  0.4353
11328TIP3    H155475   5.231   1.870   3.771 -0.3333 -0.0514  1.1048
11328TIP3    H255476   5.373   1.862   3.720 -0.3899  0.5749  0.8541
11329TIP3   OH255477   0.224   5.547  16.406  0.1562  0.8433  0.6015
11329TIP3    H155478   0.271   5.470  16.437  0.6628  1.0614  0.3864
11329TIP3    H255479   0.284   5.620  16.421  1.6243  0.6303 -3.4818
11330TIP3   OH255480   1.431   6.148  13.812 -0.2672 -0.5925  0.2644
11330TIP3    H155481   1.338   6.156  13.834 -0.3952 -0.3832 -0.3272
11330TIP3    H255482   1.455   6.060  13.838 -0.4789 -0.4331  1.0006
11331TIP3   OH255483   4.437   2.710  16.376 -0.1297  0.0886 -0.7460
11331TIP3    H155484   4.391   2.774  16.431  1.4345 -0.4733  1.2615
11331TIP3    H255485   4.502   2.762  16.329  0.4564  0.1522  0.1168
11332TIP3   OH255486   6.144   4.627   3.805 -0.2473  0.1610 -0.1854
11332TIP3    H155487   6.056   4.644   3.838 -0.2138  2.7038 -1.2556
11332TIP3    H255488   6.191   4.710   3.818  1.3644 -0.5075 -1.5253
11333TIP3   OH255489   1.898   5.344  16.307  0.3386 -0.4522  0.1435
11333TIP3    H155490   1.949   5.268  16.276 -1.4555 -1.7641  0.3236
11333TIP3    H255491   1.817   5.306  16.341 -0.7666  1.5988 -0.1269
11334TIP3   OH255492   0.168   3.059   4.699 -0.0720 -0.1360  0.2651
11334TIP3    H155493   0.126   3.104   4.772  3.2870 -1.2056  2.9890
11334TIP3    H255494   0.183   2.970   4.730 -0.6153 -1.2865 -2.6035
11335TIP3   OH255495   0.953   3.517   2.049 -0.4469 -0.1162 -0.0305
11335TIP3    H155496   0.935   3.432   2.009 -0.1012  0.1526 -0.7726
11335TIP3    H255497   0.875   3.570   2.028 -1.2032 -0.6120  1.4764
11336TIP3   OH255498   0.619   0.523   4.130  0.1772 -0.2073 -0.4218
11336TIP3    H155499   0.574   0.560   4.206  0.3044 -0.5202 -0.1986
11336TIP3    H255500   0.575   0.440   4.114  2.1731 -1.6142  1.1903
11337TIP3   OH255501   6.023   2.600  14.859 -0.0063 -0.2598 -0.1190
11337TIP3    H155502   5.946   2.656  14.865 -0.5070 -1.1407  1.9406
11337TIP3    H255503   6.097   2.660  14.864 -0.5354  0.2037  2.4853
11338TIP3   OH255504   6.502   4.814   0.148  0.3128 -0.2663 -0.0694
11338TIP3    H155505   6.471   4.782   0.063 -1.6984  0.2969  0.4115
11338TIP3    H255506   6.458   4.898   0.159  0.6616 -0.2752  1.4685
11339TIP3   OH255507   2.947   4.441   0.945 -0.1300 -0.1156  0.0121
11339TIP3    H155508   2.865   4.442   0.896  0.4882  0.7912 -0.9995
11339TIP3    H255509   2.920   4.434   1.037 -1.3014 -0.8365 -0.3814
11340TIP3   OH255510   3.217   0.908   5.515  0.4608  0.1532 -0.7015
11340TIP3    H155511   3.214   0.814   5.536 -0.1079  0.3973  0.3276
11340TIP3    H255512   3.230   0.951   5.599  1.3601  0.9672 -1.2543
11341TIP3   OH255513   0.122   5.272   4.262  0.2601 -0.4652 -0.1961
11341TIP3    H155514   0.185   5.208   4.294  0.0361  0.3247  1.9382
11341TIP3    H255515   0.160   5.305   4.180  1.5087 -1.6082 -0.0910
11342TIP3   OH255516   5.307   0.073   0.577  0.6732  0.7652 -0.6626
11342TIP3    H155517   5.391   0.038   0.550 -0.3183 -1.1685 -1.3240
11342TIP3    H255518   5.290   0.145   0.516  0.7316 -0.3994 -2.0567
11343TIP3   OH255519   6.248   2.277   2.384  0.7178  0.1916  0.0636
11343TIP3    H155520   6.301   2.354   2.406  0.2424  0.9741 -1.4533
11343TIP3    H255521   6.311   2.216   2.344  0.8863  0.2041  0.3030
11344TIP3   OH255522   3.708   0.809  16.668  0.4537 -0.4580  0.1767
11344TIP3    H155523   3.725   0.749  16.595  2.2290 -0.1211  0.2847
11344TIP3    H255524   3.793   0.847  16.688 -0.2139  0.2904  1.7064
11345TIP3   OH255525   5.939   0.480   0.479  0.1806  0.3910  0.9571
11345TIP3    H155526   5.960   0.528   0.559  0.3790  0.2506  0.9894
11345TIP3    H255527   5.845   0.463   0.485  0.6659 -1.9392  2.4225
11346TIP3   OH255528   0.362   2.839   4.020  0.3182  0.0683  0.2548
11346TIP3    H155529   0.415   2.825   3.941 -1.4079 -0.2745 -0.8871
11346TIP3    H255530   0.391   2.923   4.054  1.6474 -0.1563 -0.3135
11347TIP3   OH255531   4.977   3.816  15.193 -0.3939  0.4620  0.2029
11347TIP3    H155532   4.948   3.874  15.263 -2.5394 -0.4777  0.1492
11347TIP3    H255533   5.046   3.763  15.232  0.6575  2.1231  0.6367
11348TIP3   OH255534   1.648   1.945  14.731 -0.0420 -0.1846 -0.7648
11348TIP3    H155535   1.699   1.894  14.793  1.2678  0.3792 -1.3656
11348TIP3    H255536   1.657   2.036  14.760 -0.4093 -0.0466 -1.0730
11349TIP3   OH255537   5.223   5.044  14.439  0.5319  0.0506  0.0410
11349TIP3    H155538   5.298   4.992  14.467 -0.2758  0.2116  2.5433
11349TIP3    H255539   5.261   5.114  14.386  1.8678 -1.4440 -1.0447
11350TIP3   OH255540   1.673   5.602  13.844 -0.3536 -0.6640  0.2519
11350TIP3    H155541   1.682   5.547  13.921 -1.0495  0.2806  1.0266
11350TIP3    H255542   1.580   5.625  13.842 -0.4315 -1.0502 -1.1253
11351TIP3   OH255543   6.513   4.908  15.143  0.6772  0.0697  0.2252
11351TIP3    H155544   6.419   4.915  15.163  1.2455  2.2766  2.2943
11351TIP3    H255545   6.542   4.831  15.192  0.4951  0.9997  1.8239
11352TIP3   OH255546   2.998   5.340   0.809 -0.7135  0.1239 -0.3084
11352TIP3    H155547   3.028   5.421   0.852 -0.1480 -0.8348  1.1600
11352TIP3    H255548   2.904   5.337   0.826 -0.5278 -0.1502  0.7572
11353TIP3   OH255549   0.396   0.495  15.355 -0.0884 -0.0308  0.0024
11353TIP3    H155550   0.446   0.424  15.313 -1.1870  0.1812 -1.7033
11353TIP3    H255551   0.311   0.493  15.313 -0.8203  1.0163  1.3843
11354TIP3   OH255552   2.070   0.047   1.468  0.1566  0.2857 -0.2120
11354TIP3    H155553   2.115   0.113   1.416  0.5690 -0.0071 -0.2325
11354TIP3    H255554   2.053   0.090   1.552 -2.7758  1.5933 -1.4390
11355TIP3   OH255555   3.885   5.668  15.756 -0.2343 -0.2004 -0.0582
11355TIP3    H155556   3.905   5.636  15.844  0.7055  0.2208 -0.1146
11355TIP3    H255557   3.930   5.752  15.750 -0.2361 -0.2556 -0.9593
11356TIP3   OH255558   2.010   1.247  14.788  0.4070 -0.4223  0.0265
11356TIP3    H155559   1.924   1.288  14.799 -0.2498 -1.7286 -0.1130
11356TIP3    H255560   2.073   1.313  14.817 -0.6993  0.1769  1.0840
11357TIP3   OH255561   4.870   2.067   4.778  0.8073 -0.4345  0.3485
11357TIP3    H155562   4.820   2.010   4.837 -0.2216 -0.4704 -0.5552
11357TIP3    H255563   4.862   2.026   4.692  1.2310  0.3206 -0.0564
11358TIP3   OH255564   5.037   5.206   2.163  0.0322  0.0119  0.6632
11358TIP3    H155565   5.002   5.130   2.209  1.7615 -0.1865  1.6608
11358TIP3    H255566   4.986   5.210   2.082 -1.1164 -1.2845  1.3079
11359TIP3   OH255567   6.526   0.728  16.272  0.1174  0.2743  0.1154
11359TIP3    H155568   6.615   0.764  16.276  0.3308  0.0065 -1.9941
11359TIP3    H255569   6.470   0.803  16.293  0.7927  0.6524  0.5956
11360TIP3   OH255570   6.217   0.446  16.169 -0.5920  0.0242  0.2155
11360TIP3    H155571   6.162   0.463  16.093 -0.9251  1.0868  0.6922
11360TIP3    H255572   6.165   0.387  16.224 -0.5309 -0.3818 -0.1531
11361TIP3   OH255573   2.848   3.946   0.118 -0.0290  0.2003 -0.9113
11361TIP3    H155574   2.882   3.934   0.030 -2.4425  0.1228 -1.8572
11361TIP3    H255575   2.790   3.871   0.132  0.5262  0.0700  0.8546
11362TIP3   OH255576   6.434   1.818   2.117  0.2868  0.4143 -0.6468
11362TIP3    H155577   6.445   1.913   2.125 -0.7282  0.5039 -0.2449
11362TIP3    H255578   6.438   1.786   2.207  4.2136 -0.3653 -0.9902
11363TIP3   OH255579   2.117   0.067   4.977  0.1481 -0.9988 -0.2562
11363TIP3    H155580   2.066   0.091   5.055  0.5577 -1.1494  0.0591
11363TIP3    H255581   2.207   0.090   5.000  0.5295 -2.6883 -0.0035
11364TIP3   OH255582   2.135   5.197  12.715  0.1742  0.3686 -0.1779
11364TIP3    H155583   2.154   5.251  12.792 -0.3638  0.5117 -0.1465
11364TIP3    H255584   2.125   5.109  12.751  0.2545  0.3783 -0.1298
11365TIP3   OH255585   5.426   3.375   4.399 -0.1280  0.1494 -0.1132
11365TIP3    H155586   5.462   3.305   4.344  0.2879  0.6964 -0.5384
11365TIP3    H255587   5.336   3.385   4.369  0.9944  2.6018 -2.8707
11366TIP3   OH255588   4.863   1.409   3.277 -0.7291 -0.0859  0.9069
11366TIP3    H155589   4.870   1.485   3.220  0.6222  0.1384  1.3442
11366TIP3    H255590   4.836   1.444   3.362  0.9021  0.0680  1.3918
11367TIP3   OH255591   3.452   1.242   1.283  0.1040  0.5194 -0.9849
11367TIP3    H155592   3.451   1.222   1.189 -1.3622 -1.2920 -0.6078
11367TIP3    H255593   3.454   1.337   1.287  1.0582  0.6019 -2.8567
11368TIP3   OH255594   0.338   6.688   4.092  0.5131 -0.5281 -0.3174
11368TIP3    H155595   0.384   6.604   4.094 -0.7703 -1.2710 -1.3860
11368TIP3    H255596   0.248   6.666   4.071 -0.1406  1.0111  0.7708
11369TIP3   OH255597   1.200   1.333   2.458 -0.0259 -0.3163  0.6061
11369TIP3    H155598   1.116   1.301   2.428 -0.8649  2.7293 -0.5319
11369TIP3    H255599   1.265   1.281   2.411 -1.2822 -0.9504 -0.4406
11370TIP3   OH255600   5.225   2.726  12.187 -0.6553  0.1618 -0.0309
11370TIP3    H155601   5.239   2.677  12.268 -1.4629 -0.0324 -0.0033
11370TIP3    H255602   5.130   2.727  12.175 -0.5851  0.7973 -0.6025
11371TIP3   OH255603   6.702   3.402  15.914 -0.2332 -0.0805  0.0405
11371TIP3    H155604   6.693   3.319  15.868  2.0445  0.4564 -1.4746
11371TIP3    H255605   6.765   3.384  15.984  0.9404  0.5412 -0.8316
11372TIP3   OH255606   4.279   6.347   3.694 -0.0646 -0.0626  0.2964
11372TIP3    H155607   4.300   6.440   3.688  0.4005 -0.0590  1.7973
11372TIP3    H255608   4.354   6.309   3.740 -1.7261 -0.6198  2.6439
11373TIP3   OH255609   6.422   1.507   4.504  0.0838  0.2468  0.2375
11373TIP3    H155610   6.395   1.593   4.534 -1.1835 -0.0432 -0.0383
11373TIP3    H255611   6.516   1.504   4.519 -0.1376  1.0402  1.8216
11374TIP3   OH255612   1.241   2.325  15.556  0.6426 -0.3921 -0.2779
11374TIP3    H155613   1.235   2.419  15.537  0.4248  0.1199  2.1867
11374TIP3    H255614   1.198   2.283  15.481  1.8631  1.3950 -2.0374
11375TIP3   OH255615   0.642   3.764  16.407 -0.4537 -0.5239 -0.7095
11375TIP3    H155616   0.557   3.718  16.406 -0.4615 -0.4749 -2.6460
11375TIP3    H255617   0.691   3.725  16.335  0.3283  1.0438 -1.0294
11376TIP3   OH255618   6.752   3.119   1.711  0.0597 -0.4297  0.1031
11376TIP3    H155619   6.763   3.157   1.798  1.8349 -1.0348  0.1824
11376TIP3    H255620   6.744   3.194   1.653 -0.9214 -0.0174  0.7539
11377TIP3   OH255621   1.067   3.974  10.895  0.6472  0.6626  0.2827
11377TIP3    H155622   1.044   4.067  10.892  2.5710  1.1911  0.8061
11377TIP3    H255623   1.095   3.959  10.985  1.4525 -0.1437 -0.0897
11378TIP3   OH255624   2.909   3.588  11.726 -0.5800  0.7519  0.0293
11378TIP3    H155625   2.946   3.568  11.812 -0.9245  0.3658  0.0853
11378TIP3    H255626   2.818   3.612  11.743 -0.5444  1.0438 -0.1858
11379TIP3   OH255627   5.825   1.582  14.486  0.5942  0.4255 -0.0027
11379TIP3    H155628   5.892   1.573  14.418 -1.0819  2.7334 -2.0583
11379TIP3    H255629   5.833   1.672  14.516 -0.1770  0.0784  1.2824
11380TIP3   OH255630   3.387   1.899  12.454  0.0026  0.3233 -0.2617
11380TIP3    H155631   3.362   1.874  12.543  0.2851 -0.5130 -0.4084
11380TIP3    H255632   3.449   1.971  12.466 -1.0060  1.1223  0.1695
11381TIP3   OH255633   1.779   0.168   1.741  0.3000  0.1858  0.3161
11381TIP3    H155634   1.869   0.172   1.709 -0.1869 -1.3024 -1.3009
11381TIP3    H255635   1.788   0.157   1.836  1.7886  1.5453  0.3451
11382TIP3   OH255636   5.217   3.432  13.662 -0.1985  0.2985 -0.2946
11382TIP3    H155637   5.177   3.519  13.668 -0.1199  0.3244 -0.1384
11382TIP3    H255638   5.204   3.393  13.748  1.7049  1.0030  0.3228
11383TIP3   OH255639   6.069   2.687  13.585 -0.1746 -0.1463 -0.3136
11383TIP3    H155640   6.162   2.709  13.590  0.0475 -0.6327 -2.1010
11383TIP3    H255641   6.062   2.605  13.635  0.8705 -1.5806 -2.4389
11384TIP3   OH255642   0.271   3.285  13.594 -0.3471 -0.1829  0.1575
11384TIP3    H155643   0.292   3.377  13.608  0.0577  0.0324 -1.7268
11384TIP3    H255644   0.351   3.238  13.617 -0.0789  0.0621 -0.2767
11385TIP3   OH255645   6.119   5.838  10.728 -0.3164 -0.0038 -0.5976
11385TIP3    H155646   6.184   5.768  10.718  0.1673  0.3443  0.0802
11385TIP3    H255647   6.150   5.889  10.803  0.2088  1.8795 -2.0566
11386TIP3   OH255648   3.601   0.122   3.394 -0.5376  0.2338 -0.4358
11386TIP3    H155649   3.601   0.215   3.372 -2.2761  0.0939 -1.1518
11386TIP3    H255650   3.512   0.106   3.427  0.0092 -0.9921  0.4635
11387TIP3   OH255651   2.347   4.936  11.404 -0.0096 -0.2116 -0.3231
11387TIP3    H155652   2.294   4.882  11.464 -0.1083 -0.9280 -1.0561
11387TIP3    H255653   2.429   4.950  11.452  0.3880 -1.7961 -0.5000
11388TIP3   OH255654   4.509   6.167  17.202 -0.5744 -0.3953 -0.4342
11388TIP3    H155655   4.420   6.135  17.217 -0.5805 -0.5306 -0.7572
11388TIP3    H255656   4.562   6.120  17.266 -0.6071 -0.9506 -0.8047
11389TIP3   OH255657   4.041   1.329   2.862 -0.4551 -0.1504  0.5552
11389TIP3    H155658   4.095   1.324   2.940 -0.2752  0.6015  0.4886
11389TIP3    H255659   3.972   1.392   2.884 -1.5292 -1.3725  0.7697
11390TIP3   OH255660   2.924   2.456   3.308  0.4802  0.4267  0.9012
11390TIP3    H155661   2.896   2.373   3.345  0.6739  0.1620  0.4568
11390TIP3    H255662   2.975   2.498   3.378  1.6971 -0.5143  0.5906
11391TIP3   OH255663   5.247   5.701   1.576 -0.0336 -0.4274  0.4207
11391TIP3    H155664   5.194   5.705   1.496  1.4623 -0.1295 -0.5746
11391TIP3    H255665   5.259   5.608   1.592 -1.2062 -0.5076  0.8990
11392TIP3   OH255666   0.595   4.628   1.744  0.0262  0.5344  0.3440
11392TIP3    H155667   0.658   4.612   1.674 -2.2062  0.3132 -1.6706
11392TIP3    H255668   0.588   4.724   1.747  0.9054  0.5834  0.9977
11393TIP3   OH255669   2.378   1.940  15.250 -0.3319  0.5366  0.2987
11393TIP3    H155670   2.425   1.865  15.286 -0.2205  0.3117 -0.3070
11393TIP3    H255671   2.445   2.008  15.241 -0.4479  0.7344  0.9157
11394TIP3   OH255672   6.576   4.985  16.512  0.8173  0.7020 -0.2964
11394TIP3    H155673   6.519   5.033  16.572  1.4071  1.4285 -0.3072
11394TIP3    H255674   6.623   4.924  16.569  1.1547  1.1801 -0.0558
11395TIP3   OH255675   6.469   2.017   4.323  0.6002 -0.7476  0.1882
11395TIP3    H155676   6.542   2.032   4.383  1.4343  1.5592 -1.3440
11395TIP3    H255677   6.401   2.078   4.351  0.4309 -0.7225 -0.2660
11396TIP3   OH255678   0.050   0.409   1.969  0.3594 -0.9353  0.2948
11396TIP3    H155679   0.060   0.319   1.939 -1.4211 -1.0633  0.0067
11396TIP3    H255680  -0.028   0.441   1.924 -0.9230 -0.3095  2.8089
11397TIP3   OH255681   4.004   4.234  14.633 -0.8002  0.1198 -0.3358
11397TIP3    H155682   3.998   4.323  14.669  0.5931  0.2574 -0.4358
11397TIP3    H255683   3.934   4.231  14.567 -1.2991  0.9162  0.1511
11398TIP3   OH255684   2.248   4.074   2.160 -0.0801  0.0390  0.1389
11398TIP3    H155685   2.171   4.043   2.112  0.8669 -1.3876 -0.5097
11398TIP3    H255686   2.292   4.134   2.100 -0.3256  0.3202  0.2424
11399TIP3   OH255687   6.192   6.707  17.236 -0.0676  0.2851 -0.0672
11399TIP3    H155688   6.137   6.649  17.182 -0.7907 -0.1308  1.0894
11399TIP3    H255689   6.129   6.762  17.284  0.5818  1.1060 -0.1453
11400TIP3   OH255690   0.718   3.211   6.374  0.0414  0.3087  0.4905
11400TIP3    H155691   0.639   3.239   6.419  0.0270 -0.1458  0.7545
11400TIP3    H255692   0.687   3.152   6.305 -0.0060  1.6886 -0.6795
11401TIP3   OH255693   2.945   2.744  12.573 -0.1527  0.0838 -0.1878
11401TIP3    H155694   2.902   2.720  12.492 -0.8931 -1.4454  0.6377
11401TIP3    H255695   2.874   2.768  12.633  0.2620 -0.4152  0.5221
11402TIP3   OH255696   3.688   4.849  14.419 -0.0855 -0.4226  0.5549
11402TIP3    H155697   3.749   4.800  14.473  2.3449  1.1665 -0.6568
11402TIP3    H255698   3.668   4.791  14.345  1.3350 -0.2960  0.0676
11403TIP3   OH255699   5.347   5.634  15.357 -0.0648 -0.3140 -0.1740
11403TIP3    H155700   5.298   5.624  15.439  0.1826  2.4813  0.3507
11403TIP3    H255701   5.413   5.564  15.360 -1.2484 -1.4045  1.1074
11404TIP3   OH255702   4.026   1.929  16.399 -0.6255 -0.3170 -0.1808
11404TIP3    H155703   4.116   1.934  16.433 -0.4174  0.6276 -0.8615
11404TIP3    H255704   4.037   1.922  16.304 -1.2918  0.7345 -0.3408
11405TIP3   OH255705   2.296   0.132   2.737  0.4370 -0.3313 -0.1338
11405TIP3    H155706   2.209   0.115   2.701  1.1798 -1.7102 -1.3321
11405TIP3    H255707   2.280   0.149   2.830 -1.2503  0.7853 -0.6026
11406TIP3   OH255708   1.235   1.813  16.785 -0.2662 -0.0954  0.7698
11406TIP3    H155709   1.304   1.866  16.745 -0.3530 -1.3173 -1.0343
11406TIP3    H255710   1.202   1.868  16.857  0.3375  1.8735 -0.4084
11407TIP3   OH255711   6.099   4.913   2.648 -0.9048  0.2155 -0.4078
11407TIP3    H155712   6.072   4.997   2.684  0.1037  0.6250 -0.5780
11407TIP3    H255713   6.126   4.861   2.724  0.8033  0.9230 -0.5005
11408TIP3   OH255714   3.090   1.657   2.462 -0.7740 -0.4009  0.5440
11408TIP3    H155715   3.005   1.698   2.480 -0.9905 -0.9009  0.6685
11408TIP3    H255716   3.099   1.589   2.529 -0.8451 -1.1820 -0.2264
11409TIP3   OH255717   1.660   3.000   2.945 -0.0160  0.1728  0.9102
11409TIP3    H155718   1.636   3.080   2.992 -1.3766 -0.3925  1.1882
11409TIP3    H255719   1.576   2.961   2.921  0.6219 -1.6698  1.6291
11410TIP3   OH255720   0.242   0.355  13.864  0.1985  0.2105  0.5603
11410TIP3    H155721   0.311   0.321  13.808 -0.6748 -0.9392  0.1737
11410TIP3    H255722   0.183   0.402  13.805  1.5225  2.6650  1.1201
11411TIP3   OH255723   1.344   1.352   6.713  0.1481  0.7974  0.3520
11411TIP3    H155724   1.291   1.430   6.730  0.9563  1.8635 -1.8361
11411TIP3    H255725   1.429   1.386   6.686  0.2598 -0.8095 -1.4501
11412TIP3   OH255726   0.352   4.858  11.566  0.2804  0.3725 -1.0581
11412TIP3    H155727   0.334   4.893  11.479  4.1539 -0.2107 -2.1892
11412TIP3    H255728   0.342   4.933  11.625  0.9750  1.5866 -2.4581
11413TIP3   OH255729   4.253   5.705   4.371 -0.3295  0.1248 -0.5640
11413TIP3    H155730   4.264   5.740   4.282 -2.8531  3.3427  0.2966
11413TIP3    H255731   4.326   5.740   4.420 -0.7159  1.0428 -0.6333
11414TIP3   OH255732   2.994   0.958  15.852  0.4871 -0.0755 -0.2748
11414TIP3    H155733   2.964   0.890  15.913  1.1778  0.5574  0.7711
11414TIP3    H255734   3.033   1.025  15.908 -1.2647  1.7535 -1.2234
11415TIP3   OH255735   5.633   4.227  12.662 -0.4064 -0.5262 -0.6407
11415TIP3    H155736   5.636   4.297  12.597 -1.5181 -0.5976 -0.7909
11415TIP3    H255737   5.545   4.189  12.651  0.5808 -2.6752 -1.3435
11416TIP3   OH255738   4.862   0.137  12.200  0.2603  0.0890  0.5419
11416TIP3    H155739   4.840   0.220  12.241 -0.3588 -0.3007  1.0165
11416TIP3    H255740   4.954   0.145  12.175 -0.3336  1.6558 -1.2303
11417TIP3   OH255741   1.520   0.586   4.878  0.5441 -0.1245  0.0540
11417TIP3    H155742   1.548   0.677   4.888 -1.8056  0.4153  2.5157
11417TIP3    H255743   1.592   0.535   4.916  1.3078  0.7767 -0.1488
11418TIP3   OH255744   6.397   4.363  12.798  0.1482 -0.2322 -0.1640
11418TIP3    H155745   6.334   4.339  12.729  0.2357 -1.1351  0.0542
11418TIP3    H255746   6.477   4.317  12.773  0.0971 -0.7991  0.6823
11419TIP3   OH255747   0.897   3.729   1.372 -0.0064 -0.0495  0.0081
11419TIP3    H155748   0.810   3.731   1.333  0.3806  0.9255 -0.8281
11419TIP3    H255749   0.951   3.682   1.308  0.0563 -0.7739  0.5854
11420TIP3   OH255750   2.618   4.528   2.606 -0.0315  0.1908  0.5571
11420TIP3    H155751   2.561   4.569   2.671  1.3644 -0.9498  2.5172
11420TIP3    H255752   2.607   4.434   2.620 -2.2058 -0.1998 -3.0465
11421TIP3   OH255753   0.141   4.598   5.006  0.7252  0.1687  0.2511
11421TIP3    H155754   0.172   4.641   5.086 -0.6958 -0.5114  1.1868
11421TIP3    H255755   0.078   4.660   4.968 -0.8614 -0.7918  1.2728
11422TIP3   OH255756   4.402   0.626   4.489  0.5608 -0.7899  0.0335
11422TIP3    H155757   4.379   0.655   4.577  1.0494 -2.0453  0.5888
11422TIP3    H255758   4.344   0.552   4.472 -0.4867  0.2983 -1.2587
11423TIP3   OH255759   5.506   2.883   3.383 -0.1718  0.0702 -0.1626
11423TIP3    H155760   5.570   2.929   3.437 -0.8205 -0.9536  1.5295
11423TIP3    H255761   5.489   2.801   3.430 -4.9654  1.5783  1.0303
11424TIP3   OH255762   4.806   5.178   5.147  0.4485  0.7984 -0.0329
11424TIP3    H155763   4.841   5.128   5.074 -1.6181 -0.8357  0.0544
11424TIP3    H255764   4.876   5.177   5.212  1.5913  0.6594 -1.2421
11425TIP3   OH255765   3.955   6.031  13.147 -0.3724 -0.2327 -0.0095
11425TIP3    H155766   3.896   6.044  13.072  2.5775 -0.9044 -2.5649
11425TIP3    H255767   4.040   6.013  13.107  1.2274 -0.9498  3.5562
11426TIP3   OH255768   1.669   0.979  15.670  0.1563 -0.0136 -0.6925
11426TIP3    H155769   1.619   0.916  15.721  0.6790  0.6023  0.6008
11426TIP3    H255770   1.759   0.944  15.671  0.1169 -0.1521 -1.4533
11427TIP3   OH255771   4.869   0.108   5.917 -0.6122  0.0747 -0.3277
11427TIP3    H155772   4.785   0.097   5.873 -0.4609  0.2654 -0.6678
11427TIP3    H255773   4.846   0.141   6.004 -0.8643  0.6341 -0.6026
11428TIP3   OH255774   6.363   5.716   4.431 -0.0611  0.0062  0.2312
11428TIP3    H155775   6.287   5.709   4.489 -1.5006  2.9432 -1.1661
11428TIP3    H255776   6.332   5.683   4.347  0.3041  0.7896 -0.2224
11429TIP3   OH255777   0.923   1.653   1.631  0.1704 -0.2912  0.6020
11429TIP3    H155778   0.947   1.561   1.621 -0.8006 -0.4325 -0.6674
11429TIP3    H255779   0.914   1.666   1.725 -1.2022 -1.9164  0.7269
11430TIP3   OH255780   2.620   0.047   5.119 -0.1018 -0.1544  0.3052
11430TIP3    H155781   2.680   0.029   5.046  1.8073  2.0733  1.2635
11430TIP3    H255782   2.565  -0.031   5.124  0.4706 -0.8344 -2.7791
11431TIP3   OH255783   3.726   5.934   6.743  0.0886 -0.3338 -0.2626
11431TIP3    H155784   3.683   5.965   6.662 -1.0871 -0.3081  0.3576
11431TIP3    H255785   3.719   5.839   6.738  1.3366 -0.4071 -0.8879
11432TIP3   OH255786   3.819   5.560   2.112  0.5736 -0.3113 -0.6616
11432TIP3    H155787   3.845   5.549   2.020 -0.8311 -0.2872 -1.0801
11432TIP3    H255788   3.834   5.653   2.130 -0.2360 -0.0520 -1.2416
11433TIP3   OH255789   5.726   5.866   4.177 -0.4404  0.7858  0.3466
11433TIP3    H155790   5.753   5.852   4.268 -0.4936  0.8159  0.3669
11433TIP3    H255791   5.770   5.797   4.128  0.0249  1.0984  0.3194
11434TIP3   OH255792   4.925   0.623  16.940  0.1125 -0.1220  0.7531
11434TIP3    H155793   4.937   0.631  17.035 -0.5976  1.5404  0.7146
11434TIP3    H255794   5.011   0.595  16.908  0.2984 -0.9189  1.8990
11435TIP3   OH255795   3.621   5.490   0.936  0.3684  0.9574 -0.2131
11435TIP3    H155796   3.550   5.551   0.920  0.3180  0.5566 -1.6189
11435TIP3    H255797   3.677   5.497   0.858  0.7193 -0.2732 -0.0919
11436TIP3   OH255798   2.581   2.596  11.361  0.1153 -0.2308  0.2016
11436TIP3    H155799   2.576   2.562  11.451  1.0643 -1.2451 -0.1131
11436TIP3    H255800   2.512   2.662  11.357 -0.9166 -1.2045  1.2422
11437TIP3   OH255801   1.979   1.097   5.655 -0.5891  0.1358 -0.1834
11437TIP3    H155802   1.966   1.004   5.637 -2.1968  0.1428  0.9347
11437TIP3    H255803   1.962   1.107   5.748  3.4505  0.8936  0.6025
11438TIP3   OH255804   1.275   2.886   1.385 -0.2537  0.0807 -0.1705
11438TIP3    H155805   1.263   2.977   1.410  1.2989 -0.1333  1.5307
11438TIP3    H255806   1.369   2.870   1.395 -0.3907 -1.5286 -1.0889
11439TIP3   OH255807   4.140   0.321  13.133  0.0647  0.0241 -0.4334
11439TIP3    H155808   4.222   0.275  13.115  0.5712  0.7054  0.0520
11439TIP3    H255809   4.169   0.407  13.165 -0.7979 -0.5962  2.1169
11440TIP3   OH255810   4.674   5.388   1.556  0.2296  0.7222 -0.1761
11440TIP3    H155811   4.594   5.376   1.505 -0.5245 -1.2796  1.4151
11440TIP3    H255812   4.648   5.442   1.630  0.4152  0.3698  0.1534
11441TIP3   OH255813   0.501   4.163  11.216  0.6837  0.5559  0.5167
11441TIP3    H155814   0.438   4.154  11.146 -0.2312  1.1216  1.2630
11441TIP3    H255815   0.547   4.079  11.217  1.2041  0.8006 -1.2153
11442TIP3   OH255816   0.402   1.757  12.108  0.5403  0.4330 -0.4488
11442TIP3    H155817   0.425   1.749  12.201 -0.4212 -0.3171 -0.2616
11442TIP3    H255818   0.429   1.673  12.071  0.6913  0.6373 -0.7943
11443TIP3   OH255819   0.122   2.534  16.956 -0.4669 -0.0621  0.0050
11443TIP3    H155820   0.079   2.520  16.872 -0.6518  0.0380  0.0841
11443TIP3    H255821   0.129   2.629  16.964  0.3322 -0.0904 -0.2934
11444TIP3   OH255822   0.691   2.450  12.927 -0.1190 -0.3534 -0.2813
11444TIP3    H155823   0.685   2.362  12.965 -1.8435  0.2031  0.7574
11444TIP3    H255824   0.636   2.505  12.983  2.7515  1.8843  0.4947
11445TIP3   OH255825   3.287   6.548  14.344 -0.6867 -0.1229  0.0495
11445TIP3    H155826   3.355   6.613  14.326 -0.7840  0.4717  1.7365
11445TIP3    H255827   3.320   6.468  14.304  1.1178  0.1020  1.0255
11446TIP3   OH255828   4.434   4.721   4.986 -0.5848 -0.3997  0.5403
11446TIP3    H155829   4.427   4.801   5.039 -0.9644 -0.0926  0.0301
11446TIP3    H255830   4.522   4.725   4.948 -0.9130  0.2165 -0.1752
11447TIP3   OH255831   2.038   0.053   5.491 -0.3505 -0.1026  0.1702
11447TIP3    H155832   2.126   0.046   5.529 -0.3551  0.5860  0.3262
11447TIP3    H255833   1.993  -0.027   5.519  0.5354 -0.9295 -0.7396
11448TIP3   OH255834   5.725   2.974   2.515  0.5616 -0.2652  0.3321
11448TIP3    H155835   5.685   3.056   2.484  0.2247 -0.6715 -0.3103
11448TIP3    H255836   5.675   2.952   2.593 -0.0413 -0.4107 -0.0876
11449TIP3   OH255837   5.154   2.977  13.242  0.7594  0.0996 -0.0256
11449TIP3    H155838   5.135   3.008  13.154  0.5117  1.4074  0.4779
11449TIP3    H255839   5.226   2.915  13.230 -1.1219 -1.8917 -1.4667
11450TIP3   OH255840   4.804   6.294   1.462 -0.3028 -0.5476  0.0914
11450TIP3    H155841   4.848   6.210   1.458  0.7787  0.0478 -0.7578
11450TIP3    H255842   4.752   6.298   1.381  0.0360 -0.2022 -0.1139
11451TIP3   OH255843   6.123   0.279   0.519 -0.4487 -0.5934 -0.3121
11451TIP3    H155844   6.145   0.258   0.428 -0.1012 -0.1910 -0.3209
11451TIP3    H255845   6.040   0.327   0.512  0.0239  0.1918 -0.4823
11452TIP3   OH255846   6.353   3.617   4.905  0.0140  0.2301  1.0044
11452TIP3    H155847   6.400   3.554   4.959  0.2688 -0.2662  0.2127
11452TIP3    H255848   6.261   3.604   4.926 -0.0241 -1.2014  0.0147
11453TIP3   OH255849   5.791   5.689   6.844  0.6641 -0.4206  0.2613
11453TIP3    H155850   5.801   5.776   6.806  0.1436 -0.3396  0.3053
11453TIP3    H255851   5.851   5.634   6.794  1.3097  0.0470  0.5173
11454TIP3   OH255852   2.757   2.066   5.375  0.2316 -0.1518 -0.2660
11454TIP3    H155853   2.780   2.158   5.360  0.7078 -0.1315  0.5634
11454TIP3    H255854   2.772   2.024   5.291  1.5595  0.2246 -0.2361
11455TIP3   OH255855   3.713   3.008   0.255  0.1685  0.3307  0.5420
11455TIP3    H155856   3.628   3.014   0.299 -1.0337 -1.1458 -1.4355
11455TIP3    H255857   3.773   3.058   0.310 -1.8983  1.0608  2.2019
11456TIP3   OH255858   2.085   2.642  16.233  0.4287  0.0494 -0.0618
11456TIP3    H155859   2.162   2.681  16.193  0.5300  0.5244  0.5807
11456TIP3    H255860   2.078   2.556  16.192  1.7998 -0.3415  0.4814
11457TIP3   OH255861   5.914   6.283  11.716  0.1047  0.0929  0.1443
11457TIP3    H155862   5.948   6.362  11.758 -1.4851 -0.2335  2.1294
11457TIP3    H255863   5.847   6.315  11.655 -1.4780  0.2439  1.9057
11458TIP3   OH255864   6.038   6.020  14.763 -0.4895 -0.4949  0.4671
11458TIP3    H155865   5.998   6.019  14.676  2.2454  1.2102 -0.8709
11458TIP3    H255866   5.995   6.093  14.808 -1.7020 -1.2004  0.4958
11459TIP3   OH255867   5.526   2.845  14.233  0.1463 -0.1888 -0.6635
11459TIP3    H155868   5.494   2.829  14.322 -1.0751 -0.0571 -1.0736
11459TIP3    H255869   5.622   2.845  14.242  0.0468 -0.7536  0.5479
11460TIP3   OH255870   0.880   3.382   5.736 -0.5458  0.5009  0.2493
11460TIP3    H155871   0.957   3.367   5.682 -0.5885  0.9710  0.0534
11460TIP3    H255872   0.856   3.296   5.769 -0.1219  0.3103  0.0588
11461TIP3   OH255873   4.112   0.807   1.004  0.1041 -0.4075 -0.2274
11461TIP3    H155874   4.104   0.877   1.069 -0.1274 -0.6815  0.0434
11461TIP3    H255875   4.045   0.827   0.938  0.2602 -0.1941 -0.3199
11462TIP3   OH255876   1.698   2.913   3.620 -0.8441 -0.0191  0.2554
11462TIP3    H155877   1.741   2.997   3.606 -1.3210 -0.2030 -2.6254
11462TIP3    H255878   1.665   2.918   3.709  3.4543  0.8644  1.9208
11463TIP3   OH255879   0.020   3.089  14.843 -0.0865 -0.1688 -0.2414
11463TIP3    H155880  -0.034   3.047  14.911 -2.1308 -1.2684 -2.4699
11463TIP3    H255881   0.051   3.169  14.884 -0.9691 -0.9860  2.1322
11464TIP3   OH255882   6.415   4.653  10.589  0.0098 -1.0202  0.0823
11464TIP3    H155883   6.389   4.561  10.579  0.4856 -1.3201  1.5363
11464TIP3    H255884   6.333   4.701  10.582 -0.3898 -1.6406  0.4508
11465TIP3   OH255885   4.453   1.382  15.082 -0.4319  0.3875 -0.2149
11465TIP3    H155886   4.527   1.358  15.137  0.3323 -1.3045 -1.9266
11465TIP3    H255887   4.491   1.434  15.011 -1.3298  2.1147  0.5341
11466TIP3   OH255888   0.675   3.544  13.346  0.3984  0.1640  0.1761
11466TIP3    H155889   0.653   3.632  13.376 -0.5186  0.2367 -0.6788
11466TIP3    H255890   0.674   3.491  13.425 -5.1810 -0.3127 -0.0073
11467TIP3   OH255891   2.623   5.873  14.857 -0.8492 -0.1184 -0.1489
11467TIP3    H155892   2.663   5.946  14.811  1.2121  0.1005  1.8961
11467TIP3    H255893   2.652   5.796  14.809  1.9352  0.0503  1.1697
11468TIP3   OH255894   1.792   6.726  12.537 -0.2106  0.1196 -0.0492
11468TIP3    H155895   1.794   6.779  12.617  0.2873  1.7231 -1.0855
11468TIP3    H255896   1.883   6.704  12.520 -0.4069 -0.9597  0.3007
11469TIP3   OH255897   1.659   5.537   6.709  0.4546 -0.9966 -0.1024
11469TIP3    H155898   1.591   5.521   6.775  2.0491 -0.7907  1.6354
11469TIP3    H255899   1.671   5.632   6.711  0.9529 -1.0588 -0.2263
11470TIP3   OH255900   6.562   6.407   2.192 -0.0981  0.0181  0.1730
11470TIP3    H155901   6.650   6.373   2.206 -0.4994 -0.4194  1.7164
11470TIP3    H255902   6.555   6.481   2.253 -0.9424 -0.2115  0.3564
11471TIP3   OH255903   2.716   4.818   0.546  0.0158 -0.8680  0.1981
11471TIP3    H155904   2.756   4.897   0.510  0.7472 -1.9391 -1.3801
11471TIP3    H255905   2.780   4.786   0.609 -0.9094  0.5640  1.8987
11472TIP3   OH255906   1.166   5.476  16.297 -0.0479 -0.1381 -0.1412
11472TIP3    H155907   1.185   5.552  16.352  0.9967 -0.1432 -0.4803
11472TIP3    H255908   1.203   5.499  16.212 -0.2764 -0.7716 -0.4110
11473TIP3   OH255909   3.328   0.624   2.100 -0.0079 -0.3989 -0.0148
11473TIP3    H155910   3.250   0.603   2.048  0.0168 -0.8864  0.1461
11473TIP3    H255911   3.389   0.552   2.082  0.7266  0.4185 -0.8034
11474TIP3   OH255912   5.077   4.604  12.805  0.1258 -0.5164  0.4809
11474TIP3    H155913   5.161   4.610  12.758 -0.5640  1.8298 -0.5591
11474TIP3    H255914   5.047   4.515  12.789  1.2306 -0.6173 -1.2867
11475TIP3   OH255915   6.802   3.090  14.542 -0.0927 -0.6142  0.3231
11475TIP3    H155916   6.774   3.119  14.629  1.4823  0.2410  0.5565
11475TIP3    H255917   6.740   3.134  14.482  0.0954  0.4527  0.8925
11476TIP3   OH255918   1.694   6.486   0.320 -0.4436 -0.2565 -0.6241
11476TIP3    H155919   1.783   6.469   0.288 -0.6321 -2.0304 -0.2504
11476TIP3    H255920   1.697   6.576   0.352  1.1080 -0.1550 -1.0036
11477TIP3   OH255921   1.467   2.785  15.001  0.0869 -0.4474 -0.1755
11477TIP3    H155922   1.520   2.721  15.048  0.1725  0.9487  1.6562
11477TIP3    H255923   1.416   2.829  15.069  1.3273  2.6505 -1.2011
11478TIP3   OH255924   3.257   0.830   3.600 -0.3974  0.4051 -0.2472
11478TIP3    H155925   3.254   0.910   3.653  1.0069  0.7454 -0.6712
11478TIP3    H255926   3.185   0.841   3.537  1.2540  2.4354 -1.8436
11479TIP3   OH255927   0.725   5.334  10.686  0.0991 -0.1744 -0.1896
11479TIP3    H155928   0.697   5.425  10.695  1.9945  0.4607 -0.2926
11479TIP3    H255929   0.774   5.316  10.767  1.4762 -0.4104 -1.0461
11480TIP3   OH255930   6.645   2.691   5.037  0.0226 -0.0280  0.5248
11480TIP3    H155931   6.599   2.621   4.990 -0.1162  0.0253  0.5798
11480TIP3    H255932   6.576   2.753   5.059  0.1534  0.1452  0.4416
11481TIP3   OH255933   2.147   1.689   1.675  0.2609 -0.1134 -0.1933
11481TIP3    H155934   2.143   1.782   1.698  0.4426 -0.1463 -0.0317
11481TIP3    H255935   2.070   1.650   1.716  0.0432  0.0139 -0.4771
11482TIP3   OH255936   5.674   3.960  14.767 -0.0827 -0.5702 -0.0589
11482TIP3    H155937   5.647   3.912  14.689 -0.4674 -0.1033 -0.2215
11482TIP3    H255938   5.594   4.004  14.797  0.6841  1.5676 -1.0629
11483TIP3   OH255939   5.220   3.581   1.327  0.1858  0.6444  0.0496
11483TIP3    H155940   5.236   3.651   1.264 -0.0541  0.7014  0.0504
11483TIP3    H255941   5.196   3.506   1.273  0.6068  0.5175  0.0403
11484TIP3   OH255942   6.167   5.687  14.616 -1.2411  0.3354  1.0032
11484TIP3    H155943   6.208   5.636  14.686 -0.2393  0.7563  0.7317
11484TIP3    H255944   6.073   5.678  14.632 -1.0288  0.2393  2.2676
11485TIP3   OH255945   4.670   3.210  12.301  0.1134 -0.4501  0.2508
11485TIP3    H155946   4.743   3.216  12.363  0.8973 -0.6414 -0.6438
11485TIP3    H255947   4.701   3.148  12.234  0.1912  1.5008 -1.5626
11486TIP3   OH255948   2.953   0.429   2.640 -0.3433  0.8284  0.4134
11486TIP3    H155949   2.878   0.395   2.591 -0.3169 -0.2160  1.0985
11486TIP3    H255950   2.948   0.386   2.725  0.9149  0.9186  0.5385
11487TIP3   OH255951   5.588   5.667   1.067 -0.0555  0.0748 -0.9797
11487TIP3    H155952   5.512   5.626   1.107  0.0725 -0.6151 -1.4352
11487TIP3    H255953   5.570   5.761   1.071 -0.5935 -0.0497 -0.4183
11488TIP3   OH255954   4.093   5.095   4.616 -0.1674  0.0426 -0.1175
11488TIP3    H155955   3.998   5.081   4.622  0.0550 -2.2520 -1.3101
11488TIP3    H255956   4.112   5.087   4.523  1.1933  0.7521  0.0836
11489TIP3   OH255957   2.257   0.390  16.510 -0.3323  0.7245  0.2659
11489TIP3    H155958   2.288   0.323  16.450  0.3382  0.1704  1.2035
11489TIP3    H255959   2.331   0.405  16.570 -1.2820  0.6012  1.4996
11490TIP3   OH255960   3.886   4.142   0.414 -0.4286  0.2655  0.5383
11490TIP3    H155961   3.828   4.122   0.340  0.0952 -0.9082  0.4433
11490TIP3    H255962   3.974   4.130   0.379 -0.1776 -0.3305  1.3711
11491TIP3   OH255963   2.674   6.479  11.361  0.0546  0.5414  0.2636
11491TIP3    H155964   2.675   6.401  11.305 -0.3628  1.3672 -0.9044
11491TIP3    H255965   2.750   6.529  11.332 -1.7475  2.3232 -1.5110
11492TIP3   OH255966   0.564   0.440   5.709 -0.8446 -0.1326 -0.2979
11492TIP3    H155967   0.573   0.352   5.672 -1.3465  0.2106 -1.2409
11492TIP3    H255968   0.509   0.428   5.787  0.5606 -0.9185  0.5803
11493TIP3   OH255969   4.710   6.583   6.359 -0.0531  0.1087 -0.1843
11493TIP3    H155970   4.768   6.508   6.347  0.9439  0.7598  0.3952
11493TIP3    H255971   4.622   6.548   6.354  0.4094 -1.1634  0.4876
11494TIP3   OH255972   0.725   5.781   3.251  0.4714 -0.3014 -0.7784
11494TIP3    H155973   0.783   5.722   3.203 -0.5126 -1.2086 -0.8669
11494TIP3    H255974   0.756   5.868   3.229  0.3137 -0.7227 -2.7027
11495TIP3   OH255975   5.480   1.636  12.357  0.1399 -0.2479 -0.3377
11495TIP3    H155976   5.495   1.561  12.414  1.4082  1.4061  1.5749
11495TIP3    H255977   5.567   1.673  12.342 -0.4611  0.8027 -1.3520
11496TIP3   OH255978   1.767   6.640  14.063  0.6487 -0.0761  0.6154
11496TIP3    H155979   1.761   6.715  14.005  0.1124  1.1682  2.2426
11496TIP3    H255980   1.711   6.573  14.023  2.8976 -0.4659 -2.0384
11497TIP3   OH255981   0.335   4.587   1.851  0.0609  0.0472 -0.1287
11497TIP3    H155982   0.328   4.504   1.898 -0.2648 -0.1767 -0.5634
11497TIP3    H255983   0.422   4.586   1.811 -0.6819 -0.9733 -1.7757
11498TIP3   OH255984   2.852   4.097  11.907  0.1519 -0.0964  0.2171
11498TIP3    H155985   2.865   4.011  11.948 -0.0431 -0.1355  0.1992
11498TIP3    H255986   2.766   4.090  11.864  0.1917  0.0660  0.1129
11499TIP3   OH255987   0.299   2.712   4.461  0.4017 -0.1113  0.6332
11499TIP3    H155988   0.268   2.717   4.371  2.4198 -0.6012 -0.1220
11499TIP3    H255989   0.229   2.752   4.513 -1.1418 -0.5593 -1.0439
11500TIP3   OH255990   5.267   2.581   5.633 -0.3351 -0.0974 -0.6472
11500TIP3    H155991   5.327   2.540   5.571  0.0145  0.8359 -0.9367
11500TIP3    H255992   5.321   2.644   5.680 -1.2557  1.3549 -1.4816
11501TIP3   OH255993   0.024   5.598  16.600  0.2758  0.1163  0.0270
11501TIP3    H155994   0.119   5.590  16.591  0.4898  0.9784  1.3779
11501TIP3    H255995  -0.008   5.508  16.596  1.1538 -0.1747 -0.4657
11502TIP3   OH255996   2.045   3.260  17.144 -0.0318  0.3314  0.3611
11502TIP3    H155997   2.135   3.273  17.174 -0.1811 -0.6617  1.2551
11502TIP3    H255998   2.020   3.174  17.178 -0.8250 -0.0459 -1.1228
11503TIP3   OH255999   6.712   0.113   4.123 -0.3147  0.4827  0.3467
11503TIP3    H156000   6.728   0.201   4.155 -2.5911  1.1806 -0.3885
11503TIP3    H256001   6.738   0.116   4.031  0.4949  0.1018  0.5504
11504TIP3   OH256002   1.034   6.376  15.073  0.0823  0.1205 -0.4982
11504TIP3    H156003   1.107   6.437  15.060 -0.7348  1.2653  0.1697
11504TIP3    H256004   0.964   6.430  15.109 -1.2481 -0.8722 -1.5305
11505TIP3   OH256005   2.624   3.945   3.409 -0.6139 -0.2380  0.5813
11505TIP3    H156006   2.667   3.991   3.481  0.0708  0.1662 -0.0736
11505TIP3    H256007   2.538   3.921   3.443  0.8911 -2.9556  2.6601
11506TIP3   OH256008   2.940   6.666   5.718 -0.5388  0.2581 -0.8171
11506TIP3    H156009   2.930   6.574   5.694 -0.6301  0.7370 -2.6722
11506TIP3    H256010   2.923   6.668   5.812  1.1769 -1.8874 -0.4188
11507TIP3   OH256011   3.742   1.356  15.216 -0.0046 -0.3946  0.3915
11507TIP3    H156012   3.762   1.450  15.210 -1.6652 -0.0700 -0.5064
11507TIP3    H256013   3.823   1.313  15.190  0.4823  0.8181 -0.1685
11508TIP3   OH256014   0.871   2.614   6.076  0.5285  0.1065  0.0263
11508TIP3    H156015   0.846   2.677   6.009 -0.1843  0.5705  0.7134
11508TIP3    H256016   0.966   2.626   6.086  0.9448 -1.2159 -2.1432
11509TIP3   OH256017   1.369   6.324   2.359 -0.4268 -0.4150  0.4383
11509TIP3    H156018   1.367   6.407   2.407  2.1658 -1.2270  2.0070
11509TIP3    H256019   1.288   6.324   2.308 -0.1898  3.3394 -0.0395
11510TIP3   OH256020   2.130   3.248   5.469  0.0886 -0.3400  0.0122
11510TIP3    H156021   2.182   3.294   5.536  1.6373  0.1052 -1.4600
11510TIP3    H256022   2.191   3.234   5.397 -1.9840  0.6703 -1.9955
11511TIP3   OH256023   0.286   2.394   1.399  0.0630  0.2741 -0.3417
11511TIP3    H156024   0.205   2.426   1.438  0.0155 -0.3277  0.0601
11511TIP3    H256025   0.331   2.349   1.471  0.3459 -0.1517 -0.7782
11512TIP3   OH256026   0.385   2.137   0.490 -0.0192 -0.3984  0.7479
11512TIP3    H156027   0.357   2.107   0.576  0.6869 -0.3819  0.9859
11512TIP3    H256028   0.414   2.227   0.504 -1.4160  0.1590  0.1818
11513TIP3   OH256029   4.702   0.426  12.680 -0.8694  0.2029  0.6604
11513TIP3    H156030   4.698   0.452  12.772  0.3296 -0.9587  1.0541
11513TIP3    H256031   4.726   0.506  12.633 -2.0688  0.9416  1.2763
11514TIP3   OH256032   3.160   1.406  14.695 -0.7731  0.2447  0.0043
11514TIP3    H156033   3.239   1.362  14.663 -1.5637  0.2337 -1.9861
11514TIP3    H256034   3.186   1.443  14.779  0.8417 -1.2591  0.1844
11515TIP3   OH256035   3.724   1.013  15.738  0.1507  0.0791 -0.4283
11515TIP3    H156036   3.685   1.095  15.709 -1.0091 -0.4916 -0.5147
11515TIP3    H256037   3.812   1.013  15.700 -0.0204  1.0478 -0.8342
11516TIP3   OH256038   2.938   4.308   2.719 -0.2680  0.1930 -0.4395
11516TIP3    H156039   2.944   4.378   2.785 -0.3011 -0.0900 -0.1326
11516TIP3    H256040   3.006   4.330   2.655 -1.1396  1.1933 -1.0128
11517TIP3   OH256041   6.634   3.718   3.991 -0.2470  0.3398  0.5389
11517TIP3    H156042   6.655   3.804   3.955 -0.3322  0.3492  0.5113
11517TIP3    H256043   6.672   3.718   4.079 -2.1422  1.2119  1.3766
11518TIP3   OH256044   3.223   6.246   0.171 -0.3550 -0.0228 -0.3280
11518TIP3    H156045   3.148   6.249   0.110 -1.6207  3.5439  1.2664
11518TIP3    H256046   3.300   6.243   0.114 -1.6196 -0.7998 -2.0405
11519TIP3   OH256047   3.947   3.131   4.734  0.2257  0.4123 -0.0073
11519TIP3    H156048   3.915   3.073   4.666  0.7373 -1.0772  0.9990
11519TIP3    H256049   3.923   3.088   4.816  0.3126  1.7855  0.7655
11520TIP3   OH256050   1.350   1.250   5.104 -0.2492 -0.1550  0.0524
11520TIP3    H156051   1.257   1.244   5.125 -0.1105 -0.0350  0.7145
11520TIP3    H256052   1.365   1.343   5.088 -0.7153 -0.4590 -2.3047
11521TIP3   OH256053   6.384   5.480  14.449  0.3457 -0.0362 -0.0348
11521TIP3    H156054   6.395   5.571  14.477 -2.8846  0.0464  1.1813
11521TIP3    H256055   6.465   5.437  14.477  1.1583  2.0616  1.0071
11522TIP3   OH256056   3.326   5.866  11.220 -0.3944  0.3080  0.2778
11522TIP3    H156057   3.284   5.918  11.152 -0.2355  0.0363 -0.0302
11522TIP3    H256058   3.275   5.784  11.221 -0.6571  0.4748  0.7717
11523TIP3   OH256059   1.249   6.222  11.730  0.2848  0.5152  0.5437
11523TIP3    H156060   1.271   6.314  11.747  0.7218  0.6092 -0.5488
11523TIP3    H256061   1.315   6.192  11.669  0.5651 -0.7502  1.4457
11524TIP3   OH256062   1.801   0.503   0.990  0.3286  0.4666 -0.0235
11524TIP3    H156063   1.765   0.557   1.059 -0.5871 -2.2864  1.7202
11524TIP3    H256064   1.727   0.451   0.958  1.6353 -1.4606 -0.0152
11525TIP3   OH256065   2.824   2.810  17.013  0.0646  0.1891 -0.2317
11525TIP3    H156066   2.768   2.733  17.026  0.2137  0.2303  0.7355
11525TIP3    H256067   2.767   2.873  16.970 -0.7352  0.3328  1.0040
11526TIP3   OH256068   0.325   4.755   3.192  0.5741  0.3463 -0.0025
11526TIP3    H156069   0.256   4.689   3.197  1.0357 -0.1498 -0.0899
11526TIP3    H256070   0.400   4.708   3.155  0.6429  1.1404 -0.8804
11527TIP3   OH256071   4.053   1.407   1.809 -0.0719  0.0345  0.7215
11527TIP3    H156072   3.982   1.390   1.747  0.9299 -1.4046 -0.0582
11527TIP3    H256073   4.070   1.501   1.801 -0.0382 -0.1187 -1.0821
11528TIP3   OH256074   1.790   5.065   3.189  0.2108  0.2038  0.2087
11528TIP3    H156075   1.762   5.056   3.280 -0.2384 -0.3254  0.0224
11528TIP3    H256076   1.742   5.141   3.156  1.1797  1.0356  0.7186
11529TIP3   OH256077   3.063   6.377   5.041  0.0973 -0.8662  0.1262
11529TIP3    H156078   3.019   6.460   5.058 -0.5711 -1.1346 -0.2597
11529TIP3    H256079   3.122   6.365   5.115  1.7158  0.9647 -0.8239
11530TIP3   OH256080   6.456   3.351  11.809 -0.3378  0.5439  0.6110
11530TIP3    H156081   6.399   3.291  11.761 -1.6867  1.3214  1.2429
11530TIP3    H256082   6.538   3.350  11.760 -1.0953 -0.1014 -0.6530
11531TIP3   OH256083   6.565   6.509   5.401 -0.0389 -0.2349  0.4658
11531TIP3    H156084   6.621   6.514   5.323  0.7072 -0.4342  0.9853
11531TIP3    H256085   6.615   6.456   5.463 -1.9177 -2.6094  0.0124
11532TIP3   OH256086   0.386   0.777   5.292  0.2968  0.7196  0.4896
11532TIP3    H156087   0.304   0.773   5.244 -0.2643  2.4844  1.2618
11532TIP3    H256088   0.440   0.839   5.242  1.5814 -1.2154 -0.6059
11533TIP3   OH256089   3.294   3.460   5.199  0.3786 -0.5093 -0.1854
11533TIP3    H156090   3.265   3.495   5.115  1.6135  0.4126 -0.2511
11533TIP3    H256091   3.249   3.514   5.264  1.5705  0.6342 -0.2844
11534TIP3   OH256092   3.933   1.916  15.904 -0.1414  0.1829 -0.1043
11534TIP3    H156093   3.903   2.006  15.894 -0.4448  0.3075  1.7810
11534TIP3    H256094   3.891   1.869  15.832 -0.5464  1.3977 -0.6812
11535TIP3   OH256095   2.513   6.148  11.170 -0.4713 -0.2863 -0.7138
11535TIP3    H156096   2.511   6.121  11.078  0.4770 -2.8443 -0.0434
11535TIP3    H256097   2.422   6.144  11.198 -0.6467 -0.4607 -1.2904
11536TIP3   OH256098   0.755   1.496   0.079 -0.0441  0.6629 -0.0405
11536TIP3    H156099   0.721   1.540   0.002  0.6434  0.1845 -0.6193
11536TIP3    H256100   0.704   1.532   0.152  0.3920  2.2667 -0.5315
11537TIP3   OH256101   4.438   0.667  15.033 -0.7500  0.6241  0.0729
11537TIP3    H156102   4.508   0.723  15.066 -0.0418  1.1605 -2.2729
11537TIP3    H256103   4.372   0.728  15.000 -1.0366  0.0966 -0.3431
11538TIP3   OH256104   0.607   2.852   0.475  0.3282  0.2721  0.0397
11538TIP3    H156105   0.604   2.943   0.504  0.2081  0.8639 -1.7544
11538TIP3    H256106   0.624   2.858   0.381 -0.4278 -1.5475 -0.2230
11539TIP3   OH256107   0.544   6.667  10.389  1.2122 -0.0975  0.0555
11539TIP3    H156108   0.485   6.715  10.331  2.7764  1.1030 -0.5654
11539TIP3    H256109   0.495   6.657  10.471  0.0467  0.6234 -0.5477
11540TIP3   OH256110   0.215   0.316  11.486 -0.3565  0.0234 -0.3509
11540TIP3    H156111   0.201   0.407  11.461  2.2658  0.9220  1.3137
11540TIP3    H256112   0.297   0.292  11.441  0.8343 -0.3895  1.9748
11541TIP3   OH256113   6.403   6.172   5.591  0.3420  0.4619 -0.1122
11541TIP3    H156114   6.437   6.111   5.657 -0.3928  1.0541  0.8389
11541TIP3    H256115   6.402   6.257   5.636  0.5163  1.0108 -1.1336
11542TIP3   OH256116   5.846   0.601   0.106 -0.0776 -0.4290 -0.1572
11542TIP3    H156117   5.883   0.556   0.030  1.4804  0.3772  0.1139
11542TIP3    H256118   5.888   0.687   0.106 -2.0525  0.5680  0.0794
11543TIP3   OH256119   0.736   6.095  11.199  0.5482  0.2638  0.2456
11543TIP3    H156120   0.688   6.043  11.135 -0.1469  1.3795 -0.1603
11543TIP3    H256121   0.813   6.126  11.152  1.1564 -0.6935  0.5987
11544TIP3   OH256122   6.801   4.505   6.178 -0.6510 -0.0671  0.0886
11544TIP3    H156123   6.877   4.479   6.231  0.3581 -0.3583 -1.4721
11544TIP3    H256124   6.736   4.436   6.194  0.6621 -1.6356 -1.1925
11545TIP3   OH256125   2.924   1.450  12.423 -0.0058 -0.1407  0.3434
11545TIP3    H156126   2.975   1.408  12.353 -1.0913 -0.7673 -0.0757
11545TIP3    H256127   2.851   1.493  12.377 -0.5017 -0.2257  1.0530
11546TIP3   OH256128   0.185   2.123  12.001  0.3717 -0.2831  0.2902
11546TIP3    H156129   0.152   2.128  12.090  0.0805 -0.1923  0.1767
11546TIP3    H256130   0.121   2.171  11.949 -0.1588 -1.4549 -0.1678
11547TIP3   OH256131   1.151   1.016  12.225 -0.0174 -0.2036  0.0138
11547TIP3    H156132   1.227   1.011  12.168  0.0326 -1.4798  0.1809
11547TIP3    H256133   1.181   0.980  12.309 -1.0191 -1.4964 -0.1641
11548TIP3   OH256134   4.146   6.476   4.902 -0.3434 -0.2728 -0.4836
11548TIP3    H156135   4.124   6.418   4.975  1.2394 -0.1532  0.1111
11548TIP3    H256136   4.132   6.564   4.937  0.9045 -0.2020 -0.1570
11549TIP3   OH256137   0.306   3.187  15.388  0.1367  0.1584 -0.0728
11549TIP3    H156138   0.215   3.164  15.368 -0.2581  0.7396  1.0085
11549TIP3    H256139   0.301   3.276  15.421  1.2792  0.6955 -1.3239
11550TIP3   OH256140   6.189   5.488  12.569  0.2677 -0.4220 -0.5108
11550TIP3    H156141   6.105   5.532  12.558 -0.3188 -1.2478  0.5139
11550TIP3    H256142   6.252   5.543  12.523 -0.7018  0.6519 -0.5651
11551TIP3   OH256143   6.755   5.966  12.992 -0.2939  0.2744  0.5291
11551TIP3    H156144   6.732   5.898  12.928  1.2430 -0.3118  0.5841
11551TIP3    H256145   6.816   6.023  12.946  0.6878 -0.0557  1.3949
11552TIP3   OH256146   3.631   3.606  14.275 -0.2415  0.0718 -0.2489
11552TIP3    H156147   3.601   3.669  14.340  1.7606  1.5134 -0.6353
11552TIP3    H256148   3.650   3.527  14.324 -0.2595  0.6418  0.6868
11553TIP3   OH256149   5.056   6.257  13.548 -0.0899  0.2071 -0.4079
11553TIP3    H156150   5.064   6.335  13.602 -1.7399  0.3650 -0.3688
11553TIP3    H256151   4.978   6.273  13.494 -0.0516 -1.1139 -0.8779
11554TIP3   OH256152   3.557   4.960   4.259 -0.2797  0.0720 -0.3828
11554TIP3    H156153   3.524   4.966   4.170  0.5673  0.3027 -0.6874
11554TIP3    H256154   3.521   5.036   4.304  2.3484  2.0922 -1.5556
11555TIP3   OH256155   2.623   6.618  14.569  0.5293 -0.4295  0.1465
11555TIP3    H156156   2.527   6.620  14.566  0.5234 -1.3981 -0.8630
11555TIP3    H256157   2.650   6.704  14.538 -0.0106 -0.7488 -1.2879
11556TIP3   OH256158   6.223   3.817  14.226  0.0709 -0.5722 -0.2144
11556TIP3    H156159   6.287   3.808  14.297 -0.4113 -1.1704  0.1461
11556TIP3    H256160   6.182   3.902  14.241  2.1149  0.7103 -1.5602
11557TIP3   OH256161   2.673   4.839  14.355  0.2947  0.2527 -0.2287
11557TIP3    H156162   2.680   4.914  14.413 -1.4370 -0.6155  1.1386
11557TIP3    H256163   2.725   4.771  14.397  1.9101  0.6708 -1.4963
11558TIP3   OH256164   4.792   0.412   4.159  0.2001 -0.5463  0.2642
11558TIP3    H156165   4.790   0.486   4.097 -1.9166 -0.5778  0.2704
11558TIP3    H256166   4.720   0.429   4.219  0.3683 -2.0680  0.9172
11559TIP3   OH256167   0.438   1.166  14.136  0.2040  0.5670  0.2048
11559TIP3    H156168   0.468   1.212  14.057 -0.9546  0.2218 -0.4494
11559TIP3    H256169   0.511   1.107  14.158 -0.1523 -0.5899 -1.6257
11560TIP3   OH256170   1.164   6.539   3.767 -0.0552  0.1443 -0.0417
11560TIP3    H156171   1.132   6.629   3.771  1.8063  0.8359  0.2042
11560TIP3    H256172   1.086   6.485   3.768 -1.1641  1.6782  2.5197
11561TIP3   OH256173   2.280   0.008   5.612  0.3673  0.1524 -0.4071
11561TIP3    H156174   2.279   0.057   5.694  0.2524 -0.9449  0.2386
11561TIP3    H256175   2.373  -0.011   5.596  0.1114 -2.9001  1.4142
11562TIP3   OH256176   4.199   3.436  12.447 -0.3890 -0.1877  0.2719
11562TIP3    H156177   4.217   3.457  12.356  0.2749 -2.0497 -0.0515
11562TIP3    H256178   4.156   3.514  12.482 -0.5687  0.5738 -1.6008
11563TIP3   OH256179   3.511   1.288  11.163  0.3211  0.1142  0.3019
11563TIP3    H156180   3.593   1.289  11.213  0.2460 -0.6751  0.4476
11563TIP3    H256181   3.521   1.214  11.102 -0.6499 -0.5764  0.9543
11564TIP3   OH256182   5.296   0.850  14.118 -0.3136 -0.2914 -0.0101
11564TIP3    H156183   5.338   0.926  14.157  3.0955 -2.3743  0.6109
11564TIP3    H256184   5.210   0.845  14.161 -0.3382  2.7380  0.4214
11565TIP3   OH256185   2.902   2.771  12.902  1.0129  0.8818 -0.1056
11565TIP3    H156186   2.872   2.805  12.986  0.8425 -1.2053  0.7180
11565TIP3    H256187   2.836   2.800  12.839 -1.1889 -1.0850  1.1994
11566TIP3   OH256188   3.666   3.602  13.707  0.0698 -0.2189  0.2215
11566TIP3    H156189   3.684   3.539  13.778  1.5268 -0.3464 -0.2550
11566TIP3    H256190   3.626   3.549  13.638 -3.7238  0.3215  1.8577
11567TIP3   OH256191   6.143   3.020  15.249 -0.2251 -0.1962  0.0590
11567TIP3    H156192   6.073   3.075  15.214  0.5056  0.4699 -0.3704
11567TIP3    H256193   6.137   2.939  15.199 -2.0422 -0.9734  1.4779
11568TIP3   OH256194   6.227   2.697   4.982  0.6346 -0.1884 -0.1700
11568TIP3    H156195   6.293   2.636   5.013  0.5238 -0.5626 -0.6608
11568TIP3    H256196   6.191   2.736   5.061  0.2539 -1.2284  0.1766
11569TIP3   OH256197   0.528   1.428   2.587 -0.5215 -0.4433 -0.3076
11569TIP3    H156198   0.488   1.490   2.649 -0.4518  0.1481 -0.8578
11569TIP3    H256199   0.547   1.480   2.509 -0.4608 -1.1569 -0.7721
11570TIP3   OH256200   5.832   3.052   4.705  0.3576  0.1699 -0.0836
11570TIP3    H156201   5.745   3.021   4.680  0.5582  0.0870 -0.6907
11570TIP3    H256202   5.888   2.974   4.699  0.6675  0.4299 -0.6514
11571TIP3   OH256203   4.236   1.541  11.270  0.4234 -0.0126  0.7259
11571TIP3    H156204   4.248   1.504  11.358 -0.9407 -0.0626  0.9073
11571TIP3    H256205   4.263   1.472  11.211  0.0083 -0.5041  1.1010
11572TIP3   OH256206   0.219   5.227  17.283 -0.1651 -0.3315 -0.2920
11572TIP3    H156207   0.254   5.261  17.366 -1.4389 -1.6777  0.8200
11572TIP3    H256208   0.237   5.133  17.286  1.8946 -0.0837 -2.6351
11573TIP3   OH256209   0.036   2.596   5.184 -0.1270 -0.1638  0.3827
11573TIP3    H156210  -0.034   2.653   5.151 -0.3076 -0.9562 -0.6403
11573TIP3    H256211   0.034   2.521   5.125  0.3671 -1.0450  1.4891
11574TIP3   OH256212   4.173   3.587  10.472  0.4824 -0.1241 -0.0422
11574TIP3    H156213   4.157   3.500  10.508  1.8859 -0.3520  0.0706
11574TIP3    H256214   4.172   3.574  10.377  0.5885 -0.2502 -0.0265
11575TIP3   OH256215   3.586   0.532  11.757  0.3055  0.0964  0.0413
11575TIP3    H156216   3.602   0.457  11.815  2.0270  0.5275  0.1392
11575TIP3    H256217   3.521   0.499  11.694 -0.4197 -0.8617  1.2471
11576TIP3   OH256218   0.761   2.262   5.100  0.1098 -0.6055 -0.2812
11576TIP3    H156219   0.812   2.316   5.040 -0.0039  2.9690  2.6584
11576TIP3    H256220   0.826   2.212   5.149  0.5358  0.6227  0.4130
11577TIP3   OH256221   0.947   6.764   4.095  0.0098 -0.9671 -0.4302
11577TIP3    H156222   0.863   6.808   4.081  0.0882 -0.7415 -0.1909
11577TIP3    H256223   0.932   6.674   4.066 -0.2389 -0.8605 -0.6385
11578TIP3   OH256224   6.481   2.203  17.263 -0.7657  0.2894  0.3119
11578TIP3    H156225   6.422   2.197  17.188  0.0094 -0.1581 -0.2602
11578TIP3    H256226   6.566   2.226  17.226 -0.3699  0.0457  1.0494
11579TIP3   OH256227   3.692   2.576  15.059  0.4810 -0.1298  0.1201
11579TIP3    H156228   3.654   2.602  14.975 -0.1768  0.3094  0.5537
11579TIP3    H256229   3.687   2.481  15.060 -0.6542 -0.0697  0.2023
11580TIP3   OH256230   2.605   3.254   3.180 -0.0991  0.0749 -0.3992
11580TIP3    H156231   2.637   3.173   3.140 -0.3116  0.1101 -0.6413
11580TIP3    H256232   2.586   3.312   3.106 -0.9617 -0.0367 -0.2775
11581TIP3   OH256233   6.262   2.205   4.356  0.0472 -0.1380 -0.8798
11581TIP3    H156234   6.180   2.189   4.309  0.2817 -0.1494 -1.2873
11581TIP3    H256235   6.235   2.236   4.442 -0.3930 -0.6349 -0.8367
11582TIP3   OH256236   4.884   1.822  15.338 -0.0293  0.5997  0.0781
11582TIP3    H156237   4.952   1.820  15.406  1.1305  0.1742 -1.0568
11582TIP3    H256238   4.807   1.782  15.379 -0.3075  3.1281  2.1109
11583TIP3   OH256239   0.534   2.056   1.535  0.7788  0.2039  0.1006
11583TIP3    H156240   0.445   2.027   1.556  1.3607 -2.3921 -0.8304
11583TIP3    H256241   0.533   2.150   1.552 -2.1793  0.2389 -0.0202
11584TIP3   OH256242   6.600   2.674  14.435 -0.3918  0.2126  0.0169
11584TIP3    H156243   6.582   2.592  14.481  2.0488  0.8149  2.1186
11584TIP3    H256244   6.678   2.709  14.477  0.3095  2.1916 -2.7926
11585TIP3   OH256245   3.364   3.033   4.770 -0.2623  0.2947  0.0407
11585TIP3    H156246   3.409   3.093   4.829 -0.3408  1.6869 -1.2764
11585TIP3    H256247   3.304   3.089   4.720  1.9548 -0.3275 -3.4564
11586TIP3   OH256248   3.268   4.417   5.670  0.0563  0.0925 -0.1997
11586TIP3    H156249   3.284   4.365   5.749  1.1040  0.9277  0.1447
11586TIP3    H256250   3.353   4.458   5.650  0.0467 -0.8209 -2.2792
11587TIP3   OH256251   1.012   2.890   1.375 -0.1451  0.9553  0.6477
11587TIP3    H156252   1.104   2.862   1.370  0.1006  1.2631  2.7478
11587TIP3    H256253   0.987   2.908   1.285  1.5348 -0.2029 -0.0710
11588TIP3   OH256254   2.294   4.386  13.412  0.0604 -0.1076 -0.0516
11588TIP3    H156255   2.262   4.477  13.408 -1.4535 -0.5763  1.0972
11588TIP3    H256256   2.244   4.341  13.344 -0.3058 -0.4064  0.4131
11589TIP3   OH256257   1.843   2.128   5.352 -0.1467 -0.0126  0.0440
11589TIP3    H156258   1.826   2.132   5.258 -4.1303  3.8560  0.7711
11589TIP3    H256259   1.761   2.096   5.390  0.0660  2.1946  2.4710
11590TIP3   OH256260   2.482   4.584  12.367  0.9481 -0.0754 -0.0665
11590TIP3    H156261   2.568   4.621  12.388  0.3707  0.1627  1.8981
11590TIP3    H256262   2.494   4.489  12.379  1.1741 -0.1228 -0.6561
11591TIP3   OH256263   1.629   3.858   4.797 -0.2782 -0.0864  0.2562
11591TIP3    H156264   1.665   3.813   4.874  1.1650  1.4617  0.5177
11591TIP3    H256265   1.536   3.868   4.817 -0.4462 -2.0483  0.6103
11592TIP3   OH256266   0.675   2.397   3.571 -0.1441 -0.1736 -0.0796
11592TIP3    H156267   0.669   2.321   3.630 -0.2568  0.5487  0.8486
11592TIP3    H256268   0.706   2.360   3.488 -1.2376 -1.4120  0.0359
11593TIP3   OH256269   1.597   4.415   5.432  0.1454 -0.0718 -0.5537
11593TIP3    H156270   1.606   4.336   5.379  2.0609 -0.9653  1.0344
11593TIP3    H256271   1.517   4.402   5.481 -0.1935 -0.4749 -1.2048
11594TIP3   OH256272   6.152   6.759  13.830  0.2175  0.2439 -0.0075
11594TIP3    H156273   6.173   6.753  13.736 -0.2224  2.6606 -0.2733
11594TIP3    H256274   6.112   6.845  13.840  2.8019  1.1906  2.8903
11595TIP3   OH256275   4.905   2.879  16.972 -0.1515  0.0102 -0.1180
11595TIP3    H156276   4.824   2.834  16.945 -1.1730  0.6662  1.7742
11595TIP3    H256277   4.952   2.814  17.025  0.5790 -0.3684 -1.2121
11596TIP3   OH256278   1.415   5.190  11.583 -0.6757  0.6792  0.0309
11596TIP3    H156279   1.374   5.104  11.588 -1.2261  0.9388  0.0326
11596TIP3    H256280   1.410   5.225  11.672  1.3965 -0.1268  0.4782
11597TIP3   OH256281   1.296   0.057   4.190 -0.7477 -0.1494  0.4130
11597TIP3    H156282   1.368   0.048   4.252  0.1085  0.3363 -0.5035
11597TIP3    H256283   1.220   0.025   4.238  0.0064 -0.3399  1.5121
11598TIP3   OH256284   5.119   3.013   2.065 -0.3641  0.4539  0.3918
11598TIP3    H156285   5.028   3.034   2.044 -0.2672  0.2604 -0.2251
11598TIP3    H256286   5.130   3.040   2.157 -0.7627  1.3824  0.1640
11599TIP3   OH256287   4.377   0.871   3.104 -0.0841 -0.2922 -0.9234
11599TIP3    H156288   4.421   0.835   3.027  3.0123 -1.7926  1.4829
11599TIP3    H256289   4.442   0.868   3.173 -2.0718  3.1916  1.2360
11600TIP3   OH256290   4.309   1.938  16.015 -0.0364  0.0755  0.2948
11600TIP3    H156291   4.300   2.008  15.951  2.5750 -0.1404 -0.3684
11600TIP3    H256292   4.399   1.907  16.005 -0.2591 -1.4729  2.5304
11601TIP3   OH256293   3.835   1.194   1.975  0.3523 -0.2037 -0.5891
11601TIP3    H156294   3.826   1.125   1.910  1.1250  0.7586 -1.7323
11601TIP3    H256295   3.748   1.233   1.982  0.2405 -0.3910 -0.9484
11602TIP3   OH256296   4.860   0.204  16.417 -0.5718  0.2831  0.3262
11602TIP3    H156297   4.940   0.154  16.397 -0.2552  0.7883  0.3258
11602TIP3    H256298   4.828   0.234  16.333 -1.0108 -0.2874  0.2832
11603TIP3   OH256299   1.396   0.864  13.148  0.1918 -0.4894  0.2166
11603TIP3    H156300   1.429   0.952  13.129  1.3957 -1.5253 -2.8743
11603TIP3    H256301   1.312   0.859  13.102  0.2225 -1.0311  0.2173
11604TIP3   OH256302   5.842   3.934   1.457  0.2918 -0.3272 -0.3077
11604TIP3    H156303   5.915   3.907   1.513 -0.2913  1.4481  1.3677
11604TIP3    H256304   5.766   3.933   1.515 -0.1326  2.5759 -0.7378
11605TIP3   OH256305   4.738   1.549  15.376  0.1367 -0.3451  0.2421
11605TIP3    H156306   4.791   1.580  15.302 -1.0934 -1.3178 -1.0752
11605TIP3    H256307   4.791   1.568  15.453  1.3732  0.8456 -0.8792
11606TIP3   OH256308   2.942   6.074   1.041 -0.0513 -0.2530 -0.1129
11606TIP3    H156309   2.967   6.077   1.134  0.7869 -0.6059 -0.3182
11606TIP3    H256310   2.950   6.165   1.011 -0.6853 -0.0770  0.2543
11607TIP3   OH256311   1.968   6.554  12.255 -0.4695 -0.1096 -0.5407
11607TIP3    H156312   2.004   6.594  12.333 -0.7233  0.6910 -0.8314
11607TIP3    H256313   1.899   6.496  12.287 -0.6728  0.3312 -0.1887
11608TIP3   OH256314   3.177   1.719   3.949 -0.3174  0.1486  0.4462
11608TIP3    H156315   3.215   1.631   3.958 -1.4501 -0.4367 -0.3892
11608TIP3    H256316   3.130   1.733   4.032 -0.5776 -0.2514  0.3670
11609TIP3   OH256317   6.630   4.416   2.486  0.3744  0.4514  0.1155
11609TIP3    H156318   6.557   4.390   2.430  0.1774 -0.5064  0.7905
11609TIP3    H256319   6.635   4.346   2.552  1.9222  0.4810  0.0484
11610TIP3   OH256320   0.405   5.096  13.622 -0.0001 -0.3222  0.2830
11610TIP3    H156321   0.428   5.105  13.715 -1.4827 -0.0509  0.6340
11610TIP3    H256322   0.445   5.014  13.596  1.2080  0.0466  0.9230
11611TIP3   OH256323   6.297   0.311   2.734  0.0478  0.1574 -0.5520
11611TIP3    H156324   6.259   0.242   2.789  1.6703 -1.2934 -1.1934
11611TIP3    H256325   6.286   0.279   2.644 -1.4316  1.9120 -1.0177
11612TIP3   OH256326   1.806   5.199  14.425 -0.6787  0.1439 -1.1153
11612TIP3    H156327   1.727   5.162  14.463 -1.5734  1.1384 -1.9808
11612TIP3    H256328   1.832   5.267  14.486  0.1739 -0.9472 -0.2441
11613TIP3   OH256329   2.966   0.090  10.900 -0.3383  0.2354 -0.0426
11613TIP3    H156330   2.982  -0.001  10.924  0.5935  0.0060 -1.5193
11613TIP3    H256331   2.873   0.093  10.876  0.0620 -0.7265 -1.7568
11614TIP3   OH256332   6.619   3.657   5.325  0.2670 -0.2210  0.5079
11614TIP3    H156333   6.611   3.582   5.266 -1.3054  0.2204  0.1220
11614TIP3    H256334   6.625   3.618   5.412  1.7313 -0.8533  0.1342
11615TIP3   OH256335   0.249   4.887   5.847 -0.1414  0.3741  0.0482
11615TIP3    H156336   0.286   4.957   5.902  0.8502  0.4284 -0.6649
11615TIP3    H256337   0.319   4.821   5.843 -0.5251  0.0018 -0.4723
11616TIP3   OH256338   4.505   0.018  11.475  0.3750  0.0336 -0.1705
11616TIP3    H156339   4.567   0.083  11.442 -2.9014  2.5591 -1.6537
11616TIP3    H256340   4.440   0.009  11.405 -1.2981 -2.0002  1.5790
11617TIP3   OH256341   0.379   1.667   0.076 -0.0030 -0.4540 -0.4223
11617TIP3    H156342   0.326   1.664  -0.004  0.8482 -1.6472 -0.9637
11617TIP3    H256343   0.421   1.753   0.074 -0.4908 -0.2239 -0.9373
11618TIP3   OH256344   1.598   1.537  15.157 -0.0877  0.1428  0.8924
11618TIP3    H156345   1.647   1.501  15.231 -0.4799  1.3141  1.7331
11618TIP3    H256346   1.664   1.547  15.088  0.2540 -1.0718  1.0251
11619TIP3   OH256347   2.452   1.023  15.916  0.0356  0.3392  0.3283
11619TIP3    H156348   2.410   1.034  16.002  0.9827  1.8689  0.6086
11619TIP3    H256349   2.546   1.033  15.934  0.2007  1.1775 -0.9658
11620TIP3   OH256350   1.351   6.155   5.777  0.1536  0.0957  0.1666
11620TIP3    H156351   1.443   6.137   5.794  0.3076  0.6175 -0.0809
11620TIP3    H256352   1.306   6.135   5.859  0.5656  0.3745  0.4598
11621TIP3   OH256353   5.885   0.555  12.696 -0.4332  0.0729  0.0297
11621TIP3    H156354   5.819   0.533  12.631  0.0410  0.6889 -0.6677
11621TIP3    H256355   5.862   0.644  12.725  2.0621  1.7116 -2.7507
11622TIP3   OH256356   1.523   4.699   3.490 -0.5603  0.6417  0.0491
11622TIP3    H156357   1.461   4.626   3.491  1.4861 -1.1532  2.5089
11622TIP3    H256358   1.590   4.673   3.426 -2.4052  2.7557 -2.9054
11623TIP3   OH256359   3.010   0.578  13.421  0.8862  0.2585 -0.2424
11623TIP3    H156360   3.100   0.550  13.403  0.8797  0.2884 -0.3196
11623TIP3    H256361   3.012   0.605  13.513  1.0826  0.7576 -0.3919
11624TIP3   OH256362   4.663   1.910   1.825  0.0452  0.5819  0.3580
11624TIP3    H156363   4.586   1.856   1.844 -1.3845  2.0299 -1.1285
11624TIP3    H256364   4.722   1.852   1.777 -0.2392 -0.4614  1.2548
11625TIP3   OH256365   3.487   5.291   1.027  0.0612  0.0845  0.1434
11625TIP3    H156366   3.547   5.356   0.990  0.6387 -0.5386 -0.0302
11625TIP3    H256367   3.487   5.219   0.963  0.5970 -0.7397  1.0540
11626TIP3   OH256368   2.618   0.396  14.530 -0.1200 -0.3647 -0.3946
11626TIP3    H156369   2.690   0.458  14.517 -0.8497  0.2985 -1.3340
11626TIP3    H256370   2.658   0.310  14.516  0.5135 -0.0156 -0.7823
11627TIP3   OH256371   1.488   1.507  11.025 -0.9559 -0.5059 -0.0576
11627TIP3    H156372   1.503   1.516  10.931  3.5817 -0.2575  0.5719
11627TIP3    H256373   1.497   1.413  11.042  0.8107 -0.2738  0.4336
11628TIP3   OH256374   4.632   2.056   5.638 -0.0204  0.7867 -0.3367
11628TIP3    H156375   4.631   2.088   5.548 -2.9206  1.0571 -0.2459
11628TIP3    H256376   4.561   1.992   5.642  0.7058  0.0604  1.5013
11629TIP3   OH256377   3.927   4.689  12.441 -0.2602  0.3477 -0.4913
11629TIP3    H156378   3.866   4.759  12.417 -0.4462  0.6287  0.7308
11629TIP3    H256379   3.870   4.616  12.465 -0.0865  0.1196 -0.7850
11630TIP3   OH256380   1.017   5.373  11.937 -0.2966  0.1608 -0.5730
11630TIP3    H156381   0.998   5.417  12.020 -2.2109 -0.6632 -0.5525
11630TIP3    H256382   1.097   5.415  11.906  0.7599  0.1082  1.9384
11631TIP3   OH256383   6.205   0.116  15.416 -0.3938  0.0267  0.3759
11631TIP3    H156384   6.186   0.188  15.476 -0.3669  0.4463 -0.1217
11631TIP3    H256385   6.259   0.056  15.467  0.5917  0.9382  0.4013
11632TIP3   OH256386   5.527   1.129  13.530 -0.2363  0.7769 -0.7265
11632TIP3    H156387   5.456   1.079  13.489 -1.2111  2.1966 -0.8064
11632TIP3    H256388   5.536   1.091  13.617 -0.4071 -0.0743 -1.0691
11633TIP3   OH256389   0.578   0.794  14.708  0.4832 -0.0356 -0.0560
11633TIP3    H156390   0.625   0.794  14.792 -1.7572 -3.5698  1.2765
11633TIP3    H256391   0.525   0.874  14.711  1.3539  0.5206  1.3130
11634TIP3   OH256392   6.796   5.099  14.775 -0.3300 -0.1753  0.5271
11634TIP3    H156393   6.833   5.187  14.773 -1.2130  0.1525 -2.4372
11634TIP3    H256394   6.709   5.110  14.814 -0.8214  0.4386 -0.7135
11635TIP3   OH256395   6.313   0.796   2.035  0.5997 -0.0697  0.2156
11635TIP3    H156396   6.299   0.834   1.948 -0.1365  1.2823  0.9051
11635TIP3    H256397   6.350   0.868   2.086 -1.1928 -0.1445  1.6616
11636TIP3   OH256398   0.219   5.433  14.914 -0.4625 -0.1996 -0.0704
11636TIP3    H156399   0.230   5.482  14.832  0.5593  0.4210  0.4381
11636TIP3    H256400   0.293   5.460  14.968 -0.9604 -0.8603  0.9391
11637TIP3   OH256401   4.477   3.898   3.564  0.1837 -0.2445 -0.2902
11637TIP3    H156402   4.463   3.807   3.590 -1.0417  0.0193 -0.0066
11637TIP3    H256403   4.481   3.896   3.469  0.3382 -0.6154 -0.2761
11638TIP3   OH256404   3.475   0.961   5.146 -0.0271 -0.3029 -0.5201
11638TIP3    H156405   3.530   0.931   5.074  0.1037 -0.2669 -0.4354
11638TIP3    H256406   3.399   0.902   5.144  0.4800 -0.9721 -0.0296
11639TIP3   OH256407   0.574   5.733  13.379  0.2322  0.8112  0.1422
11639TIP3    H156408   0.565   5.638  13.380  1.9154  0.6248 -0.4836
11639TIP3    H256409   0.492   5.765  13.340 -1.7469 -0.1630  3.3418
11640TIP3   OH256410   4.488   2.159  13.186  0.2673  0.6632 -0.6479
11640TIP3    H156411   4.559   2.158  13.250  3.6566  0.4671 -4.2197
11640TIP3    H256412   4.445   2.243  13.199  1.0380  0.7309  1.7019
11641TIP3   OH256413   2.391   4.090   0.543 -0.3388 -0.7118 -0.1321
11641TIP3    H156414   2.312   4.040   0.566 -1.3880  0.7403 -0.5426
11641TIP3    H256415   2.439   4.097   0.626  0.0993 -2.8568 -0.1762
11642TIP3   OH256416   2.172   4.088  15.359  0.0499 -0.9722  0.3018
11642TIP3    H156417   2.114   4.054  15.427 -3.6061  1.0436 -1.6206
11642TIP3    H256418   2.170   4.020  15.291 -3.1261  0.6404 -1.3257
11643TIP3   OH256419   6.227   1.174   5.451 -0.6791  0.1725  0.5973
11643TIP3    H156420   6.173   1.096   5.440 -0.4928 -0.2240  2.3732
11643TIP3    H256421   6.176   1.245   5.411 -1.2093 -0.7027 -0.2978
11644TIP3   OH256422   1.016   1.895  17.001 -0.3852 -0.2062  0.0630
11644TIP3    H156423   1.067   1.966  17.040  1.4480 -1.1073 -0.6805
11644TIP3    H256424   1.010   1.829  17.071 -1.9363  0.5664  0.6930
11645TIP3   OH256425   5.240   0.344   4.612 -0.5261  0.0985  0.0994
11645TIP3    H156426   5.236   0.355   4.517 -1.5169  1.0870  0.2491
11645TIP3    H256427   5.150   0.353   4.641 -0.1393  0.4851  1.2086
11646TIP3   OH256428   1.901   5.487  15.426  0.0746 -0.2068 -0.1593
11646TIP3    H156429   1.859   5.535  15.497 -0.3393 -0.0789 -0.4915
11646TIP3    H256430   1.841   5.494  15.353  0.9723  0.5339 -0.8441
11647TIP3   OH256431   6.567   6.698   1.347 -0.5939  0.9935 -0.1542
11647TIP3    H156432   6.512   6.712   1.425 -1.1133 -0.7339 -0.1814
11647TIP3    H256433   6.565   6.603   1.334  1.9309  0.9606 -0.5219
11648TIP3   OH256434   4.544   4.201   0.942  0.4962 -0.3553  0.1043
11648TIP3    H156435   4.598   4.258   0.997  0.4490 -1.3353  1.2050
11648TIP3    H256436   4.583   4.114   0.954 -0.6027 -0.8711 -0.0263
11649TIP3   OH256437   5.031   1.777  17.284  0.2753  0.1177  0.4287
11649TIP3    H156438   4.965   1.772  17.215  0.3256  1.6182  0.2575
11649TIP3    H256439   5.001   1.716  17.351 -0.6775 -0.0599 -0.1628
11650TIP3   OH256440   6.057   2.160   1.805 -0.2070 -0.3906 -0.5019
11650TIP3    H156441   6.103   2.218   1.745  0.3174 -0.7299 -0.4299
11650TIP3    H256442   6.004   2.104   1.748 -0.7905  0.2201 -0.5654
11651TIP3   OH256443   0.632   6.079  14.577  0.1667 -0.2949  0.3499
11651TIP3    H156444   0.603   6.057  14.489  0.7730 -2.1901  0.6097
11651TIP3    H256445   0.719   6.117  14.566 -0.4235  0.9779 -0.0017
11652TIP3   OH256446   6.423   1.769  11.108 -0.1103 -0.5697  0.0312
11652TIP3    H156447   6.371   1.734  11.036  0.8359 -0.5474 -0.6654
11652TIP3    H256448   6.512   1.740  11.090 -0.0651 -1.7273  1.9194
11653TIP3   OH256449   0.608   3.344  10.796  0.5348 -0.3261 -0.0699
11653TIP3    H156450   0.587   3.438  10.791 -1.9299 -0.9099 -1.6474
11653TIP3    H256451   0.626   3.328  10.889  2.2796  1.9343  0.0445
11654TIP3   OH256452   1.416   4.388  13.497 -0.1698  0.2787  0.5603
11654TIP3    H156453   1.458   4.302  13.495 -0.2626  0.2519 -1.9558
11654TIP3    H256454   1.488   4.450  13.490 -0.3706  0.2752 -1.9332
11655TIP3   OH256455   4.052   4.445  16.825 -0.3775  0.7456 -0.1367
11655TIP3    H156456   4.013   4.407  16.904 -1.5846  1.4200 -0.4050
11655TIP3    H256457   4.144   4.421  16.831 -1.0875 -2.1946 -0.2887
11656TIP3   OH256458   1.221   6.304  12.399 -0.3322  0.5523  0.0861
11656TIP3    H156459   1.262   6.324  12.483 -0.5437  0.0511  0.3151
11656TIP3    H256460   1.294   6.288  12.339 -0.1836 -0.1797  0.4500
11657TIP3   OH256461   1.043   4.782  14.501 -0.4125  0.0715  0.1833
11657TIP3    H156462   0.998   4.705  14.535  1.2636 -0.9973  0.0640
11657TIP3    H256463   1.047   4.842  14.575  1.2032 -1.3276  1.3003
11658TIP3   OH256464   6.522   0.559   5.577  0.7792  0.0170 -0.4845
11658TIP3    H156465   6.573   0.585   5.654  1.2864  0.9729 -1.1232
11658TIP3    H256466   6.582   0.505   5.526  1.1813  1.1784 -1.2590
11659TIP3   OH256467   6.652   5.254   3.952 -0.5282  0.0144 -0.1780
11659TIP3    H156468   6.677   5.180   4.008  1.2820  0.3821 -0.4794
11659TIP3    H256469   6.620   5.320   4.013 -1.0865 -0.5790  0.1876
11660TIP3   OH256470   5.092   4.015  12.158  0.1608  0.2230 -0.4301
11660TIP3    H156471   5.164   4.068  12.193  0.3064 -0.8376  0.9548
11660TIP3    H256472   5.115   4.001  12.066  2.6021 -1.4278  0.3552
11661TIP3   OH256473   5.704   2.339   4.466 -0.0482  0.1464 -0.9833
11661TIP3    H156474   5.793   2.336   4.501 -0.0228  0.9187 -0.9794
11661TIP3    H256475   5.692   2.254   4.424 -0.2541 -1.0368  1.3399
11662TIP3   OH256476   0.503   2.587   1.375  0.1759  0.8392 -0.3333
11662TIP3    H156477   0.520   2.624   1.462  3.4651  1.8160 -1.3227
11662TIP3    H256478   0.449   2.510   1.392  1.3092  0.6243  2.6214
11663TIP3   OH256479   3.618   3.871  16.331 -0.1166 -0.8185 -0.1327
11663TIP3    H156480   3.532   3.871  16.289  0.3639 -0.3369 -1.1681
11663TIP3    H256481   3.676   3.831  16.266  1.3042  3.0407 -1.4403
11664TIP3   OH256482   2.302   5.883   5.507  0.1243  1.2374 -0.0276
11664TIP3    H156483   2.218   5.928   5.516 -0.2941  0.3516  0.5399
11664TIP3    H256484   2.349   5.934   5.442 -1.0489  1.4584 -0.7195
11665TIP3   OH256485   6.657   4.774   3.645  0.2169  0.2784 -0.5650
11665TIP3    H156486   6.742   4.743   3.613  0.3299 -0.7563  0.6871
11665TIP3    H256487   6.612   4.694   3.673 -0.3248  1.0396  0.7545
11666TIP3   OH256488   6.731   3.821  13.988  0.3330  0.1445 -0.3338
11666TIP3    H156489   6.806   3.843  13.933  0.4404  1.4943  0.3361
11666TIP3    H256490   6.768   3.808  14.075 -0.1200  0.0910 -0.1479
11667TIP3   OH256491   6.206   0.665   3.155 -0.0126 -0.1796  0.6074
11667TIP3    H156492   6.151   0.728   3.109  0.5468 -0.9963 -1.2374
11667TIP3    H256493   6.221   0.704   3.241 -1.7136  1.0286  0.3742
11668TIP3   OH256494   2.605   5.761  16.101  0.4724  1.0646  0.4742
11668TIP3    H156495   2.581   5.713  16.180  0.9439  1.5493  0.9074
11668TIP3    H256496   2.693   5.731  16.080 -0.4135 -0.6132 -1.0488
11669TIP3   OH256497   0.787   5.970  17.264  0.0053  0.8347  0.1699
11669TIP3    H156498   0.751   6.053  17.233 -0.5142  0.5991  0.1377
11669TIP3    H256499   0.815   5.925  17.184 -1.0615  0.3535  0.0575
11670TIP3   OH256500   1.595   6.155   3.481 -0.0941  0.6506  0.5532
11670TIP3    H156501   1.541   6.077   3.496 -2.6308  2.1322 -0.4977
11670TIP3    H256502   1.610   6.156   3.387  0.8287  0.8751  0.7005
11671TIP3   OH256503   1.876   5.393  16.672  0.3374 -0.3214  0.3186
11671TIP3    H156504   1.880   5.342  16.591 -0.9117 -1.3855  0.9001
11671TIP3    H256505   1.805   5.455  16.657  0.6703  0.0515  0.2836
11672TIP3   OH256506   5.959   2.089   1.068  0.2788  0.3802  0.6430
11672TIP3    H156507   5.931   2.097   0.977  0.5313 -0.2602  0.5107
11672TIP3    H256508   6.011   2.009   1.071 -0.5660 -0.1578  1.5525
11673TIP3   OH256509   1.428   0.510  12.452  0.4175 -0.2070 -0.2930
11673TIP3    H156510   1.470   0.568  12.516  0.5830 -0.9881  0.3122
11673TIP3    H256511   1.381   0.446  12.505  1.0226 -1.2019 -0.9387
11674TIP3   OH256512   4.094   0.909   1.909 -0.3603 -0.0908  0.1405
11674TIP3    H156513   4.183   0.893   1.943 -0.5300 -0.3901  0.4521
11674TIP3    H256514   4.041   0.924   1.988 -1.0753 -2.3283  0.1427
11675TIP3   OH256515   3.364   3.374   0.014  0.0187 -0.7578 -0.3920
11675TIP3    H156516   3.399   3.384   0.102 -1.4912 -3.0394  0.4998
11675TIP3    H256517   3.312   3.294   0.017 -3.1542  1.1200 -2.3319
11676TIP3   OH256518   3.119   3.248  16.210 -0.1972  0.5592 -0.3651
11676TIP3    H156519   3.023   3.248  16.203 -0.3773 -0.6227  1.7093
11676TIP3    H256520   3.142   3.341  16.219 -1.2605  0.7625  0.4282
11677TIP3   OH256521   0.531   5.982  15.566  0.0048  0.1540  0.3834
11677TIP3    H156522   0.521   6.055  15.504 -1.0587 -1.8252 -1.8701
11677TIP3    H256523   0.445   5.971  15.605 -0.5006 -1.3796 -1.0770
11678TIP3   OH256524   2.839   1.783   2.449  0.5665  0.3382  0.0303
11678TIP3    H156525   2.855   1.878   2.451  0.1149  0.4277 -0.3907
11678TIP3    H256526   2.829   1.763   2.355 -1.2376  0.2002  0.2265
11679TIP3   OH256527   4.280   1.733   0.903 -0.2500 -0.0068 -0.4638
11679TIP3    H156528   4.255   1.767   0.817 -1.2857 -0.9792 -0.5658
11679TIP3    H256529   4.274   1.638   0.893 -1.2013 -0.1095  0.9160
11680TIP3   OH256530   2.170   3.402   3.724 -0.0197  0.0009  0.0677
11680TIP3    H156531   2.161   3.468   3.793 -1.7698  1.6019 -1.6331
11680TIP3    H256532   2.249   3.428   3.676  0.0193  0.0973  0.1840
11681TIP3   OH256533   1.060   2.155   3.561 -0.1838  0.3401  0.3132
11681TIP3    H156534   1.109   2.104   3.497 -0.6060 -2.3425  2.0532
11681TIP3    H256535   0.977   2.174   3.517 -0.3754 -1.2652 -0.0567
11682TIP3   OH256536   0.649   0.712  13.918  0.3513 -0.6217  0.1656
11682TIP3    H156537   0.569   0.664  13.937  1.4469 -2.6037 -0.1267
11682TIP3    H256538   0.619   0.794  13.878 -1.4691 -1.9760 -1.3352
11683TIP3   OH256539   4.941   3.058   5.178 -0.3915 -0.2305  0.2324
11683TIP3    H156540   4.906   3.107   5.253 -0.1306 -0.7758  0.7189
11683TIP3    H256541   4.915   2.967   5.195  0.2823 -0.4665  0.0184
11684TIP3   OH256542   1.149   2.712  17.093  0.4606 -0.6493  0.5929
11684TIP3    H156543   1.163   2.801  17.060  2.4334 -0.1557  2.5947
11684TIP3    H256544   1.121   2.662  17.017  1.8426  1.1103 -1.1336
11685TIP3   OH256545   0.654   6.286   6.278 -0.0080  0.3995  0.2322
11685TIP3    H156546   0.735   6.235   6.285 -0.2769  0.0901  1.0629
11685TIP3    H256547   0.648   6.307   6.185 -0.0858 -1.3986 -0.1945
11686TIP3   OH256548   2.773   0.843  12.863  0.5283 -0.5731  0.0982
11686TIP3    H156549   2.761   0.800  12.778 -0.5402 -1.0623  0.4925
11686TIP3    H256550   2.685   0.873  12.888  1.0291  0.6295  0.4791
11687TIP3   OH256551   2.119   6.223  14.292 -0.2481  0.1952  0.0764
11687TIP3    H156552   2.056   6.281  14.248 -0.3135 -1.5473 -2.2495
11687TIP3    H256553   2.064   6.166  14.346 -0.4319  0.4231  0.1324
11688TIP3   OH256554   5.432   5.747  16.282 -0.1503  0.0118 -0.2733
11688TIP3    H156555   5.383   5.820  16.319 -0.0554  0.0505 -0.2273
11688TIP3    H256556   5.507   5.787  16.238 -0.3071 -0.0270 -0.5778
11689TIP3   OH256557   3.305   1.987  11.007  0.3214 -0.5525 -0.0705
11689TIP3    H156558   3.222   2.012  10.966  0.7072 -0.0833 -0.5737
11689TIP3    H256559   3.346   1.927  10.944  1.2882  0.8086 -0.7720
11690TIP3   OH256560   5.619   5.315   6.764  0.2208 -0.3594 -0.0505
11690TIP3    H156561   5.575   5.250   6.709  0.4770 -0.1804 -0.4618
11690TIP3    H256562   5.712   5.298   6.751  0.2952  0.3146 -0.4212
11691TIP3   OH256563   4.421   4.684   1.134  0.7807  0.0980  0.0091
11691TIP3    H156564   4.361   4.697   1.061  1.0768  1.5625  0.0047
11691TIP3    H256565   4.505   4.664   1.093  0.5814 -0.7553 -0.0042
11692TIP3   OH256566   5.828   0.978  12.208  0.3775 -0.1536  0.2480
11692TIP3    H156567   5.818   0.923  12.130  0.5408  1.1873 -0.7517
11692TIP3    H256568   5.751   0.959  12.261  0.4462 -1.3542 -0.0726
11693TIP3   OH256569   2.691   1.181  10.787  0.7003 -0.0841  0.1929
11693TIP3    H156570   2.754   1.109  10.781  1.9993  0.9346  1.2861
11693TIP3    H256571   2.743   1.256  10.814 -0.3859  1.6193 -2.2524
11694TIP3   OH256572   5.375   5.612  15.864  0.1855  0.6603  0.1619
11694TIP3    H156573   5.395   5.538  15.922  0.1552  0.9178  0.5046
11694TIP3    H256574   5.337   5.678  15.922  0.6872  1.1416 -0.0494
11695TIP3   OH256575   2.694   4.265   2.063 -0.3152  0.2499 -0.1383
11695TIP3    H156576   2.759   4.292   1.998 -0.0468  1.3968  0.6055
11695TIP3    H256577   2.691   4.169   2.054  1.0081  0.2335 -0.6339
11696TIP3   OH256578   3.662   4.252   0.565 -0.0372 -0.0370 -1.2395
11696TIP3    H156579   3.733   4.218   0.511  0.4802 -0.7587 -0.1354
11696TIP3    H256580   3.702   4.266   0.651 -1.0785  0.1558 -0.7779
11697TIP3   OH256581   5.121   3.844   3.807  0.0049  0.1161  0.0240
11697TIP3    H156582   5.174   3.881   3.877  0.2039 -1.6036  0.8217
11697TIP3    H256583   5.095   3.757   3.840 -1.5996  0.1045 -1.1857
11698TIP3   OH256584   3.567   5.088  16.626 -1.1301  0.4245  0.4547
11698TIP3    H156585   3.602   5.175  16.644 -1.3726  0.8834 -1.2511
11698TIP3    H256586   3.591   5.070  16.535 -0.1235 -1.7587  1.1053
11699TIP3   OH256587   2.913   6.602  16.605  0.2330  0.4921 -0.1849
11699TIP3    H156588   2.900   6.697  16.610 -0.0539  0.4668 -0.5041
11699TIP3    H256589   2.852   6.566  16.670  1.2120  0.6031  0.8202
11700TIP3   OH256590   5.878   3.379   1.025 -0.4728 -0.2469 -0.2483
11700TIP3    H156591   5.836   3.420   0.949  0.7094 -0.3113 -0.9381
11700TIP3    H256592   5.970   3.372   1.002  0.0573  0.4751  1.5238
11701TIP3   OH256593   3.880   0.439  15.318  0.4921 -0.2170 -0.1211
11701TIP3    H156594   3.947   0.472  15.377  2.2367 -0.6408 -1.8415
11701TIP3    H256595   3.797   0.456  15.364  1.6415  2.0162  1.1881
11702TIP3   OH256596   6.560   2.015  11.287 -0.3552  0.2263 -0.0271
11702TIP3    H156597   6.609   2.040  11.208  0.2283 -0.2416  0.1922
11702TIP3    H256598   6.471   1.999  11.255 -0.5370  1.7413 -0.3146
11703TIP3   OH256599   4.089   3.766  15.790 -0.6837  0.0054  0.5887
11703TIP3    H156600   4.086   3.682  15.836 -2.4296 -0.4328 -0.2649
11703TIP3    H256601   4.077   3.743  15.698  1.2649  1.0024  0.0620
11704TIP3   OH256602   0.490   3.023   1.871  0.1492 -0.2002 -0.0930
11704TIP3    H156603   0.520   2.958   1.808 -1.6895 -1.1279 -0.0294
11704TIP3    H256604   0.418   3.068   1.828  0.9457  1.3344  0.1378
11705TIP3   OH256605   0.727   6.160   1.967  0.3333 -0.5629  0.1909
11705TIP3    H156606   0.712   6.240   1.917  2.3732  0.5184  1.2662
11705TIP3    H256607   0.660   6.099   1.935 -0.0799  0.9588 -1.9417
11706TIP3   OH256608   2.508   4.271  12.024  0.5639 -0.1914 -0.1445
11706TIP3    H156609   2.571   4.218  11.975  0.1046 -0.4438 -0.4680
11706TIP3    H256610   2.454   4.312  11.957 -0.8074 -1.4485  0.1463
11707TIP3   OH256611   1.991   5.100  17.224 -0.3419  0.1714 -0.0651
11707TIP3    H156612   1.903   5.092  17.186 -1.0684 -0.4081  1.7104
11707TIP3    H256613   2.048   5.055  17.161 -1.7607 -2.3214  0.3560
11708TIP3   OH256614   2.989   4.514  12.501  0.4188 -0.1738 -0.2805
11708TIP3    H156615   3.052   4.584  12.484  1.2256 -0.4882  1.2451
11708TIP3    H256616   3.041   4.434  12.499 -0.1906 -0.5679 -0.4112
11709TIP3   OH256617   2.130   2.062  12.958 -0.2687  0.3112 -0.1079
11709TIP3    H156618   2.043   2.100  12.943  0.5326  1.3804 -2.3865
11709TIP3    H256619   2.139   1.997  12.889  0.3375 -0.5331  0.7624
11710TIP3   OH256620   5.429   0.197  17.100 -0.4520 -0.4181 -0.8939
11710TIP3    H156621   5.485   0.266  17.066 -0.6939 -1.2067 -2.9894
11710TIP3    H256622   5.341   0.220  17.069 -0.5395 -1.6156 -1.5897
11711TIP3   OH256623   6.670   0.664  13.504 -0.5105  0.3265 -0.3095
11711TIP3    H156624   6.596   0.614  13.468 -0.7357  0.4914 -0.0791
11711TIP3    H256625   6.677   0.635  13.594 -0.5833  0.6416 -0.2022
11712TIP3   OH256626   2.982   0.753   4.947 -0.2062  0.2899 -0.1426
11712TIP3    H156627   2.980   0.657   4.948 -0.2389  0.2922  1.2033
11712TIP3    H256628   2.980   0.778   5.039  1.2186  1.5763 -0.4408
11713TIP3   OH256629   4.145   2.282  11.320 -0.0925 -0.2992 -0.2325
11713TIP3    H156630   4.206   2.320  11.384  0.2927  0.0232 -0.7814
11713TIP3    H256631   4.196   2.213  11.277 -0.4003 -0.6189 -0.0947
11714TIP3   OH256632   2.623   4.830  11.865 -0.6944 -0.3728 -0.5185
11714TIP3    H156633   2.708   4.790  11.886  0.8323  1.7933 -2.2620
11714TIP3    H256634   2.568   4.756  11.838  1.3198 -1.5881 -1.4679
11715TIP3   OH256635   1.260   4.249  15.177 -0.3434 -0.2211  0.2149
11715TIP3    H156636   1.249   4.289  15.263  0.1049 -0.2563  0.2882
11715TIP3    H256637   1.191   4.183  15.172 -0.0482 -0.5748  0.7555
11716TIP3   OH256638   0.825   5.378   3.400 -0.6923 -0.5396 -0.1936
11716TIP3    H156639   0.784   5.291   3.409  1.6302 -1.3766  3.1404
11716TIP3    H256640   0.889   5.367   3.330 -0.5082 -1.4952  0.1186
11717TIP3   OH256641   5.147   2.041   3.862 -0.1411 -0.1121  0.2750
11717TIP3    H156642   5.121   2.102   3.931  2.3582  1.6932 -0.2878
11717TIP3    H256643   5.145   2.093   3.782 -0.0258 -1.3517 -0.5411
11718TIP3   OH256644   3.407   1.101   3.912  0.1901 -0.1276 -0.1039
11718TIP3    H156645   3.391   1.195   3.926  1.2087 -0.0690  0.6436
11718TIP3    H256646   3.341   1.058   3.966 -1.3354  0.1420 -1.6741
11719TIP3   OH256647   2.686   3.074  11.276 -0.2436  0.3164  0.4561
11719TIP3    H156648   2.593   3.052  11.274 -0.3042  0.6191 -0.3320
11719TIP3    H256649   2.699   3.120  11.359 -0.5530 -0.7648  1.1197
11720TIP3   OH256650   4.383   1.708   3.677  0.5176 -0.4186  0.3534
11720TIP3    H156651   4.338   1.763   3.614  1.7282  0.5900  0.3437
11720TIP3    H256652   4.313   1.665   3.725 -0.4227 -0.5832 -1.1332
11721TIP3   OH256653   3.270   4.760  16.404  0.0517  0.1459 -0.4797
11721TIP3    H156654   3.266   4.853  16.429 -0.6962 -0.2800  1.0532
11721TIP3    H256655   3.296   4.761  16.312  2.5688  1.7787  0.2005
11722TIP3   OH256656   4.574   0.965  13.091 -0.2299  0.2210  0.1093
11722TIP3    H156657   4.605   1.039  13.143  0.1176  0.9902 -1.1561
11722TIP3    H256658   4.591   0.991  13.000 -0.5744 -1.2008 -0.3764
11723TIP3   OH256659   4.415   4.084   1.902  0.2551  0.2444  0.1422
11723TIP3    H156660   4.367   4.076   1.984  0.9518 -0.4019  0.4886
11723TIP3    H256661   4.441   4.177   1.898 -0.6107  0.4899  0.1771
11724TIP3   OH256662   5.880   4.047  16.278 -0.3922 -0.2988  0.3258
11724TIP3    H156663   5.787   4.042  16.255 -1.0291  2.8966  1.8258
11724TIP3    H256664   5.925   4.027  16.196 -2.4663  0.7420 -1.1480
11725TIP3   OH256665   2.179   2.849   5.628 -0.0930 -0.5281  0.0555
11725TIP3    H156666   2.112   2.876   5.565 -1.1515 -1.3531  0.8172
11725TIP3    H256667   2.130   2.809   5.700  1.2282 -1.3423  0.5192
11726TIP3   OH256668   3.316   4.269   4.991  0.3076  0.1401 -0.4784
11726TIP3    H156669   3.278   4.188   4.955 -2.2604  0.6118  1.0269
11726TIP3    H256670   3.342   4.245   5.080  1.6951  0.3930 -0.8015
11727TIP3   OH256671   2.666   1.259   3.678 -0.3444 -0.0906 -0.2266
11727TIP3    H156672   2.716   1.328   3.635 -1.3028  1.9785  1.8526
11727TIP3    H256673   2.621   1.304   3.750 -2.0118 -2.6502  0.3846
11728TIP3   OH256674   4.287   6.262  12.700  0.0852 -0.2263 -0.1121
11728TIP3    H156675   4.274   6.167  12.703 -0.0697 -0.2089 -0.2165
11728TIP3    H256676   4.221   6.293  12.638  0.8204 -0.1660 -0.8697
11729TIP3   OH256677   4.067   6.143   1.349 -0.6929  0.4267 -0.0392
11729TIP3    H156678   4.046   6.127   1.441 -1.2706  1.4206  0.0024
11729TIP3    H256679   4.152   6.185   1.350 -0.4957  0.0302  0.0126
11730TIP3   OH256680   1.526   2.872   1.483  0.2004  0.4628  0.3204
11730TIP3    H156681   1.573   2.933   1.539  0.5518 -0.9729  1.6093
11730TIP3    H256682   1.578   2.792   1.485 -0.1841  0.1422 -1.4528
11731TIP3   OH256683   3.321   1.373  17.176 -0.5343  0.3765 -0.0687
11731TIP3    H156684   3.326   1.280  17.155  0.8134  0.5066 -0.3915
11731TIP3    H256685   3.329   1.417  17.092  0.3846  0.8122  0.2404
11732TIP3   OH256686   0.946   0.804  14.069  0.5805  0.1171 -0.5521
11732TIP3    H156687   0.903   0.884  14.041  0.3474  0.4513  0.7402
11732TIP3    H256688   1.026   0.833  14.113  0.0202 -0.2965  0.7754
11733TIP3   OH256689   4.525   6.358   0.958 -0.4002  0.6198  0.0089
11733TIP3    H156690   4.601   6.307   0.931  0.7882  0.4220  3.4543
11733TIP3    H256691   4.559   6.447   0.968 -1.6335  1.4063 -2.4571
11734TIP3   OH256692   0.931   6.451   4.103 -0.1370  0.9253 -0.0479
11734TIP3    H156693   0.876   6.462   4.180  0.2234 -0.7313  0.4752
11734TIP3    H256694   0.920   6.359   4.079  0.6971  1.1223 -1.2527
11735TIP3   OH256695   0.704   5.912   6.278  0.0223  0.5114 -0.9004
11735TIP3    H156696   0.777   5.969   6.305  0.0133 -0.1544  0.6219
11735TIP3    H256697   0.725   5.887   6.188  1.8634  0.0796 -0.3822
11736TIP3   OH256698   2.838   3.398   6.432 -0.0843  0.2319  0.4619
11736TIP3    H156699   2.749   3.432   6.439  0.1707  1.6127 -2.5190
11736TIP3    H256700   2.864   3.415   6.342  2.6589 -1.5552  0.8498
11737TIP3   OH256701   3.412   4.647  15.011  0.2687 -0.0012  0.5192
11737TIP3    H156702   3.436   4.580  14.946 -0.3491  0.1942  0.0766
11737TIP3    H256703   3.374   4.598  15.083  0.8071 -0.2090  0.6638
11738TIP3   OH256704   5.197   0.553  11.347  0.1625 -0.3659 -0.4311
11738TIP3    H156705   5.107   0.526  11.326  0.0750 -1.9844  1.9329
11738TIP3    H256706   5.194   0.649  11.342 -1.3974 -0.4411 -1.4917
11739TIP3   OH256707   5.279   6.424   0.770  0.1962 -0.4390 -0.1004
11739TIP3    H156708   5.312   6.426   0.860 -1.7538 -2.4963  0.7224
11739TIP3    H256709   5.315   6.344   0.733 -1.6399 -1.3436 -0.0217
11740TIP3   OH256710   0.904   2.937   1.932 -0.1679 -0.2465 -0.2481
11740TIP3    H156711   0.851   2.901   1.862 -3.6401  1.3478  1.4052
11740TIP3    H256712   0.943   2.861   1.975 -2.0078 -1.5760 -0.8672
11741TIP3   OH256713   6.347   5.069   2.865  0.0430 -0.8884  0.0115
11741TIP3    H156714   6.380   5.130   2.931 -1.9275 -0.6361  0.7738
11741TIP3    H256715   6.427   5.033   2.825  1.2578 -0.5055  2.0052
11742TIP3   OH256716   2.835   4.701  16.891 -0.2628 -0.2446  0.0270
11742TIP3    H156717   2.910   4.759  16.881 -0.9355  0.5430 -0.6516
11742TIP3    H256718   2.819   4.697  16.985  0.9227 -0.8001  0.1993
11743TIP3   OH256719   3.814   4.361  15.782  0.4835  0.5084 -0.0494
11743TIP3    H156720   3.796   4.420  15.854  1.0828 -1.7185  2.0157
11743TIP3    H256721   3.786   4.408  15.704 -2.9092  1.8523  1.8883
11744TIP3   OH256722   4.179   2.551  11.236  0.2775 -0.1188  0.0699
11744TIP3    H156723   4.172   2.464  11.275  0.8292 -0.6121 -0.9212
11744TIP3    H256724   4.226   2.537  11.154 -0.4364  0.9926 -0.5328
11745TIP3   OH256725   5.938   0.231  12.251  0.6094 -0.0950 -0.1960
11745TIP3    H156726   5.848   0.253  12.226  0.0177 -0.9467  1.1319
11745TIP3    H256727   5.973   0.183  12.177  0.6729  2.0154 -1.5940
11746TIP3   OH256728   0.478   6.021  14.109  0.7383 -0.1085  0.2056
11746TIP3    H156729   0.503   6.113  14.119 -0.2351  0.3056 -0.9585
11746TIP3    H256730   0.403   6.024  14.049  1.3618 -1.7547 -0.6634
11747TIP3   OH256731   6.319   3.054  17.158  0.0781 -0.4114 -0.8469
11747TIP3    H156732   6.310   2.964  17.190  2.2144 -0.6369 -0.8611
11747TIP3    H256733   6.387   3.093  17.213 -1.6959  1.6058 -0.0119
11748TIP3   OH256734   6.028   0.185  15.745  0.2394 -0.7381 -0.2640
11748TIP3    H156735   6.077   0.240  15.685 -0.4250  1.2967  1.0286
11748TIP3    H256736   5.936   0.202  15.723 -0.0059  0.0683  1.3722
11749TIP3   OH256737   0.761   4.806  14.717 -0.1695  0.1672 -0.3110
11749TIP3    H156738   0.749   4.778  14.626 -0.5515  0.6730 -0.4153
11749TIP3    H256739   0.855   4.824  14.724 -0.1882  0.4253 -0.6909
11750TIP3   OH256740   6.594   3.651  13.813  0.4448  0.7707  0.3032
11750TIP3    H156741   6.637   3.703  13.881  1.3459 -0.3859  0.6314
11750TIP3    H256742   6.656   3.581  13.794 -0.8794 -0.3416  0.0570
11751TIP3   OH256743   3.913   5.516   1.387  0.5397 -0.0749 -0.1715
11751TIP3    H156744   3.847   5.460   1.347 -2.1326  1.5830  1.7015
11751TIP3    H256745   3.978   5.456   1.421 -1.0101 -1.9058 -0.3663
11752TIP3   OH256746   3.736   4.204  15.102 -0.0568 -0.3625 -0.5609
11752TIP3    H156747   3.720   4.223  15.194  1.0082  1.4862 -0.7427
11752TIP3    H256748   3.657   4.159  15.073 -0.8680  0.0477  0.9777
11753TIP3   OH256749   3.028   6.104   1.288 -0.2858  0.4347  0.2854
11753TIP3    H156750   3.045   6.184   1.339  0.3135  0.9717 -0.7515
11753TIP3    H256751   3.088   6.039   1.324 -0.0081  0.7556  0.4025
11754TIP3   OH256752   2.494   3.240  15.759 -0.4102 -0.4956 -0.5486
11754TIP3    H156753   2.401   3.243  15.781 -0.2399  1.3077 -0.0632
11754TIP3    H256754   2.537   3.290  15.828  0.8274 -0.4488 -1.3416
11755TIP3   OH256755   2.351   2.532  13.092 -0.0349 -0.1565  0.3686
11755TIP3    H156756   2.429   2.586  13.078  0.4029 -1.0476 -0.6990
11755TIP3    H256757   2.380   2.464  13.153  0.0536 -0.5596 -0.1253
11756TIP3   OH256758   5.965   1.018   5.852  0.0743  0.7042  0.3735
11756TIP3    H156759   6.000   1.095   5.807  2.4549 -0.1321  0.7047
11756TIP3    H256760   6.015   0.945   5.816 -0.9093 -0.4703  1.3540
11757TIP3   OH256761   0.922   0.146   2.714  0.1177  0.1328 -0.0182
11757TIP3    H156762   0.896   0.054   2.708  1.1104 -0.1277 -0.5236
11757TIP3    H256763   0.840   0.194   2.722 -0.5776 -0.6087 -2.2574
11758TIP3   OH256764   2.325   5.925   1.329 -0.3120  0.0211 -0.5013
11758TIP3    H156765   2.264   5.982   1.282 -1.2255 -0.8099 -0.3277
11758TIP3    H256766   2.308   5.943   1.422 -2.6740 -2.6565 -0.3697
11759TIP3   OH256767   4.673   6.202  13.310  0.2850 -0.3101  0.3123
11759TIP3    H156768   4.607   6.266  13.334 -1.4363 -1.3133 -1.5594
11759TIP3    H256769   4.755   6.237  13.346 -1.2675  0.8067  2.9327
11760TIP3   OH256770   2.662   5.775  13.844 -0.1662  0.5265 -0.1977
11760TIP3    H156771   2.636   5.694  13.802  1.2225  0.1972 -0.4548
11760TIP3    H256772   2.742   5.753  13.891 -0.9628  1.2134  1.5416
11761TIP3   OH256773   4.563   6.464  14.347  0.0788  0.3582  0.6322
11761TIP3    H156774   4.625   6.426  14.285 -0.1188  0.4994  0.3500
11761TIP3    H256775   4.617   6.496  14.419  0.2197 -0.8271  1.0705
11762TIP3   OH256776   5.069   3.632   0.069 -0.3667  0.1689  0.2079
11762TIP3    H156777   5.131   3.591   0.128 -0.6289  0.2244  0.5240
11762TIP3    H256778   5.024   3.560   0.025 -0.9167  0.1127  0.8560
11763TIP3   OH256779   6.093   6.449   1.655 -0.5832 -0.2536 -0.1905
11763TIP3    H156780   6.015   6.457   1.710  0.5078 -1.5999  1.5937
11763TIP3    H256781   6.137   6.533   1.663 -0.3291 -0.5154  1.1475
11764TIP3   OH256782   1.377   5.908   5.103 -0.0770 -0.3930  0.1530
11764TIP3    H156783   1.416   5.987   5.065 -0.8122 -1.2736 -2.6000
11764TIP3    H256784   1.284   5.928   5.110 -0.2421 -0.9407 -0.4082
11765TIP3   OH256785   5.477   5.415  13.100 -0.0133  0.0339 -0.4661
11765TIP3    H156786   5.563   5.457  13.103 -0.8641  2.4141 -4.9348
11765TIP3    H256787   5.416   5.486  13.119 -1.0920 -1.0979  0.2907
11766TIP3   OH256788   4.738   6.296   0.763  0.3858  0.7660 -0.2405
11766TIP3    H156789   4.742   6.392   0.763  0.5991  0.7624  1.1770
11766TIP3    H256790   4.656   6.276   0.718  0.2160  1.6253 -0.3210
11767TIP3   OH256791   0.854   4.694   5.272 -0.3443 -0.0409  0.5075
11767TIP3    H156792   0.811   4.622   5.317 -0.7893 -0.4869 -0.6248
11767TIP3    H256793   0.822   4.773   5.316 -0.8980 -0.4586  0.8485
11768TIP3   OH256794   0.889   2.400   4.881 -0.0653  0.0086 -0.2295
11768TIP3    H156795   0.904   2.365   4.793  0.6057  0.4643 -0.2975
11768TIP3    H256796   0.864   2.491   4.867 -0.5331 -0.0742  0.0263
11769TIP3   OH256797   0.603   1.613   3.261 -0.0922 -0.1574 -0.6242
11769TIP3    H156798   0.537   1.608   3.192 -3.0021 -1.9277  2.1650
11769TIP3    H256799   0.567   1.676   3.324  1.2638 -0.5008  0.5241
11770TIP3   OH256800   0.307   6.555   3.584 -0.0846 -0.2304 -0.1258
11770TIP3    H156801   0.238   6.518   3.639 -0.6774  0.9455 -0.0608
11770TIP3    H256802   0.284   6.527   3.495 -0.1381 -0.6143  0.0089
11771TIP3   OH256803   1.777   6.124   4.448 -0.2637 -0.4918 -0.1657
11771TIP3    H156804   1.774   6.057   4.380  0.1506 -1.3159  0.6193
11771TIP3    H256805   1.861   6.168   4.436 -0.3587 -0.3822 -0.4273
11772TIP3   OH256806   1.689   1.672   5.789  0.0181 -0.7731  0.3183
11772TIP3    H156807   1.703   1.671   5.884  0.1168 -1.4650  0.2999
11772TIP3    H256808   1.734   1.751   5.760 -1.5240  0.4092  1.0593
11773TIP3   OH256809   6.045   6.000  14.005 -0.4482  0.3490 -0.8158
11773TIP3    H156810   6.132   6.004  13.966  0.2839  0.5112  0.7987
11773TIP3    H256811   6.030   6.088  14.039 -0.9308  0.1170 -0.4253
11774TIP3   OH256812   4.635   3.681   6.384  0.5730 -0.2727 -0.2852
11774TIP3    H156813   4.591   3.602   6.413  0.7031  0.2240  1.2833
11774TIP3    H256814   4.565   3.736   6.348  0.5098 -1.1566 -1.5494
11775TIP3   OH256815   5.100   1.877   2.191  0.1898 -0.2824  0.5147
11775TIP3    H156816   5.101   1.927   2.272  1.9802 -1.2017  1.0913
11775TIP3    H256817   5.174   1.910   2.141  0.1662 -0.9469  0.0298
11776TIP3   OH256818   1.162   1.341  14.079 -0.3991  0.0626  0.5035
11776TIP3    H156819   1.143   1.409  14.014  0.6552 -3.3087 -3.5589
11776TIP3    H256820   1.089   1.280  14.071  0.9757 -1.6429  0.6981
11777TIP3   OH256821   6.814   2.068   6.575 -0.0302 -0.6333  0.0876
11777TIP3    H156822   6.753   2.048   6.646  1.0094 -0.3074  1.0986
11777TIP3    H256823   6.838   1.983   6.539 -0.9717 -0.7687 -0.2191
11778TIP3   OH256824   3.220   4.526   3.375 -0.1804 -0.4815 -0.4257
11778TIP3    H156825   3.243   4.435   3.393  0.9235 -0.3538 -1.1790
11778TIP3    H256826   3.126   4.531   3.396 -0.4539 -1.9971 -1.1869
11779TIP3   OH256827   1.303   4.242  11.016  0.2317  0.0925 -0.2815
11779TIP3    H156828   1.282   4.290  11.096 -0.0982  0.8388 -0.8145
11779TIP3    H256829   1.219   4.207  10.986  0.4206 -0.5427 -0.0718
11780TIP3   OH256830   5.411   0.113   2.083 -0.1724  0.0416 -0.2938
11780TIP3    H156831   5.448   0.202   2.084  1.9446 -0.8097  0.1889
11780TIP3    H256832   5.484   0.057   2.108 -2.0939 -1.6296  1.7475
11781TIP3   OH256833   5.840   3.360  13.053 -0.1661 -0.1756  0.5888
11781TIP3    H156834   5.745   3.369  13.062 -0.2543  1.5516 -1.6341
11781TIP3    H256835   5.874   3.447  13.075  0.6771 -0.0267 -1.2536
11782TIP3   OH256836   3.128   0.693  16.740  0.0886 -0.3344  0.1492
11782TIP3    H156837   3.139   0.609  16.785  0.2213 -0.8954 -0.9026
11782TIP3    H256838   3.088   0.669  16.656  1.3435  0.5157 -0.7037
11783TIP3   OH256839   4.282   0.766   2.069  0.7079  0.1538  0.6075
11783TIP3    H156840   4.340   0.692   2.051 -0.1990 -0.6505  0.9301
11783TIP3    H256841   4.249   0.750   2.158  0.5458  0.9686  0.6951
11784TIP3   OH256842   1.125   1.518   0.667  0.5279  0.1985  0.4267
11784TIP3    H156843   1.214   1.520   0.704  0.5404 -0.7730  0.4527
11784TIP3    H256844   1.089   1.435   0.697 -0.0350  0.1402 -0.4238
11785TIP3   OH256845   4.740   3.751  15.808 -0.2070  0.9762 -0.6804
11785TIP3    H156846   4.763   3.731  15.717  1.1385 -1.1088  0.0884
11785TIP3    H256847   4.645   3.765  15.806 -0.4236 -0.4984 -2.1544
11786TIP3   OH256848   1.936   0.819   6.041 -0.8272  0.1807  0.2588
11786TIP3    H156849   1.909   0.730   6.064 -1.0692  0.0146 -0.6357
11786TIP3    H256850   2.031   0.817   6.042 -0.8327 -0.0747  0.3009
11787TIP3   OH256851   3.542   6.296   1.000 -0.0067 -0.2697 -0.6462
11787TIP3    H156852   3.574   6.270   1.087 -2.2225 -2.5951 -0.4495
11787TIP3    H256853   3.589   6.238   0.940  0.1554  0.0444 -0.8187
11788TIP3   OH256854   1.213   2.864  12.551  0.2762  0.0877  0.0158
11788TIP3    H156855   1.150   2.802  12.588  0.2624  0.3640  0.4581
11788TIP3    H256856   1.164   2.945  12.542  0.7013  0.4363  0.8154
11789TIP3   OH256857   1.159   6.328   3.537 -0.4263  0.5666  0.0748
11789TIP3    H156858   1.076   6.323   3.490 -0.2130  1.6505 -0.4231
11789TIP3    H256859   1.209   6.252   3.507 -1.1518  0.0274  0.2279
11790TIP3   OH256860   2.462   2.369  11.230  0.2234 -0.5869 -0.1832
11790TIP3    H156861   2.518   2.438  11.265 -2.1036  0.0766  2.4242
11790TIP3    H256862   2.468   2.379  11.135  1.8905  1.5689  0.1096
11791TIP3   OH256863   1.116   2.919   5.458  0.0483 -0.7556  0.0113
11791TIP3    H156864   1.141   2.828   5.446  0.6250 -0.5968  0.0100
11791TIP3    H256865   1.137   2.939   5.549  2.2675  0.1016 -0.6634
11792TIP3   OH256866   2.615   1.690  16.242 -0.7100  0.4886  0.1912
11792TIP3    H156867   2.618   1.738  16.159 -2.9714  0.0163 -0.1972
11792TIP3    H256868   2.684   1.624  16.234  0.0528  1.3772 -0.7092
11793TIP3   OH256869   5.430   0.928  14.577  0.4968  0.2720  0.3456
11793TIP3    H156870   5.361   0.891  14.522 -0.5381 -0.1445  1.8915
11793TIP3    H256871   5.462   1.003  14.527 -0.2113 -0.2581 -0.9500
11794TIP3   OH256872   2.462   5.116  13.664  0.2709 -0.1122 -0.1492
11794TIP3    H156873   2.432   5.029  13.637 -0.4713 -0.1197  0.6483
11794TIP3    H256874   2.485   5.106  13.757 -1.2948  0.8866  0.3722
11795TIP3   OH256875   3.840   1.018  12.920  0.1695 -0.7760 -0.3460
11795TIP3    H156876   3.863   0.929  12.948 -0.9003 -0.8707  0.2338
11795TIP3    H256877   3.861   1.019  12.827  0.3892 -1.5720 -0.3135
11796TIP3   OH256878   0.174   5.065  15.765 -0.3085 -0.8376 -0.9697
11796TIP3    H156879   0.138   5.136  15.819  0.7757  0.1112 -1.4970
11796TIP3    H256880   0.097   5.016  15.737 -0.9744 -0.7242  0.5681
11797TIP3   OH256881   1.517   6.597  16.447  0.2974 -0.3698  0.7145
11797TIP3    H156882   1.564   6.531  16.498 -0.3748 -1.6192 -0.2215
11797TIP3    H256883   1.585   6.647  16.403  0.8247 -0.4535  1.4399
11798TIP3   OH256884   5.786   2.430  14.813  0.5528 -0.3022  0.1375
11798TIP3    H156885   5.766   2.523  14.817 -3.2999 -1.0346 -0.4313
11798TIP3    H256886   5.773   2.398  14.902 -1.2787 -0.8424 -0.3007
11799TIP3   OH256887   6.769   3.770   5.604  0.0613  0.5528  0.2234
11799TIP3    H156888   6.807   3.745   5.688  0.1643  0.4746  0.1548
11799TIP3    H256889   6.737   3.687   5.568 -1.3127  0.8016  0.8468
11800TIP3   OH256890   2.908   4.582   1.461  0.4704 -0.2440  0.3376
11800TIP3    H156891   2.955   4.539   1.390 -1.1334  0.7802 -1.3854
11800TIP3    H256892   2.949   4.668   1.469  0.4562 -0.2468  0.4442
11801TIP3   OH256893   1.473   4.369   0.493  0.2563  0.1068  0.4606
11801TIP3    H156894   1.447   4.459   0.513  0.6770  0.7342 -1.5877
11801TIP3    H256895   1.392   4.323   0.473  0.3546  1.2601 -2.9310
11802TIP3   OH256896   4.861   2.663  14.305  0.2233 -0.0562 -0.1912
11802TIP3    H156897   4.884   2.571  14.295  0.0905 -0.0696 -0.3741
11802TIP3    H256898   4.944   2.710  14.295  0.2141 -0.1239 -0.5917
11803TIP3   OH256899   0.969   2.565   4.122  0.5216  0.3523  0.4369
11803TIP3    H156900   0.953   2.481   4.165 -1.2756 -0.2126 -1.2757
11803TIP3    H256901   0.883   2.594   4.091  1.8010  0.2108 -3.6628
11804TIP3   OH256902   0.118   5.162   3.202 -0.0902 -0.3102  0.5205
11804TIP3    H156903   0.166   5.165   3.284 -1.2931  0.7681  1.2010
11804TIP3    H256904   0.177   5.202   3.138  0.7856 -1.0138  0.8834
11805TIP3   OH256905   1.780   3.539  13.924  0.2553 -0.1364 -0.5869
11805TIP3    H156906   1.841   3.549  13.997 -0.9643  1.4698  0.2424
11805TIP3    H256907   1.694   3.535  13.966 -0.4995  1.3891 -1.9575
11806TIP3   OH256908   6.200   0.816  15.135  0.1347 -0.1674 -0.3777
11806TIP3    H156909   6.234   0.904  15.119 -0.4665  0.3059  0.8600
11806TIP3    H256910   6.112   0.817  15.098 -1.0915  0.7921  2.4278
11807TIP3   OH256911   0.555   2.839  17.160 -0.2742 -0.4649  0.0681
11807TIP3    H156912   0.541   2.923  17.117  2.3559 -0.4517 -0.8336
11807TIP3    H256913   0.616   2.793  17.103  0.3693 -1.9295  1.8922
11808TIP3   OH256914   3.076   3.958  13.039  0.0153 -0.2802 -0.4216
11808TIP3    H156915   3.068   3.933  12.947  3.0805  0.9187 -1.0720
11808TIP3    H256916   3.169   3.950  13.058 -0.5744 -0.5186  2.6060
11809TIP3   OH256917   4.438   0.716   2.891  0.5153 -0.0436  0.1065
11809TIP3    H156918   4.512   0.679   2.938 -0.0300 -0.1224  0.9164
11809TIP3    H256919   4.477   0.770   2.822  1.4120  2.9063  2.7994
11810TIP3   OH256920   3.686   1.860  16.400 -0.5104  0.1978  0.2003
11810TIP3    H156921   3.766   1.863  16.348 -1.9784 -0.6646 -2.2556
11810TIP3    H256922   3.632   1.931  16.364 -2.1864 -1.4391 -0.6463
11811TIP3   OH256923   4.663   1.072  12.574 -0.0665 -0.1532  0.0512
11811TIP3    H156924   4.721   1.134  12.531 -0.0193  0.9222  1.6423
11811TIP3    H256925   4.703   0.986  12.557  1.1218  0.4364 -0.1836
11812TIP3   OH256926   1.925   4.514   2.751  0.0357 -0.3704  0.0422
11812TIP3    H156927   1.857   4.561   2.799 -1.2093 -0.0798 -1.9292
11812TIP3    H256928   2.006   4.532   2.799 -1.0286  0.6330  1.4928
11813TIP3   OH256929   1.976   4.136   1.273  0.0218 -0.2510  0.2604
11813TIP3    H156930   1.907   4.201   1.259  0.6811 -0.0583 -2.3230
11813TIP3    H256931   2.055   4.188   1.289  0.5095 -0.3544 -1.6142
11814TIP3   OH256932   0.847   2.739   2.683  0.0707 -0.7643  0.3426
11814TIP3    H156933   0.839   2.712   2.775 -0.7965 -2.8471 -0.3024
11814TIP3    H256934   0.940   2.728   2.663  0.3340  0.0817  1.0823
11815TIP3   OH256935   6.274   2.660   3.538 -0.2861 -0.4620 -0.1960
11815TIP3    H156936   6.324   2.580   3.554  0.9300  0.4780  0.7363
11815TIP3    H256937   6.325   2.707   3.473 -0.5617 -0.0331 -0.1001
11816TIP3   OH256938   3.155   2.419  13.436  0.2523 -0.1614 -0.2763
11816TIP3    H156939   3.165   2.361  13.361 -2.5503  1.0132 -1.6378
11816TIP3    H256940   3.205   2.497  13.413 -0.7881  0.2880 -1.0690
11817TIP3   OH256941   1.232   6.739   6.576 -0.0459 -1.0695 -0.5126
11817TIP3    H156942   1.230   6.646   6.552  1.8815 -0.9062 -1.3347
11817TIP3    H256943   1.249   6.739   6.670  1.4644 -1.5199 -0.7857
11818TIP3   OH256944   4.408   5.270  13.413 -0.3446  0.7043 -0.4985
11818TIP3    H156945   4.496   5.304  13.429 -0.1292  0.3417 -0.8895
11818TIP3    H256946   4.371   5.256  13.500  0.3074  0.0421 -0.3263
11819TIP3   OH256947   5.479   5.557   4.456  0.0821 -0.6501  0.0533
11819TIP3    H156948   5.417   5.484   4.460 -0.0767 -0.6179 -1.5076
11819TIP3    H256949   5.435   5.629   4.500 -0.1421 -1.2228  0.7792
11820TIP3   OH256950   6.562   5.496   4.086 -0.3688  0.7846  0.0666
11820TIP3    H156951   6.573   5.466   4.177 -1.1344  0.1230 -0.0493
11820TIP3    H256952   6.484   5.552   4.089 -2.2782 -1.7024 -0.7145
11821TIP3   OH256953   0.319   0.471   4.228 -0.0534  0.1575  0.4611
11821TIP3    H156954   0.359   0.433   4.306 -0.6282 -0.4733  0.4577
11821TIP3    H256955   0.262   0.540   4.261  1.9741  1.9027  0.3730
11822TIP3   OH256956   0.734   3.887   4.832  0.5588 -0.4081 -0.2783
11822TIP3    H156957   0.829   3.890   4.848  0.2957 -0.5206  1.4022
11822TIP3    H256958   0.703   3.816   4.888 -0.5116 -0.4287 -0.8978
11823TIP3   OH256959   1.908   3.113  14.931  0.1000  0.0124 -0.9309
11823TIP3    H156960   1.847   3.136  15.002  1.4662 -0.3267  0.3840
11823TIP3    H256961   1.880   3.167  14.857 -1.4944  0.2154 -0.1961
11824TIP3   OH256962   6.543   3.413  15.200  0.1257  0.3071  0.4665
11824TIP3    H156963   6.500   3.380  15.279  0.4275 -0.5445  0.2763
11824TIP3    H256964   6.471   3.442  15.144 -0.2743 -2.0090 -0.2577
11825TIP3   OH256965   0.706   4.612  13.519 -0.2524  0.2804 -0.7266
11825TIP3    H156966   0.724   4.632  13.611  0.3534 -2.1255 -0.3038
11825TIP3    H256967   0.766   4.669  13.471  1.1907 -0.2257  0.4279
11826TIP3   OH256968   1.912   4.750   3.827 -0.3706  0.1786  0.2902
11826TIP3    H156969   1.971   4.823   3.850  0.2210  0.3217 -1.6321
11826TIP3    H256970   1.953   4.710   3.751 -1.0450 -1.7905  0.9513
11827TIP3   OH256971   5.168   6.082   5.924 -0.1781  1.2764 -0.3413
11827TIP3    H156972   5.122   6.099   5.842  0.5367  2.3086 -0.5425
11827TIP3    H256973   5.100   6.050   5.984 -0.6139  0.0448 -1.4631
11828TIP3   OH256974   4.592   3.579   0.974  0.1466  0.2342 -0.3960
11828TIP3    H156975   4.512   3.563   1.024 -0.0001 -1.0509 -1.0374
11828TIP3    H256976   4.566   3.640   0.905 -0.7173 -1.6199 -1.7338
11829TIP3   OH256977   6.119   4.767  17.127  0.9307 -0.2422  0.0141
11829TIP3    H156978   6.119   4.863  17.120  0.5284  0.0301  2.9708
11829TIP3    H256979   6.207   4.741  17.100  1.2140  1.0186 -0.3049
11830TIP3   OH256980   3.604   4.840   0.261  0.5203 -0.2747 -0.8022
11830TIP3    H156981   3.635   4.771   0.319 -0.2826 -0.0395 -0.0940
11830TIP3    H256982   3.511   4.849   0.280  0.5897  0.9259 -0.9631
11831TIP3   OH256983   3.302   2.690   2.950 -0.2555 -0.3059 -0.2793
11831TIP3    H156984   3.209   2.666   2.955  0.4738 -3.0303  1.4102
11831TIP3    H256985   3.348   2.609   2.972  2.4920  1.6088  1.2745
11832TIP3   OH256986   0.345   1.820   3.746  0.3614 -0.0763 -0.6671
11832TIP3    H156987   0.326   1.914   3.756 -2.0772 -0.5211 -0.8181
11832TIP3    H256988   0.278   1.777   3.799  0.9018 -1.7731 -1.3436
11833TIP3   OH256989   1.609   3.210  15.859 -0.1509 -0.0534 -0.7196
11833TIP3    H156990   1.576   3.149  15.793  0.8105 -2.6771  1.0809
11833TIP3    H256991   1.559   3.189  15.938  0.2328  1.4960 -0.0423
11834TIP3   OH256992   3.308   3.037   2.073  0.6456  0.3097  0.0536
11834TIP3    H156993   3.394   3.053   2.034  1.3173  0.5531  1.6113
11834TIP3    H256994   3.304   3.095   2.148  0.0993 -1.4004  1.3913
11835TIP3   OH256995   6.148   4.848   4.798  0.0790  1.3231  0.1440
11835TIP3    H156996   6.200   4.928   4.786 -1.3771  1.9892 -1.9429
11835TIP3    H256997   6.106   4.859   4.883  0.5941  2.3517  0.2751
11836TIP3   OH256998   0.196   5.935   4.703 -0.3447 -0.1242  0.0694
11836TIP3    H156999   0.125   5.899   4.756 -1.1289  0.1054 -0.8273
11836TIP3    H257000   0.157   6.007   4.655  1.1312  1.7281  1.5537
11837TIP3   OH257001   2.088   2.745  14.118 -0.0273  0.0232 -0.2915
11837TIP3    H157002   2.102   2.813  14.183  0.0219 -0.0098 -0.2674
11837TIP3    H257003   2.005   2.704  14.143  0.1305 -0.1706 -0.0895
11838TIP3   OH257004   0.686   4.419  11.614 -0.2236  0.7576 -0.2785
11838TIP3    H157005   0.686   4.397  11.708 -1.4306  3.7345  0.4837
11838TIP3    H257006   0.627   4.495  11.608  0.5124  1.1294 -3.3306
11839TIP3   OH257007   3.522   1.099  10.938  0.1004  0.0956 -0.1964
11839TIP3    H157008   3.551   1.015  10.901  0.4689  0.4511 -0.7224
11839TIP3    H257009   3.495   1.150  10.861  1.2822  1.0043 -0.0068
11840TIP3   OH257010   4.700   1.230   2.505 -0.6728 -0.3366 -0.2976
11840TIP3    H157011   4.770   1.284   2.468 -1.6395  0.5499 -0.8645
11840TIP3    H257012   4.682   1.269   2.591 -0.5305 -0.5091 -0.1894
11841TIP3   OH257013   2.133   6.415  13.270 -0.2444 -0.2095  0.2309
11841TIP3    H157014   2.219   6.384  13.239  0.1352  0.3920  0.6682
11841TIP3    H257015   2.094   6.458  13.194 -1.0464 -2.2702 -0.5753
11842TIP3   OH257016   2.831   1.911  11.946 -0.4723  0.4053 -0.3656
11842TIP3    H157017   2.829   1.852  11.870  1.1123  0.1038 -0.1803
11842TIP3    H257018   2.907   1.967  11.931 -1.5429  1.9438 -0.1745
11843TIP3   OH257019   0.194   2.163  13.868 -0.6877  0.0643 -0.2589
11843TIP3    H157020   0.275   2.194  13.909 -0.2524 -0.3537 -0.7927
11843TIP3    H257021   0.207   2.181  13.775 -0.2902 -2.0215 -0.6202
11844TIP3   OH257022   2.100   0.911  10.858 -0.1372 -0.2679 -0.8250
11844TIP3    H157023   2.130   0.987  10.807 -1.8202  0.0683 -1.3454
11844TIP3    H257024   2.168   0.845  10.844  1.5619  1.2604 -0.0251
11845TIP3   OH257025   0.864   5.605   2.058 -0.3905  0.2503 -0.0735
11845TIP3    H157026   0.770   5.619   2.071 -0.2289  1.1622  0.2157
11845TIP3    H257027   0.893   5.682   2.010 -0.0507 -0.7353 -1.4525
11846TIP3   OH257028   6.280   4.738  15.654 -0.2791  0.0736  0.2669
11846TIP3    H157029   6.279   4.676  15.582  0.8157 -1.3813  1.4571
11846TIP3    H257030   6.246   4.688  15.729 -0.4897  1.2635  0.9730
11847TIP3   OH257031   6.623   5.045  16.815 -0.4633  0.3567 -0.2757
11847TIP3    H157032   6.603   4.978  16.750  0.3423  0.5296 -0.7014
11847TIP3    H257033   6.561   5.116  16.795 -0.5895  0.1847 -0.5020
11848TIP3   OH257034   5.411   3.656  14.183  0.8823  0.9256  0.0587
11848TIP3    H157035   5.476   3.629  14.248 -0.5040 -2.1573  0.2767
11848TIP3    H257036   5.361   3.724  14.227 -0.0699 -1.1423  2.3400
11849TIP3   OH257037   0.836   5.850   4.416  0.5306 -1.0687 -0.2221
11849TIP3    H157038   0.856   5.858   4.323  0.5409  1.5888 -0.0501
11849TIP3    H257039   0.922   5.842   4.458  0.5236 -2.2993 -0.4446
11850TIP3   OH257040   3.892   1.020   0.616 -0.0861  0.2917 -0.0117
11850TIP3    H157041   3.940   1.094   0.579 -0.2463 -0.5330 -1.9179
11850TIP3    H257042   3.909   0.947   0.556 -2.3794 -0.4337  0.1445
11851TIP3   OH257043   3.297   0.470  12.739  0.5400  0.3624 -0.4680
11851TIP3    H157044   3.360   0.426  12.682  1.1352  0.0332  0.4312
11851TIP3    H257045   3.351   0.519  12.801 -0.0761 -0.6953  0.9225
11852TIP3   OH257046   1.232   0.572   4.208  0.7001  0.1686  0.4520
11852TIP3    H157047   1.239   0.556   4.302 -1.3276  2.7705  1.1186
11852TIP3    H257048   1.284   0.651   4.193  0.4930  0.1379 -0.5196
11853TIP3   OH257049   5.614   0.914   2.599  0.2302  0.2310 -0.9558
11853TIP3    H157050   5.661   0.949   2.524 -0.6840  0.9464 -1.1981
11853TIP3    H257051   5.682   0.893   2.663  0.9355  0.4348 -1.6432
11854TIP3   OH257052   2.827   5.530  13.404  0.3893 -0.2240 -0.2154
11854TIP3    H157053   2.868   5.469  13.465 -0.9010 -0.5190  0.3820
11854TIP3    H257054   2.759   5.477  13.361 -0.7426  0.8063  0.3092
11855TIP3   OH257055   2.070   5.790   3.241 -0.6032 -0.7439  0.3401
11855TIP3    H157056   2.149   5.791   3.294 -0.9111 -3.0824  0.8965
11855TIP3    H257057   2.027   5.707   3.263 -3.0170  0.3160 -0.2127
11856TIP3   OH257058   5.513   6.564   2.074  0.0138 -0.2567  0.1880
11856TIP3    H157059   5.587   6.578   2.134 -1.2596  4.4642  0.8312
11856TIP3    H257060   5.443   6.531   2.131  0.2931 -0.5617  0.3637
11857TIP3   OH257061   3.098   6.731   3.303  0.2696  0.0742  0.3220
11857TIP3    H157062   3.026   6.735   3.239  1.2775 -2.0945 -1.0181
11857TIP3    H257063   3.093   6.642   3.338  0.7517  0.7288  2.0790
11858TIP3   OH257064   0.280   1.080  12.352  0.7684  0.3582 -0.0228
11858TIP3    H157065   0.257   1.054  12.441  0.0844  0.3624 -0.1951
11858TIP3    H257066   0.368   1.118  12.359  0.0022  1.9608  0.9213
11859TIP3   OH257067   0.129   4.564  17.242  0.2776 -0.1455  0.0193
11859TIP3    H157068   0.054   4.581  17.299  1.8401 -0.7705  2.3275
11859TIP3    H257069   0.103   4.485  17.193 -0.5476 -0.4060  0.8462
11860TIP3   OH257070   1.788   3.794   3.853  0.1839  0.4448 -0.5443
11860TIP3    H157071   1.692   3.802   3.850  0.2934  1.3356 -2.2242
11860TIP3    H257072   1.814   3.853   3.924 -0.8408 -3.7118  3.5468
11861TIP3   OH257073   2.932   4.326  14.584  0.5173 -0.1264  0.7753
11861TIP3    H157074   2.843   4.332  14.551  0.2720 -1.0115  1.2605
11861TIP3    H257075   2.932   4.249  14.641  1.3393  0.4353  1.5607
11862TIP3   OH257076   4.794   5.248  14.672  0.6341 -0.4412 -0.7336
11862TIP3    H157077   4.762   5.328  14.714  0.0253 -1.3358  0.5603
11862TIP3    H257078   4.876   5.273  14.632 -0.2609  1.1872 -1.5872
11863TIP3   OH257079   3.104   0.476  14.497 -0.5032  0.2249 -0.2227
11863TIP3    H157080   3.069   0.391  14.471 -2.0497  1.1458 -1.2808
11863TIP3    H257081   3.089   0.532  14.421  3.9559  0.5392 -0.9982
11864TIP3   OH257082   3.993   2.827   1.455 -0.5409 -0.2855  0.5888
11864TIP3    H157083   3.992   2.882   1.533 -1.8988 -0.6302  0.8213
11864TIP3    H257084   4.045   2.877   1.391 -0.1681  0.3880  1.4184
11865TIP3   OH257085   1.000   2.983   4.921 -0.3794  0.7695 -0.0845
11865TIP3    H157086   1.022   3.029   4.839 -1.0295  0.9081 -0.1845
11865TIP3    H257087   0.909   2.958   4.910 -0.2790  0.2234  0.3403
11866TIP3   OH257088   0.008   2.280  16.795  0.2084  0.2504 -0.2546
11866TIP3    H157089  -0.031   2.364  16.772  1.6461  1.2376  0.7727
11866TIP3    H257090  -0.065   2.226  16.823 -0.9623  0.5450 -2.6781
11867TIP3   OH257091   4.858   5.909  12.609 -0.1249 -0.5748  0.1931
11867TIP3    H157092   4.867   5.816  12.628  0.7907 -0.4734  0.2607
11867TIP3    H257093   4.773   5.916  12.565  0.2794 -1.5875 -0.7789
11868TIP3   OH257094   0.624   1.827  16.510 -0.4578  0.0153 -0.3618
11868TIP3    H157095   0.659   1.778  16.436 -2.3526 -1.0901 -0.5617
11868TIP3    H257096   0.557   1.770  16.548 -0.3918  1.0908  1.4319
11869TIP3   OH257097   0.347   0.699   3.994  0.0743 -0.3045 -0.1249
11869TIP3    H157098   0.334   0.647   4.073 -0.1418 -2.3413 -1.4867
11869TIP3    H257099   0.260   0.730   3.971  0.6392  4.1183  2.9075
11870TIP3   OH257100   1.412   4.388   2.374  0.0403  0.0486 -0.1973
11870TIP3    H157101   1.473   4.346   2.435 -2.0598 -2.2973  0.3723
11870TIP3    H257102   1.453   4.473   2.354  2.4036 -0.5383  1.8399
11871TIP3   OH257103   3.724   5.095  13.283  0.2505  0.6586 -0.0786
11871TIP3    H157104   3.758   5.012  13.318  0.4841  0.8954  0.2655
11871TIP3    H257105   3.783   5.116  13.211  0.6753  0.9270  0.3409
11872TIP3   OH257106   6.224   1.791   3.603 -0.0654  0.0640  0.1476
11872TIP3    H157107   6.162   1.732   3.559 -0.1225  0.5215 -0.3904
11872TIP3    H257108   6.221   1.765   3.695 -1.3512  0.3409  0.1907
11873TIP3   OH257109   1.259   1.814   5.274  0.4131  0.3102 -0.6618
11873TIP3    H157110   1.210   1.733   5.291 -1.0477  1.2919 -0.1056
11873TIP3    H257111   1.337   1.785   5.228  0.5126 -1.5559  0.6270
11874TIP3   OH257112   2.801   1.975   3.757 -0.3835 -0.2610  0.2129
11874TIP3    H157113   2.744   2.029   3.812  0.6299  2.0560 -0.9159
11874TIP3    H257114   2.890   2.000   3.782  0.0979 -0.8436 -0.8779
11875TIP3   OH257115   3.736   0.700   4.181 -0.0476  0.0136 -0.6308
11875TIP3    H157116   3.723   0.775   4.239 -2.1258  0.2889 -1.4284
11875TIP3    H257117   3.827   0.675   4.195  0.4363  2.1683  0.2464
11876TIP3   OH257118   6.250   1.367  13.111 -0.2319  0.1750  0.2022
11876TIP3    H157119   6.216   1.399  13.027  0.4110  0.1064 -0.0898
11876TIP3    H257120   6.185   1.395  13.176 -0.6524  0.3664 -0.2983
11877TIP3   OH257121   1.812   0.386  16.205  0.4534 -0.6484 -0.1816
11877TIP3    H157122   1.880   0.374  16.139  1.0182  2.6858 -0.2791
11877TIP3    H257123   1.855   0.362  16.287  0.7833 -1.4915 -0.5914
11878TIP3   OH257124   3.955   4.938   1.452  0.1086 -0.2482  0.1044
11878TIP3    H157125   4.024   4.978   1.398 -1.8069  3.1161  0.0237
11878TIP3    H257126   3.946   4.997   1.527 -2.0024 -1.1584  0.5926
11879TIP3   OH257127   2.265   5.815  11.554 -0.3139  1.0710 -0.2865
11879TIP3    H157128   2.299   5.742  11.503 -0.7030  0.4489  0.3380
11879TIP3    H257129   2.237   5.776  11.637 -0.5162  1.9273  0.0551
11880TIP3   OH257130   4.516   3.709   5.072 -0.0059 -0.2412  0.2631
11880TIP3    H157131   4.494   3.626   5.031  0.7256  0.2662 -1.1777
11880TIP3    H257132   4.434   3.739   5.111 -0.3719 -1.4248  0.4290
11881TIP3   OH257133   1.418   1.899  16.597  0.5912  0.1959  0.0167
11881TIP3    H157134   1.505   1.868  16.623  2.2880  2.6363 -2.5050
11881TIP3    H257135   1.435   1.959  16.525 -3.2679  0.3073 -0.8741
11882TIP3   OH257136   5.221   0.873   3.272  0.0795  0.0637 -0.4882
11882TIP3    H157137   5.212   0.795   3.216 -0.0600  0.6037 -1.2205
11882TIP3    H257138   5.314   0.877   3.292 -0.1977 -1.5031  1.3058
11883TIP3   OH257139   1.736   2.930  16.205 -0.7641  0.1785  0.1817
11883TIP3    H157140   1.663   2.970  16.157  1.4676  2.0154 -1.8239
11883TIP3    H257141   1.759   2.853  16.152 -1.3550 -0.5238  0.9323
11884TIP3   OH257142   0.604   3.643   2.441  0.1168  0.4080  0.6529
11884TIP3    H157143   0.658   3.711   2.400  0.0295 -0.9321 -1.8041
11884TIP3    H257144   0.522   3.644   2.392 -0.6719 -0.0727  1.9432
11885TIP3   OH257145   4.939   6.444  12.261 -0.2182 -0.0974 -0.5034
11885TIP3    H157146   4.907   6.533  12.273 -2.3418 -0.8818 -0.0888
11885TIP3    H257147   5.017   6.439  12.316  1.2290  2.1439 -2.2480
11886TIP3   OH257148   5.076   6.425   5.549 -0.0531  0.8369  0.4733
11886TIP3    H157149   5.152   6.413   5.492 -0.5623  0.4258 -0.1280
11886TIP3    H257150   5.051   6.516   5.537  0.2369  0.9237  0.5315
11887TIP3   OH257151   6.277   4.377  10.620  0.3690  0.5765 -0.0598
11887TIP3    H157152   6.354   4.349  10.570  1.1506  2.4739  0.0437
11887TIP3    H257153   6.236   4.295  10.649  2.1797 -0.4591 -0.3614
11888TIP3   OH257154   5.944   3.804   3.905 -0.5052 -0.1010 -0.1844
11888TIP3    H157155   5.936   3.828   3.813 -0.3089 -1.2116 -0.5028
11888TIP3    H257156   6.023   3.749   3.909 -0.4415  0.0369  0.6639
11889TIP3   OH257157   3.402   0.775   2.867  0.2265  0.4960 -0.6956
11889TIP3    H157158   3.493   0.748   2.879  0.1069 -0.0047 -0.9250
11889TIP3    H257159   3.398   0.805   2.776 -0.2143 -0.9548 -1.1581
11890TIP3   OH257160   3.417   0.738   4.415 -0.0705  0.4971  0.4969
11890TIP3    H157161   3.459   0.678   4.353 -1.5263  0.3617 -0.3852
11890TIP3    H257162   3.457   0.718   4.499  1.8670  0.6096 -0.3824
11891TIP3   OH257163   3.016   1.865   2.013 -0.4723 -0.4582  0.0552
11891TIP3    H157164   3.005   1.937   2.074  0.9496  1.1670 -1.5233
11891TIP3    H257165   3.102   1.828   2.034 -0.6696 -0.9140  0.0748
11892TIP3   OH257166   3.315   2.651   2.005 -0.0636 -0.5847  0.2583
11892TIP3    H157167   3.347   2.642   2.095  0.3994  0.1534  0.1671
11892TIP3    H257168   3.256   2.726   2.007  0.1502 -0.4074 -0.1132
11893TIP3   OH257169   1.287   3.892   2.845  0.1330 -0.6431  0.1339
11893TIP3    H157170   1.270   3.846   2.927  2.5863 -2.6197 -0.3866
11893TIP3    H257171   1.314   3.980   2.872  1.0067 -1.3044  1.4961
11894TIP3   OH257172   0.318   4.368   2.282  0.0790 -0.1497 -1.0143
11894TIP3    H157173   0.408   4.370   2.316  0.1490  0.9015 -1.2620
11894TIP3    H257174   0.269   4.427   2.338 -0.1798  0.2719 -1.6755
11895TIP3   OH257175   3.901   5.187   6.213  0.6899  0.0638  0.0062
11895TIP3    H157176   3.818   5.217   6.248  1.4183  0.8293  1.0936
11895TIP3    H257177   3.878   5.144   6.130 -0.8878 -0.6563  0.8019
11896TIP3   OH257178   2.026   6.466  15.442  0.5229 -0.2368  0.1279
11896TIP3    H157179   2.119   6.478  15.423  0.3476 -1.9162 -2.0589
11896TIP3    H257180   1.998   6.397  15.382 -1.8392 -0.7087  1.6736
11897TIP3   OH257181   4.834   6.557  14.506  0.5246 -0.3538  0.5914
11897TIP3    H157182   4.840   6.475  14.556  1.7095 -0.7187 -0.1138
11897TIP3    H257183   4.902   6.549  14.439  0.9269  1.3773  0.7601
11898TIP3   OH257184   3.381   4.817  13.796  0.0373 -0.0135  1.0103
11898TIP3    H157185   3.412   4.834  13.885  1.7286 -3.9796  1.2828
11898TIP3    H257186   3.448   4.760  13.758 -1.2454  0.6827 -2.4217
11899TIP3   OH257187   3.437   6.450  11.667  0.0872  0.4887 -0.1862
11899TIP3    H157188   3.355   6.495  11.647  0.3842  0.3072 -1.9386
11899TIP3    H257189   3.414   6.357  11.665  0.1989  0.4591 -0.0492
11900TIP3   OH257190   0.351   0.469  11.837  0.1300 -0.0769 -0.1277
11900TIP3    H157191   0.313   0.510  11.759 -1.2899 -2.2434 -0.6490
11900TIP3    H257192   0.389   0.541  11.887 -4.3633  2.2117  0.2274
11901TIP3   OH257193   4.952   0.183   4.248  0.2503 -0.1108  0.6050
11901TIP3    H157194   5.040   0.208   4.276 -0.9351  0.2841  4.2006
11901TIP3    H257195   4.919   0.260   4.200  1.4219  0.1638  0.2304
11902TIP3   OH257196   5.062   0.981  15.946 -0.2901  0.0058  0.8486
11902TIP3    H157197   5.016   0.949  16.023 -0.6297  2.8623  1.8782
11902TIP3    H257198   5.022   1.066  15.927  1.0703  0.2017 -1.3558
11903TIP3   OH257199   0.424   6.636  13.372  0.1554  0.0648  0.1129
11903TIP3    H157200   0.402   6.595  13.288  0.6298  1.2395 -0.5973
11903TIP3    H257201   0.441   6.727  13.350 -0.3969  0.5395  1.5950
11904TIP3   OH257202   1.720   0.200   2.516  0.4788 -0.1507 -0.4967
11904TIP3    H157203   1.714   0.105   2.529 -0.9622 -0.0715 -0.5592
11904TIP3    H257204   1.631   0.228   2.496  0.6795  1.3882  0.6247
11905TIP3   OH257205   4.519   1.191  16.709  0.1264  0.8713 -0.3313
11905TIP3    H157206   4.486   1.101  16.708  0.6045  0.7016 -0.5666
11905TIP3    H257207   4.447   1.242  16.748  0.0211  0.3249  0.2039
11906TIP3   OH257208   3.705   6.693   4.492  0.4394 -0.1878  0.4277
11906TIP3    H157209   3.698   6.598   4.479 -0.3236  0.2233 -2.4003
11906TIP3    H257210   3.618   6.719   4.523  0.5219 -0.3213  0.7843
11907TIP3   OH257211   1.391   5.614   3.174 -0.4799  0.0292  0.2975
11907TIP3    H157212   1.457   5.563   3.223  0.4217 -0.4463 -1.3552
11907TIP3    H257213   1.440   5.653   3.102 -1.7013  1.0918  0.0267
11908TIP3   OH257214   6.608   3.698  16.292 -0.1369 -0.0560  0.2276
11908TIP3    H157215   6.587   3.608  16.268 -1.8008  0.3339  0.1422
11908TIP3    H257216   6.531   3.729  16.340 -0.1760  1.7629 -0.9348
11909TIP3   OH257217   5.502   3.377  16.122  0.2981 -0.3300  0.0543
11909TIP3    H157218   5.489   3.304  16.182 -0.9106  0.5537  0.8818
11909TIP3    H257219   5.434   3.367  16.056  0.9945 -0.7215 -0.6190
11910TIP3   OH257220   4.195   3.051   2.360  0.6281  0.1349  0.5998
11910TIP3    H157221   4.201   3.114   2.431  0.0192  1.5090 -0.5419
11910TIP3    H257222   4.103   3.054   2.333  1.2210  0.9804 -1.4210
11911TIP3   OH257223   5.756   2.101   1.881  0.2929 -0.5581  0.0384
11911TIP3    H157224   5.757   2.075   1.973  1.9222 -0.0944  0.1616
11911TIP3    H257225   5.844   2.135   1.864 -0.9231  2.2738 -0.8760
11912TIP3   OH257226   1.209   3.114  13.899 -0.0133  0.8279  0.8430
11912TIP3    H157227   1.264   3.107  13.977 -2.3316  1.0393  2.5627
11912TIP3    H257228   1.223   3.203  13.867  1.4626  0.5228  0.6065
11913TIP3   OH257229   6.650   1.997   3.555 -0.3771  0.2423 -0.2343
11913TIP3    H157230   6.623   1.978   3.465  0.3792 -0.6124 -0.2895
11913TIP3    H257231   6.569   1.989   3.606 -0.5127 -0.9086 -0.6069
11914TIP3   OH257232   3.275   3.306   4.755  0.0112 -0.3758 -0.2160
11914TIP3    H157233   3.205   3.367   4.781 -0.0375 -0.9307  0.9844
11914TIP3    H257234   3.311   3.274   4.838 -0.3284 -2.3935 -0.8044
11915TIP3   OH257235   4.450   0.704   1.447  0.0679 -0.2268 -0.3704
11915TIP3    H157236   4.385   0.642   1.415  0.4967 -1.7506  1.5826
11915TIP3    H257237   4.401   0.763   1.504 -0.5990  2.1680 -3.2809
11916TIP3   OH257238   3.252   3.983   1.959  0.8406  0.6008 -0.1413
11916TIP3    H157239   3.259   4.055   2.022 -0.0038  0.6095 -0.0551
11916TIP3    H257240   3.163   3.988   1.926  0.7541 -0.4432 -0.0943
11917TIP3   OH257241   0.993   6.032   2.297  0.3628  0.3725 -0.3842
11917TIP3    H157242   1.052   5.966   2.260 -1.1962 -1.2417 -0.0621
11917TIP3    H257243   1.005   6.109   2.241  1.1746 -0.6382 -1.6348
11918TIP3   OH257244   0.606   4.697  13.083  0.6407  0.0883  0.2917
11918TIP3    H157245   0.605   4.672  12.991 -0.7401 -0.1587  0.3566
11918TIP3    H257246   0.513   4.710  13.105  1.0251  1.0002  1.4084
11919TIP3   OH257247   3.419   6.058   3.980 -0.1609 -0.7488 -0.8060
11919TIP3    H157248   3.491   6.034   3.921 -0.1919  0.4790 -1.3595
11919TIP3    H257249   3.381   5.975   4.006  1.5822 -1.4242 -0.3720
11920TIP3   OH257250   2.032   3.543  13.207  0.1492  0.1301 -0.3214
11920TIP3    H157251   1.942   3.566  13.183  0.7460  0.0155 -2.7562
11920TIP3    H257252   2.031   3.541  13.303 -2.7280 -1.0756 -0.3401
11921TIP3   OH257253   6.618   6.316  12.083  0.0285 -0.1334 -0.9833
11921TIP3    H157254   6.639   6.405  12.112  1.5068 -0.2989 -1.5451
11921TIP3    H257255   6.536   6.296  12.128 -0.5571  1.6769 -1.1975
11922TIP3   OH257256   3.114   2.395   5.304  0.1559 -0.3465  0.1931
11922TIP3    H157257   3.033   2.348   5.325 -0.5518  0.9223  0.3637
11922TIP3    H257258   3.123   2.460   5.373  0.4413  0.6084 -0.7185
11923TIP3   OH257259   0.227   3.270  11.664  0.0797  0.3070  0.2767
11923TIP3    H157260   0.204   3.336  11.598  0.6887  0.1953 -0.0545
11923TIP3    H257261   0.320   3.285  11.680 -0.1214  0.4824  1.2855
11924TIP3   OH257262   5.631   2.149  12.010  0.3775  0.6113 -0.3062
11924TIP3    H157263   5.599   2.229  12.052  0.1246  0.0653  0.5578
11924TIP3    H257264   5.707   2.177  11.959  1.2197  1.1287  1.2140
11925TIP3   OH257265   0.529   6.198   0.102  0.4563  0.1357 -0.3769
11925TIP3    H157266   0.582   6.165   0.029  0.9111 -1.1889  0.5360
11925TIP3    H257267   0.449   6.231   0.060  0.9586 -0.0916 -1.5325
11926TIP3   OH257268   1.199   4.263  15.683  0.0128  0.3806 -0.4414
11926TIP3    H157269   1.262   4.232  15.748  0.8389  1.2149 -0.8177
11926TIP3    H257270   1.155   4.184  15.652  0.0727 -0.0873  0.6592
11927TIP3   OH257271   5.231   3.216  11.646 -0.4567  0.2568  0.4623
11927TIP3    H157272   5.261   3.153  11.712 -0.2867  0.9997  1.1059
11927TIP3    H257273   5.287   3.201  11.570 -0.2460 -0.1880  0.7075
11928TIP3   OH257274   1.983   6.810  14.507  0.0342  0.6139 -0.2658
11928TIP3    H157275   2.065   6.760  14.511 -1.7921 -2.3797  2.0512
11928TIP3    H257276   1.945   6.786  14.422 -1.7670 -3.7420  1.6126
11929TIP3   OH257277   0.984   4.047   0.382 -0.5210  0.2717  0.1937
11929TIP3    H157278   1.055   3.984   0.389 -1.7839 -1.1869  0.0743
11929TIP3    H257279   1.015   4.111   0.318  0.2476 -0.9376 -0.6505
11930TIP3   OH257280   6.533   2.728   1.227  0.7912  0.6177  0.0133
11930TIP3    H157281   6.620   2.701   1.198  0.0719 -0.7755 -0.8626
11930TIP3    H257282   6.516   2.675   1.305  0.4810  0.4607 -0.1612
11931TIP3   OH257283   4.652   3.312   3.214  0.0437 -0.3060 -0.8399
11931TIP3    H157284   4.695   3.306   3.299 -0.4527  0.2471 -0.5479
11931TIP3    H257285   4.695   3.245   3.161  1.1666  0.1427 -0.5152
11932TIP3   OH257286   4.430   0.774  13.563  0.3002  0.0117  0.2223
11932TIP3    H157287   4.427   0.791  13.468 -0.3986  1.2697  0.4561
11932TIP3    H257288   4.498   0.834  13.595  0.4141 -0.2883  0.5390
11933TIP3   OH257289   0.726   4.014  13.465 -0.3434  0.8373  0.0821
11933TIP3    H157290   0.693   4.103  13.454 -0.7682  0.7841  0.9086
11933TIP3    H257291   0.735   4.003  13.560  0.9460  0.4517 -0.0665
11934TIP3   OH257292   3.895   3.584  14.577  0.3103 -0.4143 -0.1676
11934TIP3    H157293   3.877   3.636  14.499 -0.2707  0.3288  0.4586
11934TIP3    H257294   3.872   3.641  14.651  0.4658 -1.2488  0.5416
11935TIP3   OH257295   2.500   3.323  14.498 -0.1456  0.3310 -0.2773
11935TIP3    H157296   2.589   3.314  14.532  0.0584  0.0819 -0.8707
11935TIP3    H257297   2.511   3.358  14.410 -0.7275  2.1854  0.3577
11936TIP3   OH257298   1.407   1.930   0.578 -0.7337  0.1016  0.2268
11936TIP3    H157299   1.380   1.863   0.515 -0.3846 -2.3995  2.6470
11936TIP3    H257300   1.326   1.952   0.625  0.0452 -2.7376  3.1404
11937TIP3   OH257301   2.088   5.425  13.924 -0.2163  0.0277  0.3645
11937TIP3    H157302   2.005   5.385  13.900  0.0063 -0.0236 -0.3536
11937TIP3    H257303   2.123   5.459  13.841  1.2474 -1.4282  0.3546
11938TIP3   OH257304   3.981   1.023   2.128 -0.0552  0.2619  0.2516
11938TIP3    H157305   3.928   1.096   2.096 -0.0432  0.6892  1.2019
11938TIP3    H257306   3.941   1.000   2.212  0.1154 -0.6422  0.0832
11939TIP3   OH257307   0.428   0.394   0.712  0.0761 -0.2345 -0.2463
11939TIP3    H157308   0.365   0.353   0.771 -0.9935  2.0634  0.2500
11939TIP3    H257309   0.408   0.357   0.626 -0.7092 -0.9271  0.2281
11940TIP3   OH257310   3.984   0.816  16.339  0.4578  0.2719 -0.4491
11940TIP3    H157311   4.065   0.783  16.379 -0.1148  0.5298  0.9497
11940TIP3    H257312   4.007   0.831  16.247  0.7425 -4.0532 -1.2109
11941TIP3   OH257313   4.644   2.759   5.443 -0.0042  0.4573  0.3626
11941TIP3    H157314   4.631   2.770   5.348  1.6232 -1.4369 -0.1036
11941TIP3    H257315   4.624   2.846   5.479 -0.7198  1.1939 -1.6919
11942TIP3   OH257316   5.636   3.303  14.332 -0.9549  0.5034 -0.1470
11942TIP3    H157317   5.579   3.228  14.314 -1.3208  0.7817 -0.1643
11942TIP3    H257318   5.699   3.271  14.396 -0.8936  0.0816 -0.4194
11943TIP3   OH257319   5.681   5.818  12.661  0.1019  0.0892 -0.5854
11943TIP3    H157320   5.701   5.899  12.709  1.3154 -0.9969  0.7898
11943TIP3    H257321   5.749   5.813  12.594 -1.2218  1.2797 -2.0535
11944TIP3   OH257322   6.392   3.586   3.974  0.0614  1.0864 -0.6601
11944TIP3    H157323   6.477   3.625   3.952  2.1822 -1.6169  2.1518
11944TIP3    H257324   6.362   3.634   4.051  0.5758  0.0566  0.1978
11945TIP3   OH257325   1.410   2.726  12.871  0.1925  0.5172  0.4052
11945TIP3    H157326   1.364   2.808  12.855  0.2796  0.4461 -0.2259
11945TIP3    H257327   1.367   2.688  12.947 -0.4610  0.6911  0.1204
11946TIP3   OH257328   6.664   6.122   0.194 -0.0333 -0.6533  0.2772
11946TIP3    H157329   6.736   6.184   0.207 -0.1396 -0.1923 -1.2125
11946TIP3    H257330   6.651   6.082   0.280  1.3709 -0.0584  0.7892
11947TIP3   OH257331   4.090   4.660   1.429 -0.0697  0.2848 -0.0097
11947TIP3    H157332   4.046   4.690   1.349 -0.3955  0.7671  0.3526
11947TIP3    H257333   4.106   4.740   1.479 -0.0111 -0.0361  0.4850
11948TIP3   OH257334   5.145   4.711  13.589 -0.0684 -0.1941  0.3513
11948TIP3    H157335   5.175   4.801  13.581 -1.4002  0.1495 -0.9022
11948TIP3    H257336   5.215   4.659  13.549 -0.1076  0.4265 -0.5244
11949TIP3   OH257337   0.527   0.723   4.711 -0.1151  0.2621 -0.2016
11949TIP3    H157338   0.525   0.653   4.646  0.5354  0.0969 -0.0476
11949TIP3    H257339   0.508   0.680   4.794  0.3221  0.2514 -0.1021
11950TIP3   OH257340   2.933   6.761  16.179  0.3472 -0.0576 -0.1760
11950TIP3    H157341   2.904   6.815  16.252 -1.1473 -0.0395 -0.7705
11950TIP3    H257342   2.944   6.673  16.216  0.3298  0.1123  0.2302
11951TIP3   OH257343   1.926   0.617  13.462  0.2025 -0.0980 -0.4408
11951TIP3    H157344   1.832   0.618  13.479  0.2490 -2.3619  0.1414
11951TIP3    H257345   1.953   0.709  13.471 -1.3112  0.0973  3.2068
11952TIP3   OH257346   0.129   3.269   0.500 -0.1400 -0.9471  0.3672
11952TIP3    H157347   0.147   3.206   0.431 -1.4461 -0.0744 -0.8076
11952TIP3    H257348   0.213   3.285   0.542  0.7803 -1.0589 -1.4087
11953TIP3   OH257349   0.967   4.282   2.596  0.6232 -0.3027  0.1596
11953TIP3    H157350   0.983   4.369   2.632 -3.1999  1.1651 -1.4728
11953TIP3    H257351   1.041   4.266   2.538  1.5038  1.7229  0.6909
11954TIP3   OH257352   5.024   0.395  12.610 -0.2128 -0.6768  0.5886
11954TIP3    H157353   5.032   0.488  12.626  2.0101 -1.1032  2.0882
11954TIP3    H257354   4.974   0.361  12.685 -0.0443 -0.8654  0.6176
11955TIP3   OH257355   5.692   4.153  15.575  1.4870  0.3525 -0.7553
11955TIP3    H157356   5.682   4.114  15.488  2.6160  0.9303 -1.1509
11955TIP3    H257357   5.627   4.224  15.577  0.8347 -0.2371 -0.7837
11956TIP3   OH257358   5.496   6.421  16.978  0.3519 -0.3929  0.4678
11956TIP3    H157359   5.538   6.467  17.050  0.4013 -1.9701  1.4670
11956TIP3    H257360   5.542   6.451  16.900  2.5180 -1.1343  1.4191
11957TIP3   OH257361   4.236   6.047  15.843  0.1756 -0.0570  0.3081
11957TIP3    H157362   4.286   6.070  15.765 -1.5906  0.7970 -0.5962
11957TIP3    H257363   4.238   5.951  15.844 -0.3535 -0.0989 -1.1708
11958TIP3   OH257364   5.821   4.552  15.834  0.2442 -0.5015 -0.1110
11958TIP3    H157365   5.860   4.583  15.752  0.9897 -0.5890  0.2041
11958TIP3    H257366   5.855   4.611  15.901 -0.1858 -0.5673  0.1679
11959TIP3   OH257367   2.098   5.124   5.539 -0.6221  0.3761  0.6822
11959TIP3    H157368   2.106   5.206   5.587 -0.6923 -0.2728  1.8311
11959TIP3    H257369   2.172   5.124   5.477  0.9226  0.1398  2.4707
11960TIP3   OH257370   3.798   5.856   5.496 -0.4154  0.0451  0.2003
11960TIP3    H157371   3.856   5.813   5.433 -0.8439 -2.0322  1.1667
11960TIP3    H257372   3.710   5.839   5.464 -0.5597  2.1086 -0.5740
11961TIP3   OH257373   5.769   5.874   2.465 -0.2115  0.1774 -0.2872
11961TIP3    H157374   5.839   5.809   2.457  0.8194  1.2452  0.0541
11961TIP3    H257375   5.771   5.901   2.556 -1.3804 -0.1199 -0.1672
11962TIP3   OH257376   0.552   4.627   2.118 -0.3402  0.1172  0.1627
11962TIP3    H157377   0.619   4.661   2.059  0.7001  1.3597  2.0180
11962TIP3    H257378   0.492   4.701   2.132 -0.8027 -0.2912  0.3709
11963TIP3   OH257379   1.409   1.633  15.464 -0.9679 -0.0063 -0.1437
11963TIP3    H157380   1.321   1.597  15.470 -2.3265  2.8490 -1.7174
11963TIP3    H257381   1.396   1.721  15.429  2.6542 -0.0984 -1.8981
11964TIP3   OH257382   2.058   1.708   5.695  0.7313  0.1128 -0.6680
11964TIP3    H157383   2.076   1.734   5.785  0.9685 -0.8392 -0.4410
11964TIP3    H257384   2.000   1.777   5.662  0.5111  0.3803  0.2575
11965TIP3   OH257385   1.090   0.316   5.405  0.5292 -0.2087  0.4875
11965TIP3    H157386   1.105   0.232   5.447  0.3830 -0.3613  0.2337
11965TIP3    H257387   1.066   0.295   5.315  1.5083  0.1430  0.1347
11966TIP3   OH257388   4.592   4.540  13.846 -0.4426 -0.0980  0.0174
11966TIP3    H157389   4.516   4.590  13.815 -1.2807 -2.2072 -1.3639
11966TIP3    H257390   4.555   4.457  13.876  1.0585 -0.2431  1.5629
11967TIP3   OH257391   2.245   4.937   1.045  0.3613  0.0109 -0.1056
11967TIP3    H157392   2.170   4.993   1.066 -0.5850 -1.3427  0.2247
11967TIP3    H257393   2.303   4.992   0.994 -1.7066  0.5720 -1.9216
11968TIP3   OH257394   2.258   5.379  10.775 -0.2792  0.1809 -0.1759
11968TIP3    H157395   2.338   5.430  10.789  0.4638 -1.7952  3.4282
11968TIP3    H257396   2.286   5.305  10.722 -0.1168  0.4363 -0.4518
11969TIP3   OH257397   4.712   0.543   1.508  0.0517 -0.5215  0.3434
11969TIP3    H157398   4.744   0.516   1.422 -1.7628 -1.7255  0.0049
11969TIP3    H257399   4.619   0.563   1.494 -0.3137 -0.9025  2.0429
11970TIP3   OH257400   2.564   2.440   4.606  0.0066 -0.6187  0.6982
11970TIP3    H157401   2.486   2.485   4.574  2.1148  0.8418 -2.5290
11970TIP3    H257402   2.582   2.481   4.691 -1.3267  0.6814  0.3742
11971TIP3   OH257403   1.960   5.242  15.552 -0.1240 -0.4273  0.3920
11971TIP3    H157404   1.926   5.303  15.486 -0.3320 -0.6546  0.2888
11971TIP3    H257405   1.995   5.299  15.621  0.4646 -0.1832 -0.0979
11972TIP3   OH257406   0.775   6.200   3.713 -0.0097  0.3529  0.0284
11972TIP3    H157407   0.723   6.121   3.726 -1.6989  1.7263  1.7910
11972TIP3    H257408   0.790   6.203   3.618  0.3268 -2.2149 -0.0232
11973TIP3   OH257409   5.822   3.338  13.352  0.3261  0.2843 -0.6437
11973TIP3    H157410   5.887   3.334  13.282  1.0284  1.2125 -0.0652
11973TIP3    H257411   5.861   3.398  13.417  0.1888 -1.4238  1.0526
11974TIP3   OH257412   2.146   1.071   4.351  0.6857 -0.3939 -0.3234
11974TIP3    H157413   2.173   0.999   4.407 -1.6852 -0.1780  1.1730
11974TIP3    H257414   2.174   1.150   4.398  3.6458 -0.2958 -2.1532
11975TIP3   OH257415   1.590   5.250   2.061  0.1800  0.1120  0.4462
11975TIP3    H157416   1.522   5.229   2.125  0.3931 -1.9433  0.0339
11975TIP3    H257417   1.548   5.234   1.976  1.6771 -2.9252  0.2166
11976TIP3   OH257418   1.124   5.413   4.198  0.2956  0.2869 -0.3970
11976TIP3    H157419   1.054   5.452   4.250 -0.5145  0.9432 -1.9487
11976TIP3    H257420   1.153   5.338   4.250 -1.0207  0.4642  0.6283
11977TIP3   OH257421   0.404   0.327   0.033 -0.9766  0.2575 -0.4623
11977TIP3    H157422   0.342   0.382  -0.014 -1.1227  0.3248 -0.1971
11977TIP3    H257423   0.402   0.361   0.123 -0.8123  0.0409 -0.3763
11978TIP3   OH257424   6.795   0.668  12.883 -0.2246 -0.3229 -0.0080
11978TIP3    H157425   6.749   0.689  12.802 -1.6921 -2.9185  0.1108
11978TIP3    H257426   6.750   0.721  12.950  0.4597  1.1962 -0.7228
11979TIP3   OH257427   5.932   6.276  12.517 -0.0390  0.0743  0.3647
11979TIP3    H157428   5.969   6.336  12.582  0.5214 -0.0829  0.1864
11979TIP3    H257429   5.999   6.209  12.504 -0.0219  0.2650 -0.5946
11980TIP3   OH257430   0.596   0.548   4.523 -0.3342  0.4003  0.3771
11980TIP3    H157431   0.681   0.504   4.532 -0.8326 -0.9522 -1.1709
11980TIP3    H257432   0.533   0.477   4.516 -1.7942  1.3982  2.9234
11981TIP3   OH257433   2.457   6.101  16.202  0.1776 -0.7513 -0.5012
11981TIP3    H157434   2.430   6.190  16.177  1.4050 -0.7415 -1.8399
11981TIP3    H257435   2.447   6.049  16.122  1.8077 -1.2617 -0.4012
11982TIP3   OH257436   6.307   6.029  10.576  0.3584  0.3654  0.4124
11982TIP3    H157437   6.259   5.946  10.576  1.6878 -0.4195  2.3335
11982TIP3    H257438   6.369   6.021  10.503 -1.4814  0.8657 -1.2541
11983TIP3   OH257439   1.924   1.720   1.019  0.0962  0.2923 -0.0566
11983TIP3    H157440   1.917   1.757   0.930  1.7474  0.4473 -0.1363
11983TIP3    H257441   1.983   1.780   1.065 -0.5550  0.0698  1.0860
11984TIP3   OH257442   0.439   4.743  13.794 -0.4329 -0.2487 -0.4860
11984TIP3    H157443   0.417   4.662  13.749 -3.3419  1.1159 -1.6610
11984TIP3    H257444   0.376   4.748  13.867  1.2902 -0.2158  1.0257
11985TIP3   OH257445   6.264   0.950  12.645 -0.3792  1.0609 -0.2429
11985TIP3    H157446   6.210   0.924  12.720 -0.7244  0.1255 -0.8069
11985TIP3    H257447   6.354   0.940  12.677 -0.4870 -1.6435 -0.6797
11986TIP3   OH257448   1.033   0.814   2.116  0.6532 -0.1965  0.3715
11986TIP3    H157449   1.083   0.742   2.154  1.5906  0.0476 -0.3792
11986TIP3    H257450   1.028   0.880   2.185 -1.9389 -1.7628  1.7676
11987TIP3   OH257451   2.000   6.170   3.379 -0.1854 -0.1272  0.4012
11987TIP3    H157452   2.013   6.265   3.370 -1.5217 -0.0143 -0.4889
11987TIP3    H257453   2.005   6.137   3.289 -2.1867 -0.5575  0.4305
11988TIP3   OH257454   2.292   1.003   1.357 -0.5848 -0.2887  0.5624
11988TIP3    H157455   2.223   0.938   1.346 -1.7943  0.9046  1.0277
11988TIP3    H257456   2.262   1.059   1.429  0.1944  1.0834 -0.1566
11989TIP3   OH257457   3.677   2.199   2.179 -0.1790 -0.3023 -0.0013
11989TIP3    H157458   3.680   2.275   2.121  0.8956 -0.8381 -0.6547
11989TIP3    H257459   3.752   2.211   2.237 -2.3199  1.2257  2.5659
11990TIP3   OH257460   0.647   1.821  14.491 -0.4267 -0.0202 -0.5750
11990TIP3    H157461   0.576   1.844  14.552 -0.1384  1.8318 -0.8992
11990TIP3    H257462   0.602   1.801  14.409 -0.6835 -0.5781 -0.3048
11991TIP3   OH257463   1.989   3.800   4.101 -0.2839  0.2835 -0.4136
11991TIP3    H157464   2.044   3.813   4.024  1.3602  1.5634  0.9505
11991TIP3    H257465   1.914   3.858   4.087 -0.6767 -0.5050 -1.6670
11992TIP3   OH257466   1.355   0.326  14.672 -0.1606 -1.0098  0.1645
11992TIP3    H157467   1.389   0.329  14.583  1.2359 -0.5564  0.7144
11992TIP3    H257468   1.423   0.283  14.723 -0.5934 -0.5060  1.1868
11993TIP3   OH257469   0.027   2.346   2.508 -0.3701 -0.3504  0.4197
11993TIP3    H157470  -0.069   2.353   2.506 -0.3988 -0.7290  0.3606
11993TIP3    H257471   0.058   2.436   2.502 -0.7599  0.0429  3.3188
11994TIP3   OH257472   3.268   0.749  13.096  0.7942  0.6728  0.2112
11994TIP3    H157473   3.335   0.718  13.036 -0.6306 -0.8827 -0.6250
11994TIP3    H257474   3.185   0.734  13.050 -0.2953 -0.0297  2.3206
11995TIP3   OH257475   1.986   1.510   2.213  0.4462  0.0898  0.0049
11995TIP3    H157476   1.891   1.495   2.222  0.5077 -0.0295  0.4565
11995TIP3    H257477   2.001   1.593   2.258  0.4214  0.5414 -0.8047
11996TIP3   OH257478   3.248   2.565  16.614 -0.3555 -0.3663  0.2132
11996TIP3    H157479   3.305   2.547  16.539 -0.0921  0.6513  0.1641
11996TIP3    H257480   3.299   2.624  16.669 -1.2564  0.3213  0.3107
11997TIP3   OH257481   0.116   0.045  12.186 -0.1517 -0.6858 -0.2188
11997TIP3    H157482   0.117  -0.012  12.110 -0.6811  0.3521 -1.0194
11997TIP3    H257483   0.053   0.114  12.164  0.0561 -0.1012  0.9499
11998TIP3   OH257484   4.042   3.548   2.852 -0.1784 -0.1175  0.1848
11998TIP3    H157485   4.025   3.582   2.763 -1.5724  0.3389  0.6068
11998TIP3    H257486   3.994   3.465   2.855 -1.3295  0.5688  0.9812
11999TIP3   OH257487   1.607   5.773   6.547 -0.0395  0.7661  0.2550
11999TIP3    H157488   1.515   5.754   6.528  0.3055  0.2002 -0.9256
11999TIP3    H257489   1.647   5.784   6.461  0.8754  1.6364  0.7784
12000TIP3   OH257490   4.905   1.832   5.767  0.6115  0.1662  0.1118
12000TIP3    H157491   4.963   1.888   5.717 -0.2225  1.6941  0.8242
12000TIP3    H257492   4.858   1.892   5.825  0.1641 -1.3334  1.3402
12001TIP3   OH257493   5.125   3.506   2.316  0.1123 -0.0025  0.2854
12001TIP3    H157494   5.080   3.585   2.348  0.1756  0.3071 -0.3811
12001TIP3    H257495   5.166   3.469   2.394 -0.5656  0.1980  0.7425
12002TIP3   OH257496   6.709   0.205   6.560  0.2410  0.1564  0.2824
12002TIP3    H157497   6.725   0.113   6.540  0.8700 -0.1052  1.9434
12002TIP3    H257498   6.616   0.218   6.543  0.2608 -0.6380 -0.4708
12003TIP3   OH257499   6.667   1.020  11.323  0.0241 -0.5451  0.0543
12003TIP3    H157500   6.704   1.058  11.243  1.6063  0.8255  1.4064
12003TIP3    H257501   6.691   1.081  11.392 -1.4147 -1.6677  1.5831
12004TIP3   OH257502   0.757   0.796  16.411  0.8829 -0.0512 -0.4223
12004TIP3    H157503   0.833   0.827  16.459  1.2719 -2.6123  0.6689
12004TIP3    H257504   0.744   0.706  16.441 -2.1729  0.1213 -1.0703
12005TIP3   OH257505   2.023   5.219  10.972 -0.4561  0.1858  0.7883
12005TIP3    H157506   2.033   5.315  10.970 -2.8991  0.4312 -1.0657
12005TIP3    H257507   2.049   5.195  11.061 -1.8310  2.8037  1.9588
12006TIP3   OH257508   1.428   6.595  13.923  0.4468  0.2620 -0.6703
12006TIP3    H157509   1.511   6.563  13.889  0.3688 -0.4164 -0.2297
12006TIP3    H257510   1.373   6.518  13.931  1.0041  0.1026  2.4985
12007TIP3   OH257511   3.250   5.878   2.095 -0.1125  0.7098 -0.6075
12007TIP3    H157512   3.335   5.850   2.129  0.4226  2.9195  0.0014
12007TIP3    H257513   3.191   5.806   2.115  1.0814  0.2006  1.2804
12008TIP3   OH257514   5.758   1.329   6.480  0.4374  0.4377  0.4151
12008TIP3    H157515   5.736   1.239   6.504  1.3236 -0.4256 -1.9019
12008TIP3    H257516   5.853   1.334   6.489  0.6432  0.4842 -1.5015
12009TIP3   OH257517   0.362   1.938  16.413  0.1245  0.5907  0.1575
12009TIP3    H157518   0.374   1.924  16.319  0.1484  3.6323 -0.3372
12009TIP3    H257519   0.445   1.909  16.452  0.5604  0.4302 -0.8706
12010TIP3   OH257520   1.131   3.717   6.370 -0.1172  0.1497  0.4177
12010TIP3    H157521   1.038   3.705   6.388 -0.4143  0.8996 -0.6192
12010TIP3    H257522   1.173   3.641   6.411 -1.0813  0.2984  1.6992
12011TIP3   OH257523   6.009   3.154  15.733  0.1289  0.4069 -0.6624
12011TIP3    H157524   6.050   3.173  15.817  2.4796 -3.2777 -0.8704
12011TIP3    H257525   6.056   3.209  15.671 -2.7479  4.4235  0.5487
12012TIP3   OH257526   2.886   1.565   0.206  0.0244 -0.1455  0.1330
12012TIP3    H157527   2.817   1.628   0.189  0.0911 -0.2445 -0.5458
12012TIP3    H257528   2.850   1.506   0.272 -0.3166  0.1511  0.2131
12013TIP3   OH257529   4.124   1.219  11.748  0.0230 -0.2680  0.6844
12013TIP3    H157530   4.161   1.173  11.673 -4.2052 -0.0167 -1.6913
12013TIP3    H257531   4.071   1.153  11.794 -0.8831  0.6195  0.9426
12014TIP3   OH257532   1.257   1.283   3.247  0.1968  0.2135 -0.0603
12014TIP3    H157533   1.319   1.324   3.308 -0.1962 -0.4533  0.8007
12014TIP3    H257534   1.209   1.356   3.209  0.0033  0.6066  0.9121
12015TIP3   OH257535   5.252   0.039   2.447  0.4891  0.2474 -0.2596
12015TIP3    H157536   5.230  -0.050   2.420  1.8226 -0.9084  2.2926
12015TIP3    H257537   5.252   0.036   2.543  2.7265  2.4258 -0.1329
12016TIP3   OH257538   6.165   6.030   2.044  0.3554 -0.3015 -0.1423
12016TIP3    H157539   6.210   6.087   2.106 -1.4013 -1.4591  2.2595
12016TIP3    H257540   6.235   6.000   1.985  1.9935  1.1568  1.0010
12017TIP3   OH257541   6.130   2.770  15.127  0.1780  0.1091  0.3970
12017TIP3    H157542   6.046   2.732  15.150 -1.4816  3.3978 -0.0355
12017TIP3    H257543   6.114   2.818  15.046  2.5648  0.4797  0.0985
12018TIP3   OH257544   3.159   5.756   0.801  1.1054  0.3391 -0.1262
12018TIP3    H157545   3.187   5.845   0.820 -1.0860  0.4888  2.7073
12018TIP3    H257546   3.146   5.755   0.706 -0.1105  3.4307 -0.0547
12019TIP3   OH257547   5.470   1.502   1.221 -0.6146 -0.2403 -0.1451
12019TIP3    H157548   5.440   1.411   1.212  0.6912 -0.7302  0.4182
12019TIP3    H257549   5.502   1.525   1.134  0.4747 -0.8354  0.0920
12020TIP3   OH257550   0.557   3.415  12.367  0.3610  0.8389 -0.1446
12020TIP3    H157551   0.616   3.420  12.292  2.0806  0.0349  1.1293
12020TIP3    H257552   0.609   3.442  12.441 -0.1956 -1.9425  1.3554
12021TIP3   OH257553   6.423   5.428   3.385  0.5863 -0.1940 -0.1194
12021TIP3    H157554   6.512   5.398   3.369  0.8557 -0.7118  2.1888
12021TIP3    H257555   6.397   5.385   3.466 -1.5432  0.4495 -0.4140
12022TIP3   OH257556   0.037   6.348   2.153 -0.5514  0.2332 -0.1848
12022TIP3    H157557   0.056   6.441   2.140  0.1462  0.3502  1.5353
12022TIP3    H257558   0.120   6.305   2.135 -0.6265  0.0378 -0.0636
12023TIP3   OH257559   0.968   5.381   0.690  0.3473 -0.5392 -0.1330
12023TIP3    H157560   0.914   5.445   0.644  0.1221 -1.0564 -0.5991
12023TIP3    H257561   1.023   5.433   0.748  0.3746  0.0993 -0.7175
12024TIP3   OH257562   0.730   3.566   4.256  0.3916  0.3177  0.1632
12024TIP3    H157563   0.755   3.575   4.164 -0.2706  0.3340 -0.0201
12024TIP3    H257564   0.647   3.613   4.263  0.1084 -0.2418  0.6298
12025TIP3   OH257565   4.336   3.893  16.547  0.4997 -0.4633 -0.2584
12025TIP3    H157566   4.357   3.987  16.548  0.3606 -0.4214  1.9827
12025TIP3    H257567   4.394   3.855  16.613  0.2814 -1.8996 -0.8779
12026TIP3   OH257568   2.054   4.364   6.313 -0.1430  0.0563  0.0332
12026TIP3    H157569   2.096   4.424   6.375  0.2792  0.0400 -0.2314
12026TIP3    H257570   1.990   4.417   6.266 -1.0027 -0.1095  1.0160
12027TIP3   OH257571   6.372   6.228   3.769  0.4015 -0.2694  0.6546
12027TIP3    H157572   6.435   6.213   3.839  0.7032 -0.1008  0.4240
12027TIP3    H257573   6.299   6.170   3.789  0.2104  0.2305  1.4467
12028TIP3   OH257574   0.368   0.317  16.529 -0.3867 -0.1653 -0.0044
12028TIP3    H157575   0.395   0.231  16.563 -2.1551 -0.5270  0.5794
12028TIP3    H257576   0.339   0.365  16.607 -0.6900  0.4599 -0.4974
12029TIP3   OH257577   6.067   0.182   6.432  0.0473  0.5520  0.6958
12029TIP3    H157578   6.009   0.219   6.499 -0.3907 -0.2293  0.7509
12029TIP3    H257579   6.076   0.090   6.456 -2.3351 -0.3926 -1.8385
12030TIP3   OH257580   4.307   1.440  12.550  0.1741  0.2563 -0.4263
12030TIP3    H157581   4.310   1.426  12.644  1.4415  1.4720 -0.2722
12030TIP3    H257582   4.338   1.358  12.512  2.0306  0.6072  0.2870
12031TIP3   OH257583   6.713   6.730  17.025  0.2831  0.4670 -0.0771
12031TIP3    H157584   6.671   6.815  17.034 -0.5682  0.3449 -2.6005
12031TIP3    H257585   6.768   6.739  16.947 -2.5212 -2.3475 -2.5007
12032TIP3   OH257586   3.678   2.172   0.383 -0.5179 -0.3660 -0.1220
12032TIP3    H157587   3.600   2.181   0.329  0.3457 -0.9609 -1.4950
12032TIP3    H257588   3.737   2.240   0.352 -0.7501  0.5707  1.4167
12033TIP3   OH257589   6.186   2.914  15.889 -0.0670  0.5113  0.1915
12033TIP3    H157590   6.193   2.882  15.979  0.0734 -0.1252 -0.0439
12033TIP3    H257591   6.168   3.008  15.898  0.9600  0.6437  0.8706
12034TIP3   OH257592   5.150   1.773  13.847 -0.1184 -0.3146  0.0724
12034TIP3    H157593   5.124   1.713  13.776  0.1851 -0.3407 -0.0155
12034TIP3    H257594   5.134   1.860  13.811  2.9532 -0.2259 -1.1870
12035TIP3   OH257595   5.070   3.393   5.973 -0.5528  0.0196 -0.7189
12035TIP3    H157596   5.141   3.427   5.919 -0.2956 -0.6589 -0.8227
12035TIP3    H257597   5.075   3.444   6.054  2.8068 -2.8326  0.9968
12036TIP3   OH257598   6.669   0.188   6.047  0.1534 -0.3778 -0.0221
12036TIP3    H157599   6.729   0.220   5.981 -0.6884 -1.7313 -1.4902
12036TIP3    H257600   6.651   0.097   6.021 -2.6312  0.0527  0.2733
12037TIP3   OH257601   5.953   5.043   1.913  0.6156 -0.4982  0.2725
12037TIP3    H157602   5.943   5.049   1.818  3.2828 -2.7316 -0.2195
12037TIP3    H257603   5.864   5.050   1.947 -0.4543 -0.3535 -2.4423
12038TIP3   OH257604   5.192   1.719  14.816 -0.4675 -0.1892  0.2032
12038TIP3    H157605   5.163   1.712  14.725  1.6984  0.8799 -0.6038
12038TIP3    H257606   5.127   1.776  14.858 -2.0722 -1.5565 -0.3658
12039TIP3   OH257607   3.118   3.226  14.301  0.3746 -0.2993 -0.7798
12039TIP3    H157608   3.171   3.279  14.242 -0.1708  2.3468  1.0327
12039TIP3    H257609   3.156   3.242  14.388 -1.1590 -1.1657  0.0715
12040TIP3   OH257610   0.937   3.425   5.120 -0.0463  0.4860  0.9082
12040TIP3    H157611   0.906   3.513   5.141  0.7108  1.0807 -0.3835
12040TIP3    H257612   0.948   3.426   5.025  0.3823 -0.8707  0.9382
12041TIP3   OH257613   3.539   0.058   2.662 -0.6290 -0.2840 -0.7155
12041TIP3    H157614   3.528   0.152   2.644 -0.0726  0.0311  0.5092
12041TIP3    H257615   3.633   0.043   2.653 -0.7522 -0.7744 -1.1640
12042TIP3   OH257616   5.492   0.843   3.318 -0.0747  0.2339  0.5548
12042TIP3    H157617   5.524   0.805   3.400  2.0694 -0.2418 -0.4653
12042TIP3    H257618   5.542   0.925   3.309  2.1954 -1.3220 -1.8815
12043TIP3   OH257619   6.586   3.311  13.031 -0.7787  0.7351 -0.6884
12043TIP3    H157620   6.641   3.381  13.067  0.3106  0.1565 -1.2114
12043TIP3    H257621   6.496   3.338  13.053 -0.3568  2.1319 -0.6080
12044TIP3   OH257622   0.439   2.067  16.889  0.0025  0.0852  0.0710
12044TIP3    H157623   0.388   2.125  16.832 -1.0392 -1.2140 -0.3641
12044TIP3    H257624   0.528   2.074  16.856 -0.0990  1.4487  0.0412
12045TIP3   OH257625   4.461   0.015   6.142 -0.0632  0.5562 -0.7192
12045TIP3    H157626   4.521   0.009   6.216  2.0568  1.8458 -2.2808
12045TIP3    H257627   4.409  -0.065   6.147  0.2473  0.4653  1.9567
12046TIP3   OH257628   4.987   1.168  11.940  0.0588 -0.8510 -0.4109
12046TIP3    H157629   5.063   1.114  11.959  0.7588 -0.0437 -0.8464
12046TIP3    H257630   4.985   1.173  11.844  0.4115  0.4334 -0.3677
12047TIP3   OH257631   1.430   6.002  11.424  0.5349 -0.3873  0.5743
12047TIP3    H157632   1.417   6.037  11.336  1.5351 -0.2809  0.4642
12047TIP3    H257633   1.346   5.962  11.446 -0.5387  1.7951  0.5714
12048TIP3   OH257634   2.797   1.751   3.171 -0.3730  0.5333  0.9223
12048TIP3    H157635   2.735   1.786   3.235 -0.3750  1.8372  0.2138
12048TIP3    H257636   2.802   1.658   3.192 -2.7976  0.3330  0.8074
12049TIP3   OH257637   1.123   0.547   3.930 -0.1512  0.3652 -0.0090
12049TIP3    H157638   1.048   0.567   3.874  1.0128  0.7388 -1.4318
12049TIP3    H257639   1.149   0.631   3.966 -0.5938  0.1898  0.7532
12050TIP3   OH257640   1.646   0.818   2.276 -0.9448  0.2633  0.0317
12050TIP3    H157641   1.598   0.750   2.230  0.2272 -0.7964  0.3494
12050TIP3    H257642   1.724   0.832   2.223 -0.5586  0.4460  0.6469
12051TIP3   OH257643   5.238   3.788  12.771  0.3640  0.1050 -0.5393
12051TIP3    H157644   5.331   3.807  12.774  0.2392  1.0469 -1.8951
12051TIP3    H257645   5.196   3.874  12.762 -0.6372 -0.2905  0.2260
12052TIP3   OH257646   0.437   3.565  16.752 -0.4004  0.6781  0.3948
12052TIP3    H157647   0.352   3.529  16.777  0.2266 -0.8853  0.3574
12052TIP3    H257648   0.495   3.542  16.824  0.5243 -0.3818 -0.6749
12053TIP3   OH257649   5.705   1.794  10.845  0.6481 -0.1777  1.4304
12053TIP3    H157650   5.614   1.819  10.827  1.4526  2.4580  0.7675
12053TIP3    H257651   5.731   1.742  10.769 -0.5874 -1.7729  2.0758
12054TIP3   OH257652   2.149   3.323  12.227 -1.1601  0.0894  0.0482
12054TIP3    H157653   2.210   3.259  12.262 -2.9863 -1.4672  0.4556
12054TIP3    H257654   2.178   3.338  12.137  1.7117  1.8036  1.1744
12055TIP3   OH257655   1.514   0.262  10.983 -0.2488 -0.0293 -0.4008
12055TIP3    H157656   1.463   0.331  11.026  1.4638  0.9679  0.1007
12055TIP3    H257657   1.497   0.275  10.889 -0.7087  0.4511 -0.2551
12056TIP3   OH257658   5.367   2.389  16.585 -0.0490  0.9086  0.3053
12056TIP3    H157659   5.459   2.390  16.611  0.0075  0.1379  0.1328
12056TIP3    H257660   5.339   2.481  16.593  0.6187  1.0769  0.7472
12057TIP3   OH257661   4.923   5.193  12.055  0.2665 -0.2667 -0.5206
12057TIP3    H157662   4.946   5.258  12.122 -3.0189  0.8401 -0.4033
12057TIP3    H257663   4.948   5.234  11.972  2.5073 -0.8322 -0.1733
12058TIP3   OH257664   0.429   4.670  16.446 -0.2668 -0.2468  0.9842
12058TIP3    H157665   0.490   4.679  16.373  0.5546 -0.5944  1.6158
12058TIP3    H257666   0.343   4.686  16.408  0.0741 -1.2198 -0.2231
12059TIP3   OH257667   3.593   2.513  14.456  0.3807  0.8343  0.1625
12059TIP3    H157668   3.664   2.460  14.492  0.6630 -0.4725 -2.2027
12059TIP3    H257669   3.630   2.602  14.450  0.4318  1.0341  2.6603
12060TIP3   OH257670   5.737   5.588   5.668  0.1874 -0.4817 -0.4448
12060TIP3    H157671   5.664   5.595   5.606 -0.7296 -1.0755  0.5410
12060TIP3    H257672   5.696   5.556   5.748  1.2852  0.7669  0.6228
12061TIP3   OH257673   0.756   6.664  14.566  0.2987  0.5224  0.7418
12061TIP3    H157674   0.800   6.655  14.650  0.6899  1.4297  0.6448
12061TIP3    H257675   0.759   6.758  14.547  1.6838  0.1411 -1.0562
12062TIP3   OH257676   4.811   6.045   0.347  0.4365 -0.0739 -0.1853
12062TIP3    H157677   4.773   6.042   0.435 -0.4078 -1.4711 -0.5807
12062TIP3    H257678   4.852   6.131   0.342  1.0969 -0.2322  1.8313
12063TIP3   OH257679   4.142   5.492  15.241  0.8248 -0.1456  0.4609
12063TIP3    H157680   4.062   5.459  15.199 -0.2545 -2.0648  3.7576
12063TIP3    H257681   4.198   5.415  15.250  1.1368  0.2496  2.1844
12064TIP3   OH257682   1.970   2.315  16.435  0.1473 -0.2014  0.3711
12064TIP3    H157683   1.948   2.300  16.343 -2.9444  0.6286  0.9020
12064TIP3    H257684   2.033   2.387  16.433 -0.1932  0.0824 -1.0645
12065TIP3   OH257685   6.804   4.851   4.167 -0.5054 -0.4292 -0.3254
12065TIP3    H157686   6.870   4.792   4.203 -0.4179 -0.4285 -0.4852
12065TIP3    H257687   6.820   4.850   4.073 -2.8171 -3.0492 -0.7719
12066TIP3   OH257688   4.064   3.996  13.560  0.3176 -0.1970 -0.4369
12066TIP3    H157689   4.006   3.920  13.563 -0.7077  0.5961 -0.0399
12066TIP3    H257690   4.019   4.062  13.612 -0.1146  1.6162 -3.0729
12067TIP3   OH257691   4.891   6.317  14.638  0.5334 -0.7246 -0.5988
12067TIP3    H157692   4.886   6.335  14.732  1.7573 -2.0750 -0.2648
12067TIP3    H257693   4.838   6.239  14.625 -0.7972  0.2665 -1.2757
12068TIP3   OH257694   6.816   0.708  16.413 -0.0640  0.2833 -0.7250
12068TIP3    H157695   6.755   0.674  16.479 -1.4617 -2.0447 -3.1151
12068TIP3    H257696   6.902   0.683  16.446 -0.6232  0.4003  0.8977
12069TIP3   OH257697   3.744   3.694  15.061 -0.0337 -0.3785  0.1653
12069TIP3    H157698   3.812   3.633  15.090  0.4946 -0.0511 -0.3721
12069TIP3    H257699   3.779   3.733  14.981  1.0740  2.9476  2.1322
12070TIP3   OH257700   1.274   5.458  15.329 -0.2747 -0.8913  0.3808
12070TIP3    H157701   1.290   5.365  15.345  2.3512 -0.4967  0.2105
12070TIP3    H257702   1.250   5.493  15.414  1.1526 -1.2576  0.9412
12071TIP3   OH257703   4.414   5.274  14.282  0.2290 -0.2045  0.0850
12071TIP3    H157704   4.444   5.186  14.306 -0.4005 -0.8440 -1.3398
12071TIP3    H257705   4.319   5.271  14.297  0.1449  0.0780 -0.3920
12072TIP3   OH257706   6.314   2.802   5.696  0.7868 -0.4373  0.2574
12072TIP3    H157707   6.318   2.753   5.614  1.1644 -2.4012  1.4121
12072TIP3    H257708   6.406   2.817   5.719  0.6840  1.3879 -0.3698
12073TIP3   OH257709   2.547   6.279  13.037 -0.1190 -0.1523 -0.5934
12073TIP3    H157710   2.501   6.355  13.072  0.0094  0.4549 -1.7214
12073TIP3    H257711   2.636   6.311  13.021  1.0514 -1.5900  2.5916
12074TIP3   OH257712   0.754   4.155   2.451 -0.0564  0.6410 -0.6773
12074TIP3    H157713   0.754   4.215   2.526 -1.1248  0.4511 -0.5180
12074TIP3    H257714   0.843   4.119   2.449 -0.2581  0.0007  1.0203
12075TIP3   OH257715   1.375   6.552  12.115 -1.0059  0.2037 -0.2583
12075TIP3    H157716   1.311   6.486  12.144 -0.1004 -0.2580  0.7455
12075TIP3    H257717   1.353   6.630  12.166 -1.3544  0.3406 -0.6103
12076TIP3   OH257718   5.819   2.365   5.420 -0.1024 -0.7889 -0.2602
12076TIP3    H157719   5.845   2.421   5.347 -1.2497 -0.7065 -0.6141
12076TIP3    H257720   5.797   2.427   5.490 -0.6193 -0.8232 -0.3949
12077TIP3   OH257721   1.288   1.179  17.002  0.0375 -0.3121 -0.4660
12077TIP3    H157722   1.314   1.209  16.915  1.1454  0.2492  0.0406
12077TIP3    H257723   1.228   1.247  17.034  0.4244 -0.0041 -0.3929
12078TIP3   OH257724   0.619   1.521  15.405  0.4482  0.4720 -0.0026
12078TIP3    H157725   0.701   1.475  15.423 -1.0957 -2.2561  0.3027
12078TIP3    H257726   0.618   1.532  15.310  0.5945 -0.6619 -0.1458
12079TIP3   OH257727   3.128   2.094  15.438 -0.2079 -0.5265 -0.5759
12079TIP3    H157728   3.147   2.006  15.470  1.0905 -0.7768 -1.9754
12079TIP3    H257729   3.173   2.153  15.499 -1.8616 -0.7684  0.9145
12080TIP3   OH257730   5.086   1.880  12.328 -0.4173  0.1627 -1.1891
12080TIP3    H157731   5.135   1.858  12.407 -3.7745 -0.0038  0.9773
12080TIP3    H257732   5.066   1.796  12.287 -0.8105  0.0798 -0.8319
12081TIP3   OH257733   6.243   6.487  13.127  0.2695 -1.0077  0.2201
12081TIP3    H157734   6.295   6.544  13.069  0.5211 -0.4278  1.0130
12081TIP3    H257735   6.164   6.468  13.077  0.8157 -1.1053 -0.6136
12082TIP3   OH257736   4.487   0.287  13.348 -0.0514  0.5586 -0.7829
12082TIP3    H157737   4.467   0.317  13.260  0.1347  1.0196 -0.6728
12082TIP3    H257738   4.500   0.368  13.398  1.4136  0.2928 -0.6995
12083TIP3   OH257739   2.684   6.011  12.515  0.1249 -0.2069 -0.7242
12083TIP3    H157740   2.643   6.069  12.579  1.3101 -0.1099 -0.0315
12083TIP3    H257741   2.760   5.975  12.561  1.0670 -0.0397 -2.1142
12084TIP3   OH257742   3.030   2.029  14.751 -0.0413 -0.0583 -0.3156
12084TIP3    H157743   2.964   1.988  14.807  0.5636  1.1886  1.3671
12084TIP3    H257744   2.993   2.116  14.732  0.2612 -0.0645 -0.9270
12085TIP3   OH257745   6.157   0.799  13.683 -0.7399 -0.3197 -0.0232
12085TIP3    H157746   6.163   0.779  13.589  1.0099  0.1376 -0.0244
12085TIP3    H257747   6.067   0.828  13.695 -1.0718 -0.6856 -1.5077
12086TIP3   OH257748   0.735   1.127   4.679 -0.4050 -0.8638  0.0511
12086TIP3    H157749   0.648   1.142   4.641 -0.0905  0.2250 -0.2603
12086TIP3    H257750   0.721   1.059   4.745 -1.8126  0.5036  1.2015
12087TIP3   OH257751   4.995   6.155  12.052  0.0753 -0.4444 -0.0867
12087TIP3    H157752   4.934   6.139  11.980  1.6360 -3.4503 -0.8062
12087TIP3    H257753   5.041   6.235  12.027 -1.8593  0.5212 -0.6916
12088TIP3   OH257754   0.796   5.509   4.199  0.4307  0.1483 -0.3402
12088TIP3    H157755   0.714   5.468   4.229  0.0646  1.1511  0.0561
12088TIP3    H257756   0.852   5.511   4.277  0.5897  0.0492 -0.4522
12089TIP3   OH257757   5.477   1.728  16.268 -0.2984  0.1916 -0.2499
12089TIP3    H157758   5.384   1.742  16.248 -0.8394 -1.2170  1.2169
12089TIP3    H257759   5.523   1.772  16.197 -2.0947  0.8018 -1.0670
12090TIP3   OH257760   5.188   6.642  13.568 -0.5479 -0.2846  0.2607
12090TIP3    H157761   5.180   6.728  13.610  1.4300 -0.1067  0.3343
12090TIP3    H257762   5.270   6.607  13.602 -1.8206 -2.6551  0.9834
12091TIP3   OH257763   0.574   2.438   3.271 -0.3377  0.5462 -0.3410
12091TIP3    H157764   0.479   2.449   3.269 -0.4112  0.0350  0.1627
12091TIP3    H257765   0.592   2.369   3.207 -0.1610  1.5798 -1.4311
12092TIP3   OH257766   1.383   6.025  16.071 -0.5716  0.5672 -0.1635
12092TIP3    H157767   1.453   6.032  16.007 -2.4175  0.9082 -2.2036
12092TIP3    H257768   1.371   5.931  16.084 -1.4208  0.4417 -1.7431
12093TIP3   OH257769   6.488   3.703   0.329  0.2316 -0.0534 -0.2553
12093TIP3    H157770   6.506   3.624   0.379  2.3724  0.4772 -0.1412
12093TIP3    H257771   6.441   3.671   0.252  2.3145 -1.6713 -0.9371
12094TIP3   OH257772   4.125   4.405   2.582  0.2260  0.8187 -0.1551
12094TIP3    H157773   4.169   4.471   2.528 -1.3589  1.5120 -0.6307
12094TIP3    H257774   4.032   4.422   2.570 -0.1783  0.0546  1.6780
12095TIP3   OH257775   5.896   3.258   1.854 -0.1089  0.5384  0.3087
12095TIP3    H157776   5.865   3.234   1.767 -1.3470  1.1011  0.5820
12095TIP3    H257777   5.898   3.354   1.853  1.3725  0.5061  0.3850
12096TIP3   OH257778   2.944   2.294  16.908 -0.4194  0.0353 -0.1438
12096TIP3    H157779   3.031   2.313  16.871 -0.3601 -1.0078 -0.5740
12096TIP3    H257780   2.901   2.242  16.840 -0.0774 -2.4687  1.4969
12097TIP3   OH257781   4.152   0.691   3.375 -0.3857  0.4342  0.0543
12097TIP3    H157782   4.193   0.623   3.428 -2.2600 -0.1176  0.8218
12097TIP3    H257783   4.121   0.755   3.439 -1.8457  0.2184 -0.4401
12098TIP3   OH257784   5.654   1.195   0.646 -0.2878 -0.2322 -0.6354
12098TIP3    H157785   5.652   1.244   0.728  1.1526  1.2896 -1.4735
12098TIP3    H257786   5.568   1.152   0.642  0.1698 -1.5442  2.3392
12099TIP3   OH257787   4.651   5.958   2.040  0.2029 -0.4530 -0.2205
12099TIP3    H157788   4.665   6.042   1.995  0.9331 -0.8563 -0.7472
12099TIP3    H257789   4.561   5.933   2.017 -0.4647  0.7823  0.9345
12100TIP3   OH257790   5.726   6.584   2.255  0.0630  0.2517 -0.4150
12100TIP3    H157791   5.715   6.591   2.350  1.3070  1.1343 -0.3292
12100TIP3    H257792   5.810   6.539   2.243  0.3022  0.8686 -1.1048
12101TIP3   OH257793   5.480   0.417  16.923 -0.6952 -0.3646  0.3116
12101TIP3    H157794   5.456   0.509  16.933  0.4764 -0.3070  2.9294
12101TIP3    H257795   5.575   0.417  16.918 -0.7266 -1.3760 -0.5317
12102TIP3   OH257796   5.586   6.367   0.512  0.0766 -0.6467 -0.0668
12102TIP3    H157797   5.665   6.373   0.458 -0.9630 -1.2839 -1.6693
12102TIP3    H257798   5.558   6.458   0.523 -0.5593 -0.6071 -1.8834
12103TIP3   OH257799   6.140   4.300  16.228 -0.2035 -0.2365 -0.1941
12103TIP3    H157800   6.051   4.309  16.262  1.3673  0.7323  3.9875
12103TIP3    H257801   6.178   4.387  16.239  1.4979 -0.8413 -1.1889
12104TIP3   OH257802   6.330   5.961   4.654  0.5387  0.1305  0.1301
12104TIP3    H157803   6.325   6.012   4.735  0.9534  2.1744 -1.0822
12104TIP3    H257804   6.262   5.894   4.663  1.2817 -0.3167  2.5960
12105TIP3   OH257805   3.435   5.609  17.259 -0.9637 -0.6191  0.4327
12105TIP3    H157806   3.400   5.588  17.172  1.4172  0.8094 -0.9613
12105TIP3    H257807   3.487   5.533  17.283  0.6903  0.1047 -0.7309
12106TIP3   OH257808   4.674   4.857  15.260 -0.2365  0.7399 -0.3097
12106TIP3    H157809   4.677   4.889  15.170 -0.4681  1.5547 -0.0367
12106TIP3    H257810   4.607   4.789  15.258  0.5893 -0.0630 -1.0001
12107TIP3   OH257811   1.128   5.783  15.637 -0.7941  0.0073  0.0090
12107TIP3    H157812   1.105   5.867  15.596  0.3732 -0.0442 -0.7638
12107TIP3    H257813   1.189   5.807  15.708  0.0881 -0.2412 -0.6566
12108TIP3   OH257814   5.172   1.893   4.665  0.3879 -0.2723 -0.2356
12108TIP3    H157815   5.103   1.909   4.600  1.0739  0.5031 -0.7761
12108TIP3    H257816   5.218   1.816   4.633 -1.2172 -1.7877  0.9637
12109TIP3   OH257817   3.930   5.917  16.018 -0.0278  0.0201  0.5209
12109TIP3    H157818   4.011   5.876  15.990 -0.5949 -1.5984  1.1637
12109TIP3    H257819   3.957   5.986  16.079  0.8637 -0.4730  0.6818
12110TIP3   OH257820   2.357   2.425   0.478 -0.0929 -0.0187  0.0814
12110TIP3    H157821   2.302   2.465   0.411  0.8039  1.3128  0.1143
12110TIP3    H257822   2.362   2.490   0.548  2.8396  0.5731 -0.6273
12111TIP3   OH257823   0.339   0.298   3.191 -0.2665  0.0917 -0.0703
12111TIP3    H157824   0.258   0.350   3.197 -0.6185 -0.4315 -0.2359
12111TIP3    H257825   0.344   0.272   3.099 -0.2620 -0.4369  0.0769
12112TIP3   OH257826   1.851   6.084   2.286 -0.2956 -0.0466  0.1711
12112TIP3    H157827   1.814   6.037   2.362 -1.3024 -0.9890 -0.8856
12112TIP3    H257828   1.824   6.032   2.211 -0.1857  1.4646 -0.9225
12113TIP3   OH257829   1.325   1.085  13.939 -0.1143 -0.0027 -0.4788
12113TIP3    H157830   1.253   1.083  13.876 -0.2880 -1.8643 -0.2554
12113TIP3    H257831   1.359   1.175  13.934 -1.0470  0.2813 -2.1677
12114TIP3   OH257832   3.850   2.562   3.814 -0.9063  1.1619  0.3769
12114TIP3    H157833   3.888   2.578   3.901 -0.2928 -0.8090  0.5059
12114TIP3    H257834   3.756   2.567   3.828 -0.8790 -1.0368  1.6039
12115TIP3   OH257835   4.302   5.358   5.091  0.2419 -0.1112 -0.3825
12115TIP3    H157836   4.346   5.274   5.099  0.0940 -0.4519 -2.9906
12115TIP3    H257837   4.348   5.403   5.021 -1.4810  0.8445 -0.9335
12116TIP3   OH257838   2.713   6.105  16.485  0.5498 -0.1174  0.2434
12116TIP3    H157839   2.746   6.185  16.528  1.3720 -0.4747  0.2908
12116TIP3    H257840   2.786   6.076  16.430  0.4125 -1.0891  0.5732
12117TIP3   OH257841   4.280   6.231  16.358 -0.1329 -0.4746  0.2142
12117TIP3    H157842   4.191   6.211  16.385 -0.2531 -0.6420 -0.3062
12117TIP3    H257843   4.294   6.178  16.279 -0.0754  0.6590 -0.5480
12118TIP3   OH257844   3.729   1.357  13.814  0.1400 -0.3709  0.3464
12118TIP3    H157845   3.689   1.339  13.729  0.9947 -0.4814 -0.0443
12118TIP3    H257846   3.696   1.444  13.838  1.1975  0.4030 -0.9013
12119TIP3   OH257847   2.654   3.326   5.752  0.7295  0.6432  0.0453
12119TIP3    H157848   2.574   3.275   5.742  1.3509 -0.3778  0.2045
12119TIP3    H257849   2.690   3.299   5.837  1.0468  1.3695  0.1483
12120TIP3   OH257850   4.450   3.720   0.753 -0.0377  1.2821  0.0830
12120TIP3    H157851   4.465   3.750   0.663 -0.6001  1.0889 -0.0762
12120TIP3    H257852   4.393   3.644   0.744 -1.5552  2.3276  0.7114
12121TIP3   OH257853   6.426   2.878  14.556 -0.0716  0.6327  0.3245
12121TIP3    H157854   6.488   2.814  14.520 -0.6002 -0.5072  1.4322
12121TIP3    H257855   6.481   2.938  14.607  0.3271  0.6275 -0.0924
12122TIP3   OH257856   3.495   5.899  12.929 -0.3765  0.1549  0.2859
12122TIP3    H157857   3.519   5.818  12.975 -0.6222 -0.3146 -0.3926
12122TIP3    H257858   3.523   5.883  12.839 -1.7019  0.2702 -0.1473
12123TIP3   OH257859   1.651   3.199  17.005  0.9237 -0.5783  0.9110
12123TIP3    H157860   1.646   3.168  17.095 -2.4483 -1.4259  0.4973
12123TIP3    H257861   1.635   3.293  17.011  2.4336 -0.3357  1.3315
12124TIP3   OH257862   0.023   1.388  17.207 -0.3041 -0.2605  0.3717
12124TIP3    H157863  -0.063   1.423  17.186 -0.1171 -0.0573 -0.0757
12124TIP3    H257864   0.081   1.425  17.140  0.3718  0.6447  1.4430
12125TIP3   OH257865   5.610   5.504  12.259  0.8274  0.1520 -0.5598
12125TIP3    H157866   5.577   5.576  12.313  2.7966 -0.4040  1.4719
12125TIP3    H257867   5.688   5.539  12.217  1.5372 -0.6338  0.0832
12126TIP3   OH257868   1.744   2.139  17.074 -0.4462 -1.0384 -0.1312
12126TIP3    H157869   1.828   2.105  17.046  0.2279 -1.7119  2.6084
12126TIP3    H257870   1.679   2.089  17.024  0.7106 -1.6519 -1.0235
12127TIP3   OH257871   0.235   0.110  13.048  0.4708 -0.1318 -0.2474
12127TIP3    H157872   0.160   0.072  13.001  0.8251  0.9757 -1.7471
12127TIP3    H257873   0.209   0.108  13.140 -0.7809 -1.1472 -0.6074
12128TIP3   OH257874   0.121   5.668  12.520 -0.0670  0.6520  0.6988
12128TIP3    H157875   0.029   5.658  12.545 -0.4598  1.1939 -0.4756
12128TIP3    H257876   0.148   5.750  12.561  0.0773  0.1820  1.5551
12129TIP3   OH257877   5.749   1.538  14.115 -0.5481 -0.1979 -0.0614
12129TIP3    H157878   5.736   1.630  14.140  0.0938 -0.2066  0.3227
12129TIP3    H257879   5.681   1.521  14.050 -2.8382 -0.4303  2.2953
12130TIP3   OH257880   6.493   3.045  12.309 -0.2372 -0.2124 -0.7965
12130TIP3    H157881   6.571   3.029  12.256 -1.5599 -3.2993 -1.9563
12130TIP3    H257882   6.520   3.024  12.398 -0.0691 -2.7002 -1.3965
12131TIP3   OH257883   5.038   1.244  15.858  0.2773 -0.3222 -0.0660
12131TIP3    H157884   5.105   1.281  15.799  1.1810 -1.1761  0.4027
12131TIP3    H257885   5.000   1.320  15.902  3.2693  0.0014  2.1290
12132TIP3   OH257886   4.025   2.368   1.751 -0.1007 -0.3741 -0.2302
12132TIP3    H157887   4.062   2.367   1.663 -0.3213  0.3996 -0.3381
12132TIP3    H257888   4.098   2.342   1.808  0.3003  0.0235 -0.5534
12133TIP3   OH257889   1.088   1.054  11.238  0.3405  0.1958  0.2015
12133TIP3    H157890   1.151   1.121  11.262  1.1034 -0.8252  1.1147
12133TIP3    H257891   1.033   1.044  11.316 -1.2594  1.3824 -0.7240
12134TIP3   OH257892   1.395   5.453   5.578 -0.2141 -0.9787 -1.0018
12134TIP3    H157893   1.392   5.512   5.502 -0.2569  0.2735 -0.0310
12134TIP3    H257894   1.455   5.383   5.551 -0.5178 -0.7469 -2.3315
12135TIP3   OH257895   4.929   3.790   5.642  0.0309 -0.1767 -0.2458
12135TIP3    H157896   4.837   3.792   5.669  0.2741  0.4587  0.5584
12135TIP3    H257897   4.930   3.831   5.555 -0.1707  1.6944  0.6139
12136TIP3   OH257898   5.354   0.503  11.800 -0.5503  0.0462  0.4523
12136TIP3    H157899   5.409   0.510  11.722  1.1749 -1.1131  1.5285
12136TIP3    H257900   5.294   0.577  11.794  1.8906  2.0407 -0.1490
12137TIP3   OH257901   4.135   0.296   1.959  0.0194  0.5977  0.0550
12137TIP3    H157902   4.163   0.204   1.960 -0.2661  0.5179  0.9765
12137TIP3    H257903   4.216   0.346   1.972 -0.0219  0.4257  0.9919
12138TIP3   OH257904   2.786   5.642  14.100  0.1505 -0.1567  0.2317
12138TIP3    H157905   2.824   5.715  14.148  1.3868 -0.1940 -0.6748
12138TIP3    H257906   2.842   5.568  14.121  0.3418 -0.3035 -0.7882
12139TIP3   OH257907   6.322   5.642   3.779  0.6060  0.6689  0.4872
12139TIP3    H157908   6.313   5.735   3.761 -1.9727  0.2389 -0.6170
12139TIP3    H257909   6.234   5.607   3.771  2.2371 -2.8860 -4.9089
12140TIP3   OH257910   0.587   0.568  16.955  0.3605  0.5567 -0.2884
12140TIP3    H157911   0.544   0.564  17.040 -0.1527 -0.0207 -0.5722
12140TIP3    H257912   0.607   0.661  16.942  0.8412  0.5939  0.6594
12141TIP3   OH257913   2.196   4.846   1.752 -0.1655 -0.4341 -0.1296
12141TIP3    H157914   2.165   4.851   1.843 -0.3170  1.3993 -0.2561
12141TIP3    H257915   2.217   4.754   1.739 -2.6660 -1.2099  0.9355
12142TIP3   OH257916   1.787   0.131  11.982 -0.4618  0.0606 -0.2012
12142TIP3    H157917   1.876   0.132  11.945  0.0981 -2.3110  1.0051
12142TIP3    H257918   1.796   0.180  12.064  0.3498 -2.3144  1.1754
12143TIP3   OH257919   1.933   0.625  12.792 -0.0670 -0.1475  0.6619
12143TIP3    H157920   1.955   0.563  12.861 -0.0703  1.3979  2.0848
12143TIP3    H257921   1.969   0.708  12.822  0.3008  0.4785 -1.3990
12144TIP3   OH257922   6.695   3.221  13.666  0.2347  0.2362  0.2504
12144TIP3    H157923   6.618   3.208  13.721  0.6520 -0.5735  0.6513
12144TIP3    H257924   6.664   3.274  13.593 -0.1324  2.0937  1.7138
12145TIP3   OH257925   4.566   5.948  13.301  0.3202  0.0874 -0.2976
12145TIP3    H157926   4.646   5.902  13.326  0.7676  0.8228 -0.3741
12145TIP3    H257927   4.594   6.038  13.284 -0.4915  0.3047 -0.5004
12146TIP3   OH257928   6.592   6.065   5.797 -0.0974 -0.4565 -0.0532
12146TIP3    H157929   6.688   6.067   5.797 -0.0656 -1.3695  0.7536
12146TIP3    H257930   6.569   6.033   5.884 -1.0404 -3.0835 -1.2170
12147TIP3   OH257931   2.266   5.398  11.636 -0.1993  0.5425  0.2633
12147TIP3    H157932   2.344   5.429  11.590 -1.5276  1.6289 -1.3324
12147TIP3    H257933   2.282   5.304  11.649  1.5432  0.8407  0.3221
12148TIP3   OH257934   4.161   0.275   0.099  0.3678 -0.2180  0.0575
12148TIP3    H157935   4.079   0.268   0.051  0.1350  0.5138  0.3397
12148TIP3    H257936   4.229   0.255   0.035  0.0573  0.7273 -0.5745
12149TIP3   OH257937   4.247   6.288  13.748  0.0676 -0.3771 -0.3669
12149TIP3    H157938   4.316   6.354  13.745 -0.2555 -0.0919 -1.7562
12149TIP3    H257939   4.166   6.337  13.761  0.0585 -0.6707  0.7287
12150TIP3   OH257940   6.740   2.992  13.038 -0.0874 -0.2473 -0.0024
12150TIP3    H157941   6.739   3.051  13.114 -0.9247 -1.4329  0.9270
12150TIP3    H257942   6.660   3.014  12.989  0.6297  0.7568 -0.7490
12151TIP3   OH257943   2.287   3.791  13.610 -0.2869  0.4976  0.3343
12151TIP3    H157944   2.340   3.732  13.556  0.7782  0.6511  1.1951
12151TIP3    H257945   2.211   3.811  13.556  2.0404  2.8015 -2.2224
12152TIP3   OH257946   1.586   6.286   4.376  0.4357  0.1634 -0.6439
12152TIP3    H157947   1.630   6.202   4.384  0.2780  0.0080 -1.3194
12152TIP3    H257948   1.657   6.351   4.381  0.3940  0.0772  1.3760
12153TIP3   OH257949   1.973   1.505   5.063 -0.2122 -0.2448 -0.4420
12153TIP3    H157950   1.936   1.452   5.134  1.1290 -0.1484  0.3420
12153TIP3    H257951   2.018   1.577   5.107 -0.2134  0.3723 -1.4357
12154TIP3   OH257952   1.094   5.793   2.241 -0.2750  0.2938 -0.0740
12154TIP3    H157953   1.148   5.762   2.313 -0.4567  0.9377  0.3371
12154TIP3    H257954   1.106   5.727   2.172  1.9774  1.0411 -0.4324
12155TIP3   OH257955   6.649   3.137  16.917  0.0981 -0.3334  0.7721
12155TIP3    H157956   6.557   3.142  16.939 -0.1641  1.5803 -0.5573
12155TIP3    H257957   6.664   3.046  16.894 -2.4271  0.0579 -2.8437
12156TIP3   OH257958   0.694   4.792   6.530 -0.2188 -0.4889  0.0421
12156TIP3    H157959   0.623   4.761   6.588  1.0839 -1.0686  1.3562
12156TIP3    H257960   0.738   4.860   6.582  0.5477 -0.5380 -0.5542
12157TIP3   OH257961   4.956   5.829   4.526 -0.2218 -0.4157  0.1197
12157TIP3    H157962   4.920   5.776   4.455 -0.3933 -1.1435  0.7456
12157TIP3    H257963   5.029   5.877   4.487  0.1625 -1.3921 -0.3584
12158TIP3   OH257964   5.772   5.847  15.065  0.2416 -0.0542  0.2537
12158TIP3    H157965   5.829   5.828  14.991 -0.5075 -2.0654  0.1479
12158TIP3    H257966   5.815   5.805  15.140 -1.4959 -2.4041  0.0021
12159TIP3   OH257967   2.356   4.311  11.134  0.1615 -0.1362  0.3872
12159TIP3    H157968   2.300   4.259  11.190 -0.4337  0.0273 -0.0513
12159TIP3    H257969   2.317   4.303  11.047  2.1139 -1.9049 -0.3806
12160TIP3   OH257970   1.796   3.628  16.313  0.2738 -0.0366 -0.1302
12160TIP3    H157971   1.806   3.544  16.357 -0.4546  0.6174  1.3481
12160TIP3    H257972   1.885   3.656  16.292  0.5270 -1.0576 -0.4073
12161TIP3   OH257973   0.931   0.469   2.717  0.8318 -0.3896  0.5854
12161TIP3    H157974   0.974   0.388   2.690  0.9685 -0.0478 -0.2557
12161TIP3    H257975   0.994   0.538   2.697  0.2988  0.0188  0.2860
12162TIP3   OH257976   5.895   4.322  17.111 -0.2618 -0.2647 -0.5336
12162TIP3    H157977   5.886   4.398  17.054 -0.3286 -1.6048 -2.3610
12162TIP3    H257978   5.805   4.299  17.134 -0.1581  1.4681  1.7951
12163TIP3   OH257979   3.331   5.454  11.705  0.2203 -0.0992  0.0056
12163TIP3    H157980   3.291   5.491  11.783 -0.8933 -0.9051 -0.1778
12163TIP3    H257981   3.363   5.368  11.732  1.8575  0.5325  0.1526
12164TIP3   OH257982   5.072   4.453  16.280  0.3217  0.0577 -0.1478
12164TIP3    H157983   5.149   4.463  16.336 -0.2515 -1.1301  0.8709
12164TIP3    H257984   4.999   4.446  16.341 -0.6763  1.7047 -1.1178
12165TIP3   OH257985   6.372   3.161  16.911 -0.1560  0.1155  0.0069
12165TIP3    H157986   6.300   3.141  16.851  0.0381  0.0958 -0.2205
12165TIP3    H257987   6.348   3.117  16.992  0.7609 -1.9776 -0.8036
12166TIP3   OH257988   4.968   4.111  14.988 -0.4031 -0.2343 -1.3284
12166TIP3    H157989   4.950   4.115  14.894 -2.8702 -0.2072 -0.8887
12166TIP3    H257990   4.914   4.181  15.025  0.4427 -0.3430  0.1212
12167TIP3   OH257991   5.072   0.998   4.970  0.0686  0.2172 -0.9138
12167TIP3    H157992   5.157   0.986   5.012 -1.0310  1.8356  1.9143
12167TIP3    H257993   5.075   1.085   4.932 -0.6435  0.7141  0.1189
12168TIP3   OH257994   2.516   0.300  13.449  0.4418  0.2266  0.2409
12168TIP3    H157995   2.581   0.343  13.506 -0.2238  1.5452  0.0247
12168TIP3    H257996   2.552   0.212  13.434  0.8714  0.0108  2.3109
12169TIP3   OH257997   4.436   6.168   4.242  0.2083 -0.2129  0.3645
12169TIP3    H157998   4.531   6.176   4.233  0.2265 -1.4222 -0.6387
12169TIP3    H257999   4.423   6.158   4.337  1.0398  0.4025  0.5522
12170TIP3   OH258000   3.234   5.202   0.896  0.3279  0.4747 -0.5305
12170TIP3    H158001   3.284   5.163   0.825 -0.7938  0.8623 -1.5482
12170TIP3    H258002   3.151   5.228   0.856 -1.2086 -1.3057  1.3589
12171TIP3   OH258003   4.998   0.858  12.901 -0.0976  0.1626 -0.5921
12171TIP3    H158004   5.005   0.951  12.924  0.5961  0.0539 -0.3589
12171TIP3    H258005   5.086   0.823  12.915 -0.0100 -0.2238 -1.9947
12172TIP3   OH258006   6.230   1.970   3.116  0.3093  0.4963 -0.4376
12172TIP3    H158007   6.166   1.952   3.185  1.0261  1.1441  0.4161
12172TIP3    H258008   6.289   1.895   3.118  0.3183  0.5052 -0.3600
12173TIP3   OH258009   6.621   1.901  12.634 -0.0726  0.2540 -0.3159
12173TIP3    H158010   6.569   1.822  12.646  0.3224  0.2488  1.5646
12173TIP3    H258011   6.556   1.970  12.618 -0.5623 -0.0188  0.4768
12174TIP3   OH258012   1.226   2.125   2.584  0.0891 -0.0512  0.5967
12174TIP3    H158013   1.277   2.058   2.538 -2.5989 -1.0337 -1.0637
12174TIP3    H258014   1.272   2.206   2.566  0.4347 -0.7574 -1.8787
12175TIP3   OH258015   1.441   1.383   3.473 -0.1998 -0.5810  0.1196
12175TIP3    H158016   1.510   1.430   3.520  0.5020 -1.1357 -0.3523
12175TIP3    H258017   1.368   1.381   3.535  0.7140 -1.3286  1.2205
12176TIP3   OH258018   4.180   3.961  12.909  0.2452  0.0367  0.1174
12176TIP3    H158019   4.203   3.995  12.996 -1.2197 -0.5883  0.7671
12176TIP3    H258020   4.221   3.875  12.906  0.0835 -0.0462  0.2860
12177TIP3   OH258021   2.583   1.062   5.517  0.3167 -0.0589 -0.3009
12177TIP3    H158022   2.538   1.079   5.600 -0.3901 -0.7837 -0.5326
12177TIP3    H258023   2.539   1.120   5.454  1.0771  0.7386 -0.1018
12178TIP3   OH258024   5.301   3.517   5.183  0.4299 -0.2254 -0.5185
12178TIP3    H158025   5.225   3.513   5.241 -0.2362  1.0030 -1.2888
12178TIP3    H258026   5.353   3.590   5.215 -0.9530  1.7600 -2.6391
12179TIP3   OH258027   4.466   1.982   5.915  0.0982 -0.5211  0.4683
12179TIP3    H158028   4.494   2.073   5.909  1.0901 -0.8547  0.0042
12179TIP3    H258029   4.403   1.981   5.986 -0.9481  0.7904 -0.4088
12180TIP3   OH258030   3.361   0.118   0.584  0.1806 -0.4575 -0.2374
12180TIP3    H158031   3.348   0.122   0.489  1.3083 -1.8731 -0.4532
12180TIP3    H258032   3.406   0.200   0.605 -0.0398 -0.1529 -0.9139
12181TIP3   OH258033   2.020   0.664  14.865  0.0436 -0.3361 -0.2194
12181TIP3    H158034   2.062   0.589  14.823 -0.4711 -1.8571  1.9440
12181TIP3    H258035   1.928   0.657  14.840 -0.1022 -0.7431  0.4193
12182TIP3   OH258036   5.003   3.253   1.839  0.5356 -0.7219  0.7396
12182TIP3    H158037   5.089   3.233   1.802  1.0777  0.9301  1.0567
12182TIP3    H258038   5.019   3.264   1.932  0.3497  1.5028  0.5331
12183TIP3   OH258039   2.326   0.863  12.759  0.1340 -0.2726  0.0975
12183TIP3    H158040   2.241   0.823  12.779 -0.4748  1.9437  2.2320
12183TIP3    H258041   2.343   0.839  12.668 -2.8827 -0.6024 -0.4447
12184TIP3   OH258042   5.532   6.391   6.296 -0.6341  0.2329  0.3767
12184TIP3    H158043   5.510   6.415   6.386  0.3104 -1.6015  1.1373
12184TIP3    H258044   5.521   6.296   6.294 -0.7618  0.2830 -1.4918
12185TIP3   OH258045   0.396   0.745   1.588  0.2699 -0.1391  0.0249
12185TIP3    H158046   0.355   0.736   1.502 -0.0486  0.2767  0.1318
12185TIP3    H258047   0.353   0.821   1.628  0.4673 -0.2837  0.5216
12186TIP3   OH258048   1.444   3.079   4.778 -0.2560  0.2865 -0.9319
12186TIP3    H158049   1.437   3.172   4.795 -0.5534 -0.0766  1.0390
12186TIP3    H258050   1.538   3.060   4.787 -0.1547  0.4526 -1.6411
12187TIP3   OH258051   1.801   5.172  12.677  0.1493 -0.1266 -0.4295
12187TIP3    H158052   1.838   5.157  12.764  0.7659  0.5154 -0.5744
12187TIP3    H258053   1.714   5.133  12.680  0.6214 -1.1268  0.1024
12188TIP3   OH258054   6.228   1.716   0.224  0.1209 -0.2318 -0.0603
12188TIP3    H158055   6.181   1.736   0.144 -1.7823  1.7416  1.4677
12188TIP3    H258056   6.267   1.631   0.209 -3.0135 -1.4335 -1.8544
12189TIP3   OH258057   2.852   3.375   2.840 -0.2471 -0.1194 -0.3841
12189TIP3    H158058   2.759   3.385   2.862 -0.6881 -2.1698 -1.2281
12189TIP3    H258059   2.897   3.430   2.904 -1.9382 -0.4566  1.1567
12190TIP3   OH258060   1.845   5.140   1.403  0.3193  0.1460 -0.2504
12190TIP3    H158061   1.858   5.074   1.472 -2.2168  0.2301  0.3410
12190TIP3    H258062   1.815   5.090   1.328 -2.9506  0.7198  0.6107
12191TIP3   OH258063   4.621   4.454   0.109  0.3182 -0.3139 -0.0679
12191TIP3    H158064   4.599   4.523   0.046  1.3286  0.6919  0.6443
12191TIP3    H258065   4.566   4.474   0.185  1.1117  0.1262  0.3969
12192TIP3   OH258066   0.283   4.983  11.344 -0.2767 -0.3709 -0.2001
12192TIP3    H158067   0.310   4.937  11.264 -1.4983  2.3062 -2.2615
12192TIP3    H258068   0.189   4.967  11.350 -0.1041 -0.9359  0.9598
12193TIP3   OH258069   1.224   4.483   3.967 -0.3507  0.1776  0.1909
12193TIP3    H158070   1.291   4.473   3.899  0.1932  2.7865  0.2881
12193TIP3    H258071   1.272   4.516   4.043 -1.4905  0.5288  0.7657
12194TIP3   OH258072   5.975   2.357  12.770  0.1385 -0.3090  0.5173
12194TIP3    H158073   5.982   2.331  12.862 -2.3321  1.0850  1.1500
12194TIP3    H258074   5.895   2.314  12.739 -0.0308  0.6999 -0.4671
12195TIP3   OH258075   1.812   6.794  10.619  0.0017  0.1640 -0.0978
12195TIP3    H158076   1.728   6.818  10.658  0.7228 -1.1437  2.3584
12195TIP3    H258077   1.867   6.871  10.631  0.2396 -0.2521  1.5774
12196TIP3   OH258078   4.315   1.252   5.845 -0.4120 -0.1105  0.3858
12196TIP3    H158079   4.277   1.293   5.767  1.3829  0.8013 -0.0477
12196TIP3    H258080   4.253   1.271   5.915 -0.5385  1.7509 -0.2021
12197TIP3   OH258081   4.105   2.364   4.445 -0.5942 -0.2084 -0.3228
12197TIP3    H158082   4.066   2.406   4.369  1.6589 -1.6714 -2.3751
12197TIP3    H258083   4.166   2.300   4.408  0.3743 -1.1206  2.7184
12198TIP3   OH258084   1.585   3.553  15.761 -0.2411 -0.3925  0.9770
12198TIP3    H158085   1.545   3.639  15.768 -1.8491 -0.9327 -1.0387
12198TIP3    H258086   1.550   3.516  15.680  2.1331 -2.0596  0.6299
12199TIP3   OH258087   2.292   1.532  13.396  0.7419  0.2211  0.3575
12199TIP3    H158088   2.317   1.571  13.312  1.8122  1.8832  1.4301
12199TIP3    H258089   2.209   1.488  13.378  0.4463  1.4368 -1.3277
12200TIP3   OH258090   2.877   6.158   1.815 -0.6932  0.2175 -1.0278
12200TIP3    H158091   2.810   6.186   1.752 -0.7384  2.1457 -0.1623
12200TIP3    H258092   2.953   6.138   1.761 -1.9958 -2.2195 -2.0485
12201TIP3   OH258093   5.214   3.315  16.373  0.2265  0.1199 -0.3608
12201TIP3    H158094   5.166   3.373  16.433 -0.8093 -1.3907  0.3076
12201TIP3    H258095   5.302   3.310  16.410 -0.6091 -1.3965  1.4926
12202TIP3   OH258096   2.532   6.674  16.270  0.5913 -0.5276 -0.6241
12202TIP3    H158097   2.545   6.601  16.331 -0.5412  0.5410  0.9339
12202TIP3    H258098   2.480   6.636  16.199  2.5867 -1.9796 -1.3548
12203TIP3   OH258099   1.959   4.800  13.878  0.1791  0.5173  0.3152
12203TIP3    H158100   1.918   4.875  13.923  1.2552  2.0389 -1.1668
12203TIP3    H258101   1.995   4.838  13.797  0.5788 -1.6550 -0.5534
12204TIP3   OH258102   1.929   0.206   0.498 -0.0265  0.7170  0.7221
12204TIP3    H158103   1.970   0.123   0.524  0.9747  0.7865 -0.5592
12204TIP3    H258104   1.999   0.270   0.507  0.3099  0.7662 -1.9271
12205TIP3   OH258105   5.114   0.684  12.598 -0.2949 -0.1163 -0.7977
12205TIP3    H158106   5.207   0.682  12.574  0.3527  0.0166  1.6100
12205TIP3    H258107   5.112   0.724  12.684 -2.3867 -2.2198  0.1899
12206TIP3   OH258108   1.887   1.680  14.518  0.5788 -0.4389  0.8207
12206TIP3    H158109   1.801   1.680  14.476  0.9019 -0.8682  0.1343
12206TIP3    H258110   1.927   1.763  14.491  0.7550 -0.6789  0.3350
12207TIP3   OH258111   5.329   0.866   0.869  0.5125  0.3056 -0.3191
12207TIP3    H158112   5.257   0.824   0.918  0.3589  1.4132  0.4268
12207TIP3    H258113   5.383   0.907   0.937  0.7426  1.1901 -1.0278
12208TIP3   OH258114   5.722   6.317  15.424 -0.2677 -0.4893  0.2789
12208TIP3    H158115   5.795   6.295  15.366 -0.5017  0.8853 -0.5704
12208TIP3    H258116   5.762   6.329  15.510  0.7034  1.2475 -0.3722
12209TIP3   OH258117   0.315   2.086   0.240 -0.2129 -0.3944  0.1797
12209TIP3    H158118   0.336   2.111   0.330  2.5324  2.2692 -1.0999
12209TIP3    H258119   0.400   2.063   0.201 -1.1971 -0.4807 -1.9984
12210TIP3   OH258120   0.291   6.813  14.352 -0.0765  0.3678 -0.1476
12210TIP3    H158121   0.311   6.724  14.323  0.7223 -0.0359  1.6324
12210TIP3    H258122   0.223   6.803  14.418  0.3805  1.0286  0.4349
12211TIP3   OH258123   5.985   5.708   5.704  0.7187 -0.4992 -0.7631
12211TIP3    H158124   5.899   5.677   5.676  1.9152 -2.3800 -2.5249
12211TIP3    H258125   6.006   5.655   5.781  0.7657 -0.8296 -1.0007
12212TIP3   OH258126   0.314   5.313   3.096 -0.1770 -0.2989 -0.2899
12212TIP3    H158127   0.361   5.375   3.039 -2.5090  1.4040 -0.4448
12212TIP3    H258128   0.303   5.360   3.178 -2.1512 -0.4067 -0.4731
12213TIP3   OH258129   2.694   2.833   3.730 -1.0671 -0.2108  0.1651
12213TIP3    H158130   2.754   2.826   3.656  1.7589  1.9822  2.1224
12213TIP3    H258131   2.662   2.923   3.726 -0.9843 -0.1153  1.5172
12214TIP3   OH258132   4.491   0.906   6.812  0.2992 -0.2961 -0.1364
12214TIP3    H158133   4.507   0.924   6.719 -0.6044 -1.1983 -0.4766
12214TIP3    H258134   4.549   0.832   6.832  0.1019 -0.4478 -0.1232
12215TIP3   OH258135   2.158   1.752   4.836 -0.1293  0.7455  0.2618
12215TIP3    H158136   2.189   1.802   4.760 -0.9415  1.6366  0.4943
12215TIP3    H258137   2.069   1.727   4.812  0.1443 -0.2684  0.3070
12216TIP3   OH258138   6.380   5.910   5.068  0.0231 -0.2311  0.3715
12216TIP3    H158139   6.323   5.852   5.118 -1.4281  0.9930  0.1672
12216TIP3    H258140   6.320   5.963   5.015  1.4911 -1.2510 -2.4235
12217TIP3   OH258141   3.413   3.664  16.497  0.0486  0.3024 -0.2615
12217TIP3    H158142   3.372   3.712  16.425  0.0056  2.4305  1.1403
12217TIP3    H258143   3.497   3.636  16.462 -0.4161  0.3900 -1.4742
12218TIP3   OH258144   1.874   2.326   4.416 -0.0570 -0.4419  0.3883
12218TIP3    H158145   1.782   2.352   4.427  0.0001 -0.0825  0.0658
12218TIP3    H258146   1.870   2.238   4.379 -0.2927  0.0211 -0.7182
12219TIP3   OH258147   0.030   0.174  12.530  0.1076  0.6539 -0.6545
12219TIP3    H158148   0.072   0.107  12.477 -1.8123 -2.1539  1.2646
12219TIP3    H258149   0.097   0.201  12.592  0.5840 -0.1903 -0.7998
12220TIP3   OH258150   2.701   1.642   6.130 -0.0453 -0.2958 -0.5440
12220TIP3    H158151   2.713   1.550   6.108 -0.3338 -0.4411 -0.0850
12220TIP3    H258152   2.787   1.670   6.161  0.6481  0.1661 -2.7421
12221TIP3   OH258153   0.106   3.463  11.507 -0.4381 -0.5765  0.0754
12221TIP3    H158154   0.176   3.482  11.445  0.3191 -1.2181  0.7234
12221TIP3    H258155   0.107   3.537  11.567  1.6951 -1.9974  1.8676
12222TIP3   OH258156   5.112   0.982   0.659 -0.6398  0.6280  0.2934
12222TIP3    H158157   5.155   0.987   0.574 -1.8542  1.7697 -0.2695
12222TIP3    H258158   5.164   0.918   0.709  0.0513 -0.0777 -1.3092
12223TIP3   OH258159   4.056   3.799  12.153  0.0921  0.2633  0.6166
12223TIP3    H158160   4.008   3.731  12.203  0.5091 -0.7015 -0.2806
12223TIP3    H258161   4.141   3.759  12.136 -0.4726  0.0954 -1.9280
12224TIP3   OH258162   5.301   3.018  14.640 -0.5350  0.2719 -0.1167
12224TIP3    H158163   5.219   2.976  14.616  0.0158 -0.4399 -0.8150
12224TIP3    H258164   5.286   3.054  14.727 -0.8082 -2.0300  0.8337
12225TIP3   OH258165   0.481   5.658   3.216  1.0237 -0.1666  0.0172
12225TIP3    H158166   0.568   5.696   3.222  2.0758 -2.4029 -0.3636
12225TIP3    H258167   0.478   5.618   3.129 -0.9845  1.2251 -0.6083
12226TIP3   OH258168   3.391   0.523  15.129 -0.7328 -0.0112 -0.4373
12226TIP3    H158169   3.467   0.572  15.097 -1.2262  0.7461 -0.4754
12226TIP3    H258170   3.418   0.431  15.125 -0.2527  0.1688 -1.5956
12227TIP3   OH258171   1.281   6.340  10.824  0.0285  0.0438  0.0797
12227TIP3    H158172   1.244   6.425  10.847 -0.9421 -0.5110  0.6182
12227TIP3    H258173   1.360   6.333  10.878  0.1918  0.6562 -0.0731
12228TIP3   OH258174   3.813   0.500   3.577  0.1486  0.2902 -0.7182
12228TIP3    H158175   3.866   0.421   3.577 -1.3512 -0.7527  1.4671
12228TIP3    H258176   3.749   0.487   3.506  0.6240  0.0464 -1.1007
12229TIP3   OH258177   3.181   1.356   3.886  0.1324 -0.6780  0.0178
12229TIP3    H158178   3.110   1.379   3.827  0.2359 -0.3878  0.0082
12229TIP3    H258179   3.138   1.307   3.957 -0.2178  0.2963  0.4884
12230TIP3   OH258180   3.803   1.196  11.194  0.4473 -0.3115 -0.0140
12230TIP3    H158181   3.854   1.140  11.136  0.6614 -0.4502  0.3029
12230TIP3    H258182   3.840   1.180  11.281 -1.0874 -1.4808  0.4300
12231TIP3   OH258183   1.322   1.644  13.207  0.7310 -0.2635  0.6503
12231TIP3    H158184   1.381   1.680  13.273 -0.0673 -0.4528  1.4686
12231TIP3    H258185   1.235   1.655  13.243  0.3006 -0.5748 -0.2748
12232TIP3   OH258186   6.574   4.751   2.460 -0.3159  0.3536  0.2703
12232TIP3    H158187   6.610   4.666   2.486  0.7814  1.5350  2.8612
12232TIP3    H258188   6.487   4.754   2.501  0.1917  0.9941  1.3325
12233TIP3   OH258189   4.905   4.226   4.098 -0.1585 -0.0593 -0.0598
12233TIP3    H158190   4.812   4.214   4.078 -0.1893  0.9262 -0.5730
12233TIP3    H258191   4.943   4.254   4.015  1.2293 -3.6040 -0.7032
12234TIP3   OH258192   5.596   4.918   5.893  0.1289  0.1015  0.0541
12234TIP3    H158193   5.628   4.905   5.804  1.7213  0.8707  0.4949
12234TIP3    H258194   5.607   4.832   5.935 -0.6685 -0.2740 -0.4996
12235TIP3   OH258195   2.675   1.951   1.192  0.4031 -1.3746 -0.7615
12235TIP3    H158196   2.650   1.991   1.108 -1.3108 -0.8734 -0.0436
12235TIP3    H258197   2.609   1.883   1.206  1.6014 -2.4931 -0.5614
12236TIP3   OH258198   1.518   0.803   5.255 -0.0138  0.0028  0.3990
12236TIP3    H158199   1.446   0.761   5.207  0.2638  0.7300 -0.6445
12236TIP3    H258200   1.488   0.892   5.270  0.7051  0.3273 -0.1016
12237TIP3   OH258201   1.967   5.124  12.431 -0.4547 -0.3580 -0.7584
12237TIP3    H158202   1.933   5.107  12.519 -2.3786  0.0522 -1.3972
12237TIP3    H258203   2.027   5.197  12.442 -2.4577  1.2447 -0.1120
12238TIP3   OH258204   0.658   4.901   4.761  0.0608 -0.3917  0.5335
12238TIP3    H158205   0.742   4.857   4.753  0.7892  1.0220  0.3699
12238TIP3    H258206   0.667   4.957   4.839 -1.1655 -1.1895  1.2756
12239TIP3   OH258207   6.591   0.788   0.671 -0.2178  0.3973 -0.0404
12239TIP3    H158208   6.591   0.878   0.704  0.7588 -0.2865  1.8552
12239TIP3    H258209   6.551   0.736   0.740  1.2744 -0.9637 -0.1678
12240TIP3   OH258210   2.994   0.925  17.202  0.0493  0.1463 -0.2033
12240TIP3    H158211   2.960   0.910  17.114  0.1401 -0.1055 -0.1956
12240TIP3    H258212   3.035   1.012  17.197 -0.9509  0.6323 -0.1118
12241TIP3   OH258213   0.855   1.627   6.315 -0.4554  0.2565 -0.1290
12241TIP3    H158214   0.781   1.686   6.328 -1.1565 -0.4302 -0.9152
12241TIP3    H258215   0.931   1.685   6.310 -0.9570  0.9866  0.4616
12242TIP3   OH258216   2.204   0.564   4.241 -0.0008 -0.4010  0.2927
12242TIP3    H158217   2.188   0.476   4.275  0.4692 -0.1752  1.1167
12242TIP3    H258218   2.278   0.596   4.293  0.4485  0.1150 -0.6575
12243TIP3   OH258219   5.846   0.706   3.976 -0.3282 -0.3403 -1.1264
12243TIP3    H158220   5.772   0.735   4.028 -0.1159 -0.8548 -0.5296
12243TIP3    H258221   5.883   0.786   3.940 -0.2120  0.0589 -0.1295
12244TIP3   OH258222   0.736   1.888   2.483  0.1686 -0.1778  0.1564
12244TIP3    H158223   0.733   1.810   2.538  1.4370  1.2535  2.3558
12244TIP3    H258224   0.767   1.957   2.542 -1.4052  2.1044 -1.6115
12245TIP3   OH258225   3.204   5.596   3.662 -0.4652  0.1769 -0.2304
12245TIP3    H158226   3.249   5.555   3.736  0.8870  0.6787 -0.7620
12245TIP3    H258227   3.227   5.689   3.668 -1.1153  0.3791 -0.7398
12246TIP3   OH258228   6.470   5.314   5.843 -0.4961 -0.3342 -0.2814
12246TIP3    H158229   6.489   5.392   5.792 -1.2171 -0.0690 -0.1494
12246TIP3    H258230   6.512   5.243   5.794 -1.0354 -0.0618 -1.1632
12247TIP3   OH258231   1.636   4.804   2.016 -0.3373  0.0186  0.0293
12247TIP3    H158232   1.705   4.749   2.053 -1.0740 -1.0434 -0.1667
12247TIP3    H258233   1.570   4.742   1.986 -1.0272  1.0043 -0.4837
12248TIP3   OH258234   5.133   4.312  11.942 -0.2035  0.4822 -0.5552
12248TIP3    H158235   5.066   4.244  11.931  0.2196 -0.0006 -0.1707
12248TIP3    H258236   5.216   4.264  11.942  0.0543  0.9066  0.4777
12249TIP3   OH258237   6.351   1.172  11.666 -0.1369 -0.3656  0.4377
12249TIP3    H158238   6.296   1.235  11.713  0.4396 -0.7714  1.6669
12249TIP3    H258239   6.308   1.087  11.680 -0.9111 -0.2671 -1.2137
12250TIP3   OH258240   3.312   5.336   6.053  0.3516 -0.1443  0.5466
12250TIP3    H158241   3.343   5.425   6.071 -0.4004 -0.0832  1.5416
12250TIP3    H258242   3.282   5.303   6.137 -2.6822 -0.0335 -0.4094
12251TIP3   OH258243   5.751   0.132   0.936  0.1772  0.5315  0.3735
12251TIP3    H158244   5.798   0.079   0.873 -2.3575 -2.0046  0.4839
12251TIP3    H258245   5.807   0.133   1.013  1.0205 -0.6597 -0.2070
12252TIP3   OH258246   4.163   6.367  16.689 -0.0738  0.2477  0.1119
12252TIP3    H158247   4.197   6.415  16.613 -2.5373 -0.4117 -1.5001
12252TIP3    H258248   4.069   6.386  16.688 -0.2863 -0.5787  2.4344
12253TIP3   OH258249   4.300   4.785   4.650  0.2963  0.4969  0.0281
12253TIP3    H158250   4.292   4.853   4.717 -0.3033  0.9727 -0.5240
12253TIP3    H258251   4.379   4.807   4.602  0.3647  0.5327  0.1579
12254TIP3   OH258252   3.261   4.960   3.186 -0.2320  0.0715 -0.3258
12254TIP3    H158253   3.207   4.887   3.158 -0.1168 -0.0042 -0.3495
12254TIP3    H258254   3.277   4.944   3.279  0.8307 -0.5974 -0.6054
12255TIP3   OH258255   4.604   0.548  16.505  0.0532  0.3313 -0.3373
12255TIP3    H158256   4.590   0.616  16.439 -0.9079  0.0963 -0.3897
12255TIP3    H258257   4.625   0.469  16.454  1.5322  0.6633 -0.2613
12256TIP3   OH258258   3.071   4.518   2.953 -0.7221  0.2619 -0.0993
12256TIP3    H158259   3.024   4.561   2.882 -1.9454 -1.1051 -0.1402
12256TIP3    H258260   3.007   4.457   2.991 -0.4302  1.6975  2.8263
12257TIP3   OH258261   1.383   6.466  15.537 -0.4181 -0.4559 -0.9549
12257TIP3    H158262   1.429   6.511  15.607 -0.4603  0.5890 -1.5881
12257TIP3    H258263   1.379   6.530  15.466 -0.4583 -1.4669 -1.8747
12258TIP3   OH258264   1.384   1.253  14.197  0.6955  0.0611  0.2717
12258TIP3    H158265   1.430   1.324  14.153  0.4158  1.1454  1.6943
12258TIP3    H258266   1.300   1.245  14.151  0.3594  1.2517  0.6727
12259TIP3   OH258267   1.181   4.055   6.510  0.2081  0.0407  0.7327
12259TIP3    H158268   1.264   4.014   6.485 -0.6840 -0.9002 -0.7982
12259TIP3    H258269   1.131   3.984   6.549 -0.5245  0.1696  0.0508
12260TIP3   OH258270   6.472   5.331  12.263 -0.1934 -0.4741 -0.2893
12260TIP3    H158271   6.488   5.384  12.341  1.1753 -0.8683 -0.3046
12260TIP3    H258272   6.505   5.244  12.285 -1.7249 -1.1481 -0.5506
12261TIP3   OH258273   3.051   4.259   5.758 -0.2232  0.3475 -0.2859
12261TIP3    H158274   3.005   4.207   5.692  0.4741 -0.9394  0.2019
12261TIP3    H258275   3.109   4.316   5.708 -0.0870 -0.2409 -0.8014
12262TIP3   OH258276   0.493   1.497  14.771  0.2822 -0.0328  0.4357
12262TIP3    H158277   0.410   1.497  14.819 -0.1401  1.5555 -0.2698
12262TIP3    H258278   0.468   1.492  14.679  0.9209  1.1553  0.1838
12263TIP3   OH258279   4.707   0.739  11.540 -0.4797 -0.2219 -0.5049
12263TIP3    H158280   4.749   0.779  11.463  0.0064 -0.1014 -0.1833
12263TIP3    H258281   4.695   0.647  11.515  0.3336 -0.3480 -0.4659
12264TIP3   OH258282   1.544   0.692  11.214  0.3895 -0.1836 -0.2039
12264TIP3    H158283   1.542   0.669  11.307 -0.2002 -0.1725 -0.2132
12264TIP3    H258284   1.454   0.719  11.194 -0.0961 -2.5602 -1.3912
12265TIP3   OH258285   6.527   1.514   1.012 -0.6146 -0.1157 -0.1891
12265TIP3    H158286   6.579   1.509   0.932 -0.5025 -1.0219 -0.0742
12265TIP3    H258287   6.565   1.447   1.069  0.0602  1.3103  1.0731
12266TIP3   OH258288   3.079   4.430   1.701 -0.8622 -0.3235 -0.4579
12266TIP3    H158289   3.102   4.523   1.712  1.6465 -1.3097  3.8569
12266TIP3    H258290   3.087   4.415   1.607 -0.0276  3.5151 -1.1065
12267TIP3   OH258291   2.557   4.918  11.560 -0.4032  0.4322  0.4462
12267TIP3    H158292   2.569   4.906  11.654  0.2303  1.1230  0.4648
12267TIP3    H258293   2.644   4.941  11.528 -0.5901  0.0711 -0.3309
12268TIP3   OH258294   4.112   6.724  12.588  0.0752  0.1641 -0.0242
12268TIP3    H158295   4.173   6.663  12.628  0.8935 -0.5037 -2.2070
12268TIP3    H258296   4.158   6.756  12.511 -1.3793  1.5458 -0.3343
12269TIP3   OH258297   2.679   1.935  12.534  0.1898  0.6821 -0.3889
12269TIP3    H158298   2.764   1.905  12.501  0.6211  1.1268  0.3018
12269TIP3    H258299   2.701   1.996  12.604 -0.7034  1.4612 -0.7824
12270TIP3   OH258300   4.819   0.681   3.260 -0.0473 -0.3736 -0.1848
12270TIP3    H158301   4.836   0.604   3.314  2.5428  1.3099  1.5590
12270TIP3    H258302   4.767   0.738   3.316 -0.7256 -0.2523 -0.9383
12271TIP3   OH258303   6.782   0.423  16.723 -0.0597  0.4574 -0.4494
12271TIP3    H158304   6.717   0.478  16.679 -1.7016 -1.0520  0.0204
12271TIP3    H258305   6.749   0.415  16.812  0.6773 -0.5004 -0.2639
12272TIP3   OH258306   5.626   0.813   2.184  0.5376 -0.6657  0.9340
12272TIP3    H158307   5.604   0.743   2.244  2.1456 -2.1760 -0.1959
12272TIP3    H258308   5.709   0.849   2.217 -0.7188  1.3241  2.0181
12273TIP3   OH258309   4.990   6.320   1.125  0.0344  0.8521 -0.4184
12273TIP3    H158310   5.050   6.370   1.181  1.5139 -0.3914 -0.8411
12273TIP3    H258311   5.005   6.354   1.037  1.7516 -0.8970 -0.8610
12274TIP3   OH258312   5.940   6.787  14.883 -0.1095 -0.3897 -0.1143
12274TIP3    H158313   5.894   6.833  14.812 -1.6909 -1.1413  0.4252
12274TIP3    H258314   5.935   6.695  14.859 -1.2666 -0.7186  1.3149
12275TIP3   OH258315   3.822   6.598  16.005  0.0112  0.0374 -0.4702
12275TIP3    H158316   3.761   6.526  16.024 -0.3439  0.9627  2.1151
12275TIP3    H258317   3.768   6.666  15.967 -0.0211 -0.2657 -0.9743
12276TIP3   OH258318   1.995   4.047  16.277  0.3042  0.2106  0.6723
12276TIP3    H158319   2.039   4.096  16.346 -0.4593  0.4100  1.0251
12276TIP3    H258320   1.910   4.024  16.315  0.2078 -0.3985  0.0986
12277TIP3   OH258321   1.002   5.220  11.282 -0.5605  0.5363 -0.4682
12277TIP3    H158322   0.941   5.292  11.299 -0.6425  0.5977 -1.0121
12277TIP3    H258323   1.001   5.210  11.187  0.6003  0.8266 -0.5196
12278TIP3   OH258324   3.787   2.137  10.357 -0.1455 -0.0234 -0.4162
12278TIP3    H158325   3.769   2.186  10.277 -0.3706  3.0537  1.4366
12278TIP3    H258326   3.709   2.084  10.371 -0.1774 -0.4510 -2.1246
12279TIP3   OH258327   5.329   2.320   1.867 -0.5955  0.0637 -0.3577
12279TIP3    H158328   5.354   2.344   1.778 -1.9910  0.0628 -0.7672
12279TIP3    H258329   5.288   2.399   1.902 -2.0011 -0.5933 -0.4828
12280TIP3   OH258330   1.850   2.304   4.869  0.3426  0.1022 -0.3352
12280TIP3    H158331   1.800   2.373   4.824  1.1698 -0.4542 -2.1733
12280TIP3    H258332   1.921   2.351   4.913 -1.0973  0.7681  1.2988
12281TIP3   OH258333   5.169   0.590  16.803  0.0963  0.1961 -0.0019
12281TIP3    H158334   5.215   0.673  16.810  1.3702 -0.5089  0.2017
12281TIP3    H258335   5.116   0.598  16.723  1.6645  0.5155 -1.0411
12282TIP3   OH258336   6.273   0.165   2.502 -0.0807  0.2153 -0.6413
12282TIP3    H158337   6.209   0.094   2.511  0.5894 -0.1770  1.1130
12282TIP3    H258338   6.270   0.188   2.409 -1.8399 -0.6669 -0.8225
12283TIP3   OH258339   4.817   1.568   5.762 -0.4929 -0.2847 -0.2706
12283TIP3    H158340   4.722   1.571   5.772 -0.4030  2.1433  0.1311
12283TIP3    H258341   4.845   1.660   5.766  2.2074 -1.1612  2.9952
12284TIP3   OH258342   6.255   0.001  14.587  0.0018  0.1019 -0.1992
12284TIP3    H158343   6.229   0.040  14.504  0.4841 -0.9148 -0.8393
12284TIP3    H258344   6.213   0.056  14.654 -0.1247  1.1131 -1.0972
12285TIP3   OH258345   3.170   6.647   4.889  0.1368 -0.2107  0.0354
12285TIP3    H158346   3.241   6.631   4.827 -0.2585 -2.4960  0.1213
12285TIP3    H258347   3.096   6.598   4.853 -0.9392  0.8518  0.7755
12286TIP3   OH258348   5.946   0.138  11.513 -0.5301  0.2208 -0.4273
12286TIP3    H158349   5.895   0.199  11.459 -0.9574 -0.9466 -1.3802
12286TIP3    H258350   5.885   0.108  11.580 -0.6892 -0.0872 -0.7058
12287TIP3   OH258351   6.769   4.952  17.174  0.3768  0.1376 -0.3252
12287TIP3    H158352   6.838   4.969  17.238 -0.4497  1.5309  0.2169
12287TIP3    H258353   6.733   4.867  17.198  1.0798 -0.0207  0.1519
12288TIP3   OH258354   6.498   4.007  15.179  0.4973  0.1578  0.6440
12288TIP3    H158355   6.482   4.071  15.249 -0.2868 -0.1840  0.7765
12288TIP3    H258356   6.576   3.960  15.207  1.5139  1.5485  0.1943
12289TIP3   OH258357   6.042   3.948  16.067  0.5799 -0.1320 -0.2771
12289TIP3    H158358   6.018   3.954  15.975  1.0543 -1.0693 -0.4675
12289TIP3    H258359   6.035   3.855  16.088 -1.0758  0.2643  1.0609
12290TIP3   OH258360   2.822   0.554  14.732 -0.3272 -0.6053 -0.4939
12290TIP3    H158361   2.742   0.515  14.769  0.4515 -1.5052  0.2710
12290TIP3    H258362   2.790   0.624  14.674 -1.6098  1.9783  3.0950
12291TIP3   OH258363   5.160   2.806   0.238  0.4513  0.2700 -0.5213
12291TIP3    H158364   5.246   2.827   0.273  0.7660 -2.0470  0.1762
12291TIP3    H258365   5.099   2.838   0.305  0.8182  0.7350 -0.4050
12292TIP3   OH258366   0.304   0.946  12.037 -0.0613 -0.0596  0.0117
12292TIP3    H158367   0.277   0.854  12.039 -0.1669 -0.1047 -2.4094
12292TIP3    H258368   0.273   0.982  12.120  0.4215 -2.3234  1.2109
12293TIP3   OH258369   4.021   4.582  11.334  0.6514  0.3197  0.8281
12293TIP3    H158370   3.973   4.603  11.253  1.9485 -1.3966 -0.4145
12293TIP3    H258371   3.959   4.530  11.385  0.3637  0.0945  0.2617
12294TIP3   OH258372   3.633   6.603   0.796 -0.0100 -0.1469  0.2414
12294TIP3    H158373   3.711   6.637   0.842  0.2896 -0.4928 -0.0118
12294TIP3    H258374   3.569   6.588   0.865  0.7183 -1.4414  0.6498
12295TIP3   OH258375   1.680   0.047   5.852 -0.3073 -0.2696  0.2335
12295TIP3    H158376   1.670   0.053   5.947 -0.5661 -0.6902  0.2374
12295TIP3    H258377   1.728  -0.035   5.838 -0.9421 -0.6008 -0.0351
12296TIP3   OH258378   1.179   6.581   4.083 -0.0974  0.0936  0.8203
12296TIP3    H158379   1.150   6.655   4.137 -0.3519  0.4689  0.1727
12296TIP3    H258380   1.100   6.528   4.072 -0.2469  0.4433  0.1412
12297TIP3   OH258381   4.559   5.509  11.324 -0.0923  0.4218 -0.2671
12297TIP3    H158382   4.588   5.470  11.406  2.7364 -0.6283 -1.7238
12297TIP3    H258383   4.550   5.603  11.344  0.8458  0.2283  1.1352
12298TIP3   OH258384   1.096   3.890   1.551 -0.6959 -0.0769 -0.3089
12298TIP3    H158385   1.058   3.809   1.518 -1.2561  0.3358 -0.6906
12298TIP3    H258386   1.055   3.959   1.498 -0.3332  0.4642  0.1076
12299TIP3   OH258387   3.802   6.781   0.985 -0.1193  0.0387  0.2537
12299TIP3    H158388   3.758   6.857   0.948 -0.2693  0.2469  0.8522
12299TIP3    H258389   3.765   6.772   1.073 -3.3021 -3.3703 -1.3552
12300TIP3   OH258390   0.900   2.183  16.829 -0.1404 -1.0600 -0.0319
12300TIP3    H158391   0.967   2.125  16.794 -0.3267 -1.4715  0.2873
12300TIP3    H258392   0.866   2.137  16.906 -0.6038 -0.7392 -0.0388
12301TIP3   OH258393   0.367   5.493  15.133  0.5412  0.2293  0.1234
12301TIP3    H158394   0.301   5.455  15.192  1.2493 -0.8751  0.2169
12301TIP3    H258395   0.391   5.576  15.175  2.8193 -1.6457  2.7495
12302TIP3   OH258396   3.508   6.776   2.374 -0.0164  0.0710  0.5665
12302TIP3    H158397   3.487   6.759   2.465  1.0672  0.1200  0.8382
12302TIP3    H258398   3.602   6.794   2.374 -0.0370  0.2409 -0.5329
12303TIP3   OH258399   3.700   5.383   6.276  0.5558 -0.4497 -0.3842
12303TIP3    H158400   3.659   5.309   6.320 -1.6550  0.5294 -0.7472
12303TIP3    H258401   3.721   5.445   6.346 -2.2838  0.7831 -0.5713
12304TIP3   OH258402   0.465   1.150   2.781  0.1977 -0.0152 -0.4907
12304TIP3    H158403   0.458   1.228   2.836 -1.3080  0.4587 -1.3248
12304TIP3    H258404   0.558   1.126   2.786  0.4398  1.1036  0.7545
12305TIP3   OH258405   3.288   1.477  12.051 -0.2828 -0.3638  0.1637
12305TIP3    H158406   3.323   1.565  12.069 -1.3506  0.5631 -2.0761
12305TIP3    H258407   3.346   1.442  11.984 -1.5724 -0.2005 -1.0525
12306TIP3   OH258408   6.784   2.865  12.437  0.1563  1.1628  0.2874
12306TIP3    H158409   6.864   2.833  12.397  1.5809  2.4116  2.0782
12306TIP3    H258410   6.740   2.787  12.471  0.2267  0.3954 -1.3426
12307TIP3   OH258411   1.799   5.422  11.680 -0.2202  0.2290 -0.1565
12307TIP3    H158412   1.732   5.383  11.624 -0.1383 -1.5524  0.9400
12307TIP3    H258413   1.847   5.347  11.715  0.8845  1.3925  0.8757
12308TIP3   OH258414   3.455   4.102   5.189 -0.0099 -0.3324  0.0047
12308TIP3    H158415   3.390   4.135   5.250  1.1801  1.2489  0.4399
12308TIP3    H258416   3.466   4.010   5.213 -1.5029 -0.4193  0.4094
12309TIP3   OH258417   4.456   2.225  14.061  0.3064  0.3662 -0.1713
12309TIP3    H158418   4.470   2.307  14.012 -3.1675  1.6214  0.8153
12309TIP3    H258419   4.434   2.254  14.149 -2.2274 -1.5559 -0.1299
12310TIP3   OH258420   6.571   3.996  11.276 -0.2895  0.0759  0.4323
12310TIP3    H158421   6.529   3.948  11.348 -1.3702  0.5721  0.1360
12310TIP3    H258422   6.564   3.937  11.201  1.1921 -0.6117  0.8009
12311TIP3   OH258423   3.064   4.081  13.852 -0.4544 -0.2228  0.3713
12311TIP3    H158424   3.148   4.035  13.856 -0.2654  0.2119  1.3856
12311TIP3    H258425   3.079   4.152  13.789 -0.6093 -1.2333 -0.8386
12312TIP3   OH258426   0.550   4.106   2.694 -0.1227  0.7042 -0.9506
12312TIP3    H158427   0.642   4.112   2.720  0.1794 -1.1209 -1.4995
12312TIP3    H258428   0.547   4.030   2.636 -2.0254  0.6177 -0.7655
12313TIP3   OH258429   3.780   0.126   2.261  0.1420  0.1267  0.0883
12313TIP3    H158430   3.859   0.078   2.237  0.6582  0.6185  0.8018
12313TIP3    H258431   3.801   0.217   2.241 -0.8266  0.0828 -1.2481
12314TIP3   OH258432   4.736   3.636  15.269 -0.1194 -0.1073  0.1176
12314TIP3    H158433   4.648   3.670  15.285  0.2860  0.1585  1.8062
12314TIP3    H258434   4.777   3.703  15.213 -0.6425  0.2607  0.1660
12315TIP3   OH258435   1.518   6.797   4.305  0.2995 -0.2325 -0.7854
12315TIP3    H158436   1.601   6.770   4.346 -0.8410 -3.9425 -0.6940
12315TIP3    H258437   1.522   6.759   4.217 -0.6267  0.9249 -1.3296
12316TIP3   OH258438   1.611   4.580   4.762 -0.1499  0.1852  0.2560
12316TIP3    H158439   1.539   4.557   4.821  1.1769  0.8697  2.2062
12316TIP3    H258440   1.581   4.659   4.717 -1.4516 -0.7201 -0.4787
12317TIP3   OH258441   3.990   4.350  12.266  0.5853  0.1708  0.2920
12317TIP3    H158442   3.997   4.325  12.174 -1.5833  1.7125 -0.3170
12317TIP3    H258443   4.045   4.428  12.273 -0.4935  0.9795 -0.0818
12318TIP3   OH258444   0.509   2.134  16.233 -0.0287 -0.2097 -0.1524
12318TIP3    H158445   0.503   2.150  16.327 -1.3667 -1.3576 -0.0173
12318TIP3    H258446   0.494   2.040  16.224 -0.9762  0.0612 -1.5894
12319TIP3   OH258447   6.045   6.526  11.731 -0.3978 -0.2737 -0.1124
12319TIP3    H158448   6.133   6.493  11.746 -1.3013 -3.1316 -0.7195
12319TIP3    H258449   6.052   6.579  11.652  1.1596  1.2854  1.0410
12320TIP3   OH258450   0.294   0.875  17.097 -0.5753  0.0351  0.7766
12320TIP3    H158451   0.211   0.909  17.064 -0.0983  0.7054  0.2422
12320TIP3    H258452   0.290   0.781  17.079 -0.8467  0.2012 -0.0553
12321TIP3   OH258453   5.970   6.205   1.032  0.7304  0.1953 -0.2909
12321TIP3    H158454   6.023   6.236   0.958 -0.4581  0.0820 -1.2096
12321TIP3    H258455   6.011   6.245   1.109  2.7346 -0.6765 -0.8663
12322TIP3   OH258456   3.502   4.665   0.640  0.1072 -0.8770  0.4514
12322TIP3    H158457   3.597   4.677   0.647  0.0089  0.4700 -0.2600
12322TIP3    H258458   3.491   4.606   0.565  0.3800 -1.0510  0.5465
12323TIP3   OH258459   0.959   4.637  15.786 -0.0183  0.2956  0.2008
12323TIP3    H158460   0.935   4.546  15.806  0.9385  0.0080  0.0493
12323TIP3    H258461   1.023   4.630  15.716  1.5519  0.9885  1.5376
12324TIP3   OH258462   4.281   3.167   0.694 -0.0818 -0.2265 -0.4244
12324TIP3    H158463   4.373   3.167   0.723 -0.3052 -0.2736  0.2845
12324TIP3    H258464   4.233   3.125   0.766 -0.5360 -1.0132 -1.1808
12325TIP3   OH258465   5.883   6.665  16.845 -0.4719  0.9223  0.1830
12325TIP3    H158466   5.949   6.724  16.808 -1.3990  1.7009 -0.2894
12325TIP3    H258467   5.855   6.708  16.926 -0.1166  0.4017  0.5807
12326TIP3   OH258468   5.700   3.262   3.332  0.0266 -0.3040 -0.1019
12326TIP3    H158469   5.633   3.241   3.266  1.2033 -1.7924 -0.8528
12326TIP3    H258470   5.753   3.331   3.291 -1.3647  1.2748  0.7179
12327TIP3   OH258471   5.590   3.909  13.057  0.0785  0.8223 -0.4067
12327TIP3    H158472   5.653   3.970  13.018  0.8646 -0.1640 -0.6907
12327TIP3    H258473   5.605   3.826  13.012  0.9772 -0.3400  1.9731
12328TIP3   OH258474   1.196   1.555   5.330 -0.2983 -0.1158  0.4627
12328TIP3    H158475   1.117   1.505   5.310  0.1203 -0.7152  0.3105
12328TIP3    H258476   1.266   1.490   5.332  0.6639  0.7743 -2.1420
12329TIP3   OH258477   6.379   2.738   0.831 -0.5138 -1.0190 -0.1630
12329TIP3    H158478   6.465   2.721   0.870 -0.5697 -2.0310 -0.4782
12329TIP3    H258479   6.398   2.786   0.750 -0.3356  0.0358  0.4885
12330TIP3   OH258480   2.393   6.047  12.954  0.7523 -0.3453  0.4590
12330TIP3    H158481   2.330   6.016  13.019 -0.3592 -0.0658 -0.4834
12330TIP3    H258482   2.442   6.116  13.000 -2.0037  1.9187  0.1114
12331TIP3   OH258483   4.533   0.245   5.596  0.2641 -0.5439 -0.1767
12331TIP3    H158484   4.573   0.171   5.643 -0.3638 -1.4222 -1.0017
12331TIP3    H258485   4.454   0.265   5.646  0.4852 -0.3611  0.1026
12332TIP3   OH258486   4.660   4.219   4.451 -0.1499 -0.1536 -0.6253
12332TIP3    H158487   4.646   4.126   4.432  0.5104 -0.4198  0.1602
12332TIP3    H258488   4.751   4.224   4.481 -0.0307  0.8214 -1.1115
12333TIP3   OH258489   0.724   1.925  12.723 -0.4640 -0.2463 -0.5057
12333TIP3    H158490   0.641   1.973  12.722 -1.7981 -2.4374  0.5156
12333TIP3    H258491   0.772   1.958  12.647 -0.9763  3.2342  0.6004
12334TIP3   OH258492   4.269   0.720  12.942  0.0280 -0.0284 -0.6277
12334TIP3    H158493   4.256   0.803  12.897  1.5863  0.9451  0.6440
12334TIP3    H258494   4.224   0.732  13.026  2.1215  0.3909  0.4738
12335TIP3   OH258495   2.479   1.682   4.077 -0.0330 -0.1178 -0.3031
12335TIP3    H158496   2.548   1.701   4.013 -1.6807  1.8425 -1.5291
12335TIP3    H258497   2.495   1.745   4.148 -0.4233  0.2108 -0.5019
12336TIP3   OH258498   6.728   4.582  10.733 -0.0281 -0.1000  0.6869
12336TIP3    H158499   6.751   4.515  10.668 -0.2690  0.7176 -0.2527
12336TIP3    H258500   6.803   4.583  10.793  1.4622  1.0052 -1.1159
12337TIP3   OH258501   1.744   6.322   1.834 -0.1380 -0.0562 -0.3981
12337TIP3    H158502   1.815   6.266   1.867  0.8127  0.9250 -0.7518
12337TIP3    H258503   1.739   6.394   1.896  0.4921  0.8843 -1.4063
12338TIP3   OH258504   4.390   5.485   4.861  0.5428 -0.3988  0.1677
12338TIP3    H158505   4.438   5.565   4.878  0.4660 -0.0258 -1.2903
12338TIP3    H258506   4.420   5.456   4.775  0.2814 -1.7176  0.5044
12339TIP3   OH258507   5.086   4.966   1.480 -0.0693 -0.3915 -0.0047
12339TIP3    H158508   5.035   5.017   1.417 -1.3568 -0.7659  0.7169
12339TIP3    H258509   5.120   4.891   1.429 -0.6979 -0.4353 -0.3567
12340TIP3   OH258510   5.687   5.546  16.471  0.0352 -0.1867  0.1164
12340TIP3    H158511   5.707   5.639  16.480  1.0026 -0.2515 -1.2898
12340TIP3    H258512   5.772   5.504  16.462 -0.4182 -1.1806  0.4396
12341TIP3   OH258513   3.146   6.617  15.856  0.0131 -0.4839  0.3256
12341TIP3    H158514   3.101   6.687  15.809  1.6597 -0.1932 -0.8552
12341TIP3    H258515   3.132   6.638  15.949 -2.2623 -0.4116  0.0115
12342TIP3   OH258516   0.671   2.005  13.844  0.0524  0.4037  0.1442
12342TIP3    H158517   0.766   1.991  13.844  0.5941  3.7686  0.0891
12342TIP3    H258518   0.660   2.097  13.822 -3.2140  0.3231  1.1961
12343TIP3   OH258519   6.647   5.822  16.470 -0.4387 -0.1263 -0.3662
12343TIP3    H158520   6.571   5.764  16.473  0.9788 -2.0673 -0.8347
12343TIP3    H258521   6.665   5.843  16.562 -0.8873 -0.5768 -0.1732
12344TIP3   OH258522   4.244   1.119   2.105 -0.2013 -0.4881 -0.1579
12344TIP3    H158523   4.155   1.084   2.110 -0.1076 -0.9993 -1.8935
12344TIP3    H258524   4.241   1.199   2.157 -1.4398 -0.9639  0.5363
12345TIP3   OH258525   2.287   6.096  11.538  0.2359  0.3887 -0.6627
12345TIP3    H158526   2.264   6.010  11.573 -0.0133 -1.0534 -4.1577
12345TIP3    H258527   2.279   6.155  11.613  0.7385 -2.6587  1.9016
12346TIP3   OH258528   1.588   5.420   1.137 -0.0358 -0.2580  0.3222
12346TIP3    H158529   1.562   5.336   1.100  0.7125  0.2755 -1.4625
12346TIP3    H258530   1.509   5.453   1.181 -1.2550 -0.4150 -1.7151
12347TIP3   OH258531   3.670   1.992   5.826  0.5934  0.0360 -0.1034
12347TIP3    H158532   3.700   2.057   5.890 -1.5985  1.2731 -0.2687
12347TIP3    H258533   3.746   1.977   5.769  2.0442  0.1928  1.7359
12348TIP3   OH258534   3.399   2.766   5.797 -0.1960 -0.5911  0.2023
12348TIP3    H158535   3.334   2.831   5.825 -0.0244 -1.2462  2.2079
12348TIP3    H258536   3.463   2.816   5.747 -0.1212  0.7823  1.6133
12349TIP3   OH258537   1.396   1.956  16.176 -1.0243 -0.1385 -0.3355
12349TIP3    H158538   1.330   1.890  16.153 -1.4304 -0.1191  0.7303
12349TIP3    H258539   1.371   1.985  16.264  0.7097 -0.5241  0.3076
12350TIP3   OH258540   4.968   5.784   1.031 -0.0742 -0.1424  0.2538
12350TIP3    H158541   4.990   5.769   0.939 -0.7098 -0.6255  0.1758
12350TIP3    H258542   5.036   5.737   1.080  0.2206  0.0517  0.0262
12351TIP3   OH258543   4.466   6.108   4.950  0.6324  0.1473  0.0269
12351TIP3    H158544   4.406   6.161   4.897 -0.3842 -0.7255  0.2754
12351TIP3    H258545   4.526   6.069   4.887 -0.7748 -1.1460 -0.5362
12352TIP3   OH258546   3.852   6.649  12.668 -0.5457  0.0172 -0.0552
12352TIP3    H158547   3.934   6.683  12.633 -0.8205  1.8466  0.9889
12352TIP3    H258548   3.836   6.700  12.747 -3.0136  0.1728 -0.5867
12353TIP3   OH258549   0.204   0.777   6.245 -0.0452  0.3852 -0.1188
12353TIP3    H158550   0.230   0.849   6.304 -2.1333  1.6966 -0.7598
12353TIP3    H258551   0.114   0.798   6.220  0.9827  0.1665 -4.2859
12354TIP3   OH258552   0.924   0.615  16.875 -0.0291 -0.0253  0.1932
12354TIP3    H158553   0.998   0.607  16.816  0.6386 -1.4788  1.1945
12354TIP3    H258554   0.942   0.694  16.926  0.8506 -0.3856  0.4492
12355TIP3   OH258555   6.816   1.018   2.809  0.0344  0.3491 -0.0883
12355TIP3    H158556   6.766   1.065   2.876  3.5296  0.6936  2.4225
12355TIP3    H258557   6.883   1.081   2.781 -0.7019 -0.1831 -3.1510
12356TIP3   OH258558   5.671   4.320  12.299 -0.4518 -0.0437  0.1716
12356TIP3    H158559   5.645   4.393  12.243  1.1543 -0.0010 -0.5317
12356TIP3    H258560   5.662   4.355  12.388  2.3614  1.7746 -0.1883
12357TIP3   OH258561   1.960   4.493   5.691  0.1550 -0.1537  0.2694
12357TIP3    H158562   1.967   4.424   5.757 -0.3506  0.8704  1.4121
12357TIP3    H258563   2.021   4.560   5.721 -0.9717  0.8418  0.3678
12358TIP3   OH258564   6.460   3.216   1.369  0.4188  0.5628  0.7785
12358TIP3    H158565   6.460   3.190   1.461 -0.3414 -1.2039  0.3044
12358TIP3    H258566   6.368   3.235   1.350  0.6366  1.3508  0.4761
12359TIP3   OH258567   4.083   2.030  16.145 -0.1353 -0.3810  0.1698
12359TIP3    H158568   4.153   1.984  16.098  0.0138  0.5609 -0.5390
12359TIP3    H258569   4.016   2.045  16.078  0.4026  1.6352  0.0531
12360TIP3   OH258570   3.889   0.172  15.988  0.1835 -0.5640  0.0339
12360TIP3    H158571   3.949   0.147  15.919  0.6942 -2.7921  1.2257
12360TIP3    H258572   3.943   0.178  16.067 -0.6624  0.2466  0.5717
12361TIP3   OH258573   4.993   6.370   3.526 -0.4388 -0.4099 -0.6811
12361TIP3    H158574   5.069   6.347   3.579 -0.7605 -0.0150 -0.0451
12361TIP3    H258575   5.029   6.401   3.443  0.1352  0.9053  0.0473
12362TIP3   OH258576   2.220   0.658   0.560 -1.1145 -0.1468 -0.7130
12362TIP3    H158577   2.201   0.592   0.627  0.3797  0.5262  0.3740
12362TIP3    H258578   2.303   0.631   0.522  0.8730  2.5118  1.5511
12363TIP3   OH258579   5.328   2.264   0.595 -0.3098 -0.1708  0.1231
12363TIP3    H158580   5.343   2.195   0.661 -1.7143 -1.3011 -0.7119
12363TIP3    H258581   5.275   2.330   0.641  2.1690  1.0311  1.3261
12364TIP3   OH258582   3.078   0.345  10.952  0.1127  0.5600  0.3507
12364TIP3    H158583   3.083   0.398  10.872 -1.8053  1.9138  1.1055
12364TIP3    H258584   3.044   0.261  10.922  1.2485  0.3947 -0.5416
12365TIP3   OH258585   0.305   2.692  14.649 -0.1351  0.5523  0.4432
12365TIP3    H158586   0.341   2.604  14.639  2.5562  1.7382 -1.0719
12365TIP3    H258587   0.246   2.703  14.575  1.3547  0.8165 -0.7398
12366TIP3   OH258588   0.154   1.727   3.934 -0.3120  0.0240 -0.2385
12366TIP3    H158589   0.132   1.657   3.995 -2.0189 -0.0391 -0.8851
12366TIP3    H258590   0.075   1.737   3.880  0.9113  0.5381 -1.9789
12367TIP3   OH258591   2.661   1.518  12.572  0.2830  0.2520 -0.2596
12367TIP3    H158592   2.595   1.563  12.625  0.2441  1.6249 -1.4326
12367TIP3    H258593   2.662   1.566  12.489  1.0533 -1.2429 -1.1369
12368TIP3   OH258594   3.117   0.565   1.038 -0.7626 -0.3477 -0.0406
12368TIP3    H158595   3.079   0.538   1.121 -1.0692 -0.8473 -0.3425
12368TIP3    H258596   3.109   0.488   0.981  0.4185 -0.3591 -0.1989
12369TIP3   OH258597   3.517   0.086  12.815  0.2900  0.3785  0.2128
12369TIP3    H158598   3.445   0.145  12.839 -0.0185  1.0870 -2.3049
12369TIP3    H258599   3.478   0.027  12.750  2.4905  2.1316 -2.7855
12370TIP3   OH258600   6.065   6.349   6.534  0.0179  0.3225  0.3689
12370TIP3    H158601   5.970   6.343   6.522  0.3347 -1.9938 -1.4251
12370TIP3    H258602   6.089   6.433   6.495 -0.9721 -0.3799 -1.8667
12371TIP3   OH258603   5.382   5.152  15.477 -0.0118 -0.4994 -0.4796
12371TIP3    H158604   5.287   5.147  15.475  0.0320 -1.7443 -0.0824
12371TIP3    H258605   5.402   5.189  15.564 -0.1097 -0.9430 -0.2677
12372TIP3   OH258606   4.309   3.376   1.446 -0.1886 -0.5820  0.5092
12372TIP3    H158607   4.391   3.371   1.397  0.3365  0.8296  1.2141
12372TIP3    H258608   4.270   3.460   1.420 -0.6417 -0.5216  1.3629
12373TIP3   OH258609   2.316   4.068   3.510  0.3393  0.1075  0.1512
12373TIP3    H158610   2.327   3.974   3.491 -1.2993  0.0358 -0.5093
12373TIP3    H258611   2.251   4.098   3.447  1.3092  1.8454 -0.0389
12374TIP3   OH258612   3.969   3.663   3.444  0.1320 -0.4909 -0.3326
12374TIP3    H158613   3.933   3.581   3.480  0.5012 -0.8186 -0.7093
12374TIP3    H258614   4.063   3.647   3.440  0.3548  0.4382  0.8443
12375TIP3   OH258615   3.785   2.650  13.728  0.1949  0.6773 -0.2287
12375TIP3    H158616   3.818   2.570  13.769  0.2246  1.0635  0.4983
12375TIP3    H258617   3.693   2.631  13.710  0.3140  0.3181 -0.4646
12376TIP3   OH258618   6.210   4.565  10.844  0.2920 -0.3007 -0.1972
12376TIP3    H158619   6.291   4.589  10.798  0.8840 -0.8023  0.5723
12376TIP3    H258620   6.141   4.576  10.778  0.7433  1.8483 -0.3596
12377TIP3   OH258621   6.155   2.889  15.612  0.0534  0.7098 -0.0299
12377TIP3    H158622   6.153   2.871  15.706  0.8312  0.2847 -0.0897
12377TIP3    H258623   6.063   2.891  15.586 -0.1150 -1.3542  0.3385
12378TIP3   OH258624   6.745   2.241   4.549  0.4945  0.5251  0.2603
12378TIP3    H158625   6.806   2.258   4.477 -1.0107 -1.6117 -1.6004
12378TIP3    H258626   6.670   2.299   4.531  0.1278  0.0053  0.0853
12379TIP3   OH258627   4.332   3.431  13.163  0.4942 -0.4870  0.0045
12379TIP3    H158628   4.303   3.378  13.238 -1.1484  0.3290 -0.0367
12379TIP3    H258629   4.301   3.382  13.087 -2.0484  1.0321 -0.0163
12380TIP3   OH258630   0.156   2.210   4.385 -0.0640 -0.0800 -0.0999
12380TIP3    H158631   0.243   2.246   4.366 -0.4429  0.3382 -1.0554
12380TIP3    H258632   0.141   2.146   4.316 -2.1299  2.6042 -2.2159
12381TIP3   OH258633   6.178   5.563  14.942  0.3413 -0.8790  0.2863
12381TIP3    H158634   6.206   5.654  14.956  1.1994 -1.3354  1.5925
12381TIP3    H258635   6.207   5.517  15.021 -0.9632 -2.0881  0.0681
12382TIP3   OH258636   5.909   2.418  13.681 -1.1601 -0.0270 -0.0660
12382TIP3    H158637   5.894   2.327  13.709  0.5788 -0.1551  0.5317
12382TIP3    H258638   5.906   2.469  13.762  1.2563 -0.0344  0.0503
12383TIP3   OH258639   2.829   3.407   4.041  0.3395  0.1399 -0.2006
12383TIP3    H158640   2.854   3.424   3.950  0.0183 -1.8801 -0.6940
12383TIP3    H258641   2.909   3.419   4.091  0.8053  0.0297 -0.9209
12384TIP3   OH258642   5.823   1.921   5.708 -0.0993  0.0278  0.4258
12384TIP3    H158643   5.727   1.922   5.705 -0.1543 -2.1209  0.7899
12384TIP3    H258644   5.849   1.880   5.626  0.5401  1.2429  0.0176
12385TIP3   OH258645   3.022   4.540  13.585 -0.0491 -0.3608 -0.3999
12385TIP3    H158646   2.942   4.557  13.534 -1.0855 -0.9846  0.9985
12385TIP3    H258647   3.084   4.606  13.554 -1.3454  0.6049 -0.9923
12386TIP3   OH258648   6.411   5.197  14.717 -0.1819 -0.6878  0.7730
12386TIP3    H158649   6.471   5.248  14.662 -1.3476 -0.9293 -0.7341
12386TIP3    H258650   6.365   5.264  14.769 -0.8102 -0.2844 -0.2941
12387TIP3   OH258651   3.999   5.612   4.415 -0.5896  0.0636 -0.0490
12387TIP3    H158652   3.962   5.573   4.336 -2.4912  0.2316  0.7566
12387TIP3    H258653   4.094   5.609   4.400 -0.9373  0.8559 -2.7070
12388TIP3   OH258654   5.162   1.740  13.120 -0.4153 -0.2815  0.2571
12388TIP3    H158655   5.213   1.805  13.169  0.0727 -0.0297 -0.5770
12388TIP3    H258656   5.184   1.657  13.162  1.0946 -0.2443 -0.3927
12389TIP3   OH258657   0.518   1.295   5.032 -0.3236 -0.8197  0.0083
12389TIP3    H158658   0.433   1.335   5.054 -0.5003  0.2504 -2.4606
12389TIP3    H258659   0.497   1.205   5.009 -0.8720 -0.4289 -1.0505
12390TIP3   OH258660   1.970   4.834  11.960  0.0662  0.3035 -0.9194
12390TIP3    H158661   1.875   4.822  11.954  0.2906 -2.2032  0.1123
12390TIP3    H258662   1.988   4.836  12.054  1.0676  0.5081 -1.1140
12391TIP3   OH258663   2.684   4.427  16.096  0.6649 -0.1301  0.1654
12391TIP3    H158664   2.724   4.386  16.020  2.5315 -0.1170  1.0922
12391TIP3    H258665   2.648   4.509  16.063  1.6622 -0.0168 -0.6645
12392TIP3   OH258666   2.949   0.234  11.177  0.0116 -0.4570 -0.3642
12392TIP3    H158667   2.984   0.276  11.099 -0.4215  0.8732  0.1426
12392TIP3    H258668   2.862   0.206  11.152  0.3053 -1.0757 -0.7072
12393TIP3   OH258669   6.047   1.836  15.733 -0.7285 -0.2672 -0.3239
12393TIP3    H158670   6.112   1.905  15.725 -2.0919  1.0205 -0.5956
12393TIP3    H258671   6.056   1.784  15.653  1.0229 -1.0636  0.3708
12394TIP3   OH258672   0.715   0.034  17.258  0.0550 -0.4785  0.2546
12394TIP3    H158673   0.634   0.005  17.215  0.7084 -1.2847 -0.4593
12394TIP3    H258674   0.746   0.106  17.203  0.5145 -1.0390 -0.2230
12395TIP3   OH258675   1.162   2.056   1.842  0.0693 -0.0231 -0.2351
12395TIP3    H158676   1.113   1.999   1.783  0.7500 -2.9971  1.9571
12395TIP3    H258677   1.094   2.104   1.890 -0.5498  0.1195 -1.2494
12396TIP3   OH258678   4.749   1.508   5.100 -0.2167 -0.0742  0.2731
12396TIP3    H158679   4.776   1.477   5.187 -2.6973  1.2089  1.5719
12396TIP3    H258680   4.827   1.550   5.064  0.0736  2.0854  3.1880
12397TIP3   OH258681   0.013   2.570  14.735  0.2767  0.0993  0.2173
12397TIP3    H158682   0.049   2.614  14.658  0.8202 -1.0998 -0.2178
12397TIP3    H258683  -0.036   2.638  14.780 -0.2648  0.7578 -1.3269
12398TIP3   OH258684   0.062   0.736   1.118 -0.3051  0.5093  0.0066
12398TIP3    H158685  -0.027   0.703   1.106 -0.4267  0.4465  1.0521
12398TIP3    H258686   0.108   0.713   1.037 -1.0093 -0.2090 -0.1854
12399TIP3   OH258687   6.401   3.426   3.275 -0.2256  0.0951 -0.0347
12399TIP3    H158688   6.476   3.460   3.227 -0.2422  0.6425  0.3204
12399TIP3    H258689   6.325   3.447   3.221 -0.1488 -0.2426 -0.2765
12400TIP3   OH258690   4.967   6.093   2.988  0.0187 -0.1758 -0.3106
12400TIP3    H158691   5.034   6.082   3.055 -0.8213 -2.6169  0.2061
12400TIP3    H258692   4.885   6.103   3.037 -0.8134 -3.4242 -0.8643
12401TIP3   OH258693   6.717   1.454  14.990 -0.3668 -0.0659  0.6779
12401TIP3    H158694   6.647   1.424  14.932  0.4849 -0.5287 -0.1299
12401TIP3    H258695   6.727   1.547  14.970 -0.4583 -0.0978  0.4853
12402TIP3   OH258696   6.038   2.374   4.935  0.3095 -0.2650 -0.0879
12402TIP3    H158697   5.975   2.320   4.982 -2.6398  0.3665 -3.1046
12402TIP3    H258698   6.038   2.458   4.982 -0.4385 -0.5664  0.4610
12403TIP3   OH258699   4.269   4.438  11.909 -0.0684  0.3204  0.3475
12403TIP3    H158700   4.249   4.419  12.001  0.7188 -0.5729  0.3503
12403TIP3    H258701   4.185   4.432  11.864  0.0064 -2.6334  0.4587
12404TIP3   OH258702   0.867   5.149  14.784 -0.0976 -0.2189  0.2049
12404TIP3    H158703   0.919   5.222  14.818  0.6460 -0.2454 -0.8541
12404TIP3    H258704   0.828   5.183  14.703 -1.2574 -0.3916  0.6774
12405TIP3   OH258705   1.029   5.252  15.082 -0.0512  0.3901  0.2106
12405TIP3    H158706   1.054   5.344  15.085 -0.5848  0.5390 -0.0235
12405TIP3    H258707   1.103   5.207  15.124  0.1655  0.9280  0.4189
12406TIP3   OH258708   2.190   6.816  15.955 -0.7592 -0.3200 -0.4657
12406TIP3    H158709   2.268   6.779  15.914  1.0387  1.5139  1.2054
12406TIP3    H258710   2.157   6.747  16.012 -1.2716 -1.6401 -2.3114
12407TIP3   OH258711   4.008   2.579  12.578 -0.7097 -0.5431  0.2041
12407TIP3    H158712   3.949   2.651  12.602  1.5531  1.4799 -0.1197
12407TIP3    H258713   4.025   2.592  12.484 -0.6546 -1.7924  0.0279
12408TIP3   OH258714   3.996   6.021   5.988 -0.8692  0.6386  0.2254
12408TIP3    H158715   4.068   5.986   5.937 -1.0129 -0.4594  0.7775
12408TIP3    H258716   3.919   6.011   5.931 -0.9909 -0.3789  0.5656
12409TIP3   OH258717   5.477   3.978   6.642  0.4569 -0.3814 -0.2461
12409TIP3    H158718   5.509   4.060   6.680  0.3817 -0.5487  0.1748
12409TIP3    H258719   5.529   3.968   6.562  0.1496  0.3054 -0.5334
12410TIP3   OH258720   6.256   6.579   1.023 -0.0397 -0.5712  0.5208
12410TIP3    H158721   6.171   6.541   0.999 -0.5797  0.1029  1.3312
12410TIP3    H258722   6.233   6.658   1.073  1.0312  1.5493 -2.2212
12411TIP3   OH258723   2.925   6.237   5.723 -0.2755 -0.3027  0.3026
12411TIP3    H158724   2.918   6.229   5.818  0.2023 -0.4555  0.3265
12411TIP3    H258725   3.011   6.201   5.702 -0.5150 -0.5756 -0.2259
12412TIP3   OH258726   3.326   0.054  16.074  0.6783  0.1143  0.3751
12412TIP3    H158727   3.361   0.058  15.984 -0.6955  0.0762 -0.1748
12412TIP3    H258728   3.232   0.070  16.063 -0.2360 -3.9871  1.3193
12413TIP3   OH258729   1.143   2.630   5.499 -0.1781  0.0655  0.2497
12413TIP3    H158730   1.109   2.541   5.505  0.0768 -0.1688 -1.4037
12413TIP3    H258731   1.194   2.642   5.579 -1.0773 -0.9009  0.9761
12414TIP3   OH258732   5.755   1.804   1.835  0.2576  0.0062  0.5278
12414TIP3    H158733   5.827   1.840   1.887  0.1594  0.5696  0.2862
12414TIP3    H258734   5.755   1.857   1.755  0.1554 -0.5907  0.1287
12415TIP3   OH258735   2.548   6.210  14.879  0.1954  0.5651  0.3365
12415TIP3    H158736   2.635   6.182  14.851  0.0463  1.4578 -1.0768
12415TIP3    H258737   2.565   6.284  14.938  0.5216 -1.4931  2.9413
12416TIP3   OH258738   3.315   1.881   5.871  0.3278 -0.9231  0.3606
12416TIP3    H158739   3.310   1.893   5.776  0.7936  2.3134  0.7069
12416TIP3    H258740   3.324   1.969   5.906 -1.1954 -1.9595  3.5258
12417TIP3   OH258741   6.281   4.419   4.222 -0.2609 -0.3648  0.3076
12417TIP3    H158742   6.261   4.402   4.130  1.3883 -2.0157  0.2117
12417TIP3    H258743   6.257   4.510   4.236 -0.5234 -0.1017 -1.7490
12418TIP3   OH258744   4.701   0.201   5.367 -0.2689 -0.5863  0.0406
12418TIP3    H158745   4.635   0.234   5.428  0.1404  0.1761  0.0738
12418TIP3    H258746   4.697   0.261   5.292  1.0394  0.0365  0.4527
12419TIP3   OH258747   0.981   4.448   4.239 -0.1605 -0.1680 -0.0524
12419TIP3    H158748   1.064   4.412   4.270 -0.3452 -1.5251 -1.0891
12419TIP3    H258749   0.979   4.427   4.146 -3.0596 -2.9759  0.5447
12420TIP3   OH258750   1.928   2.760  11.929 -0.2944 -0.2003  0.9744
12420TIP3    H158751   1.926   2.728  11.839  1.3593  2.3092  0.0168
12420TIP3    H258752   1.869   2.836  11.929  1.7390  1.4097  1.3494
12421TIP3   OH258753   4.352   4.375  15.628  0.0065  0.6419  0.0470
12421TIP3    H158754   4.307   4.452  15.661 -0.7398 -0.2103  1.0810
12421TIP3    H258755   4.435   4.408  15.593  0.9219  1.5834  2.9896
12422TIP3   OH258756   3.492   4.498   3.390  0.1356 -0.3504  0.6218
12422TIP3    H158757   3.537   4.540   3.318  2.5903 -1.0940  1.6778
12422TIP3    H258758   3.406   4.540   3.392  0.7813  1.1496 -1.3786
12423TIP3   OH258759   1.932   0.459   5.474  0.4875  0.5577 -0.0115
12423TIP3    H158760   2.025   0.474   5.457  0.3738  0.8760 -0.3758
12423TIP3    H258761   1.897   0.546   5.495  0.5547  0.2195  1.5397
12424TIP3   OH258762   4.787   4.063   3.697 -0.3096 -0.4511  0.3293
12424TIP3    H158763   4.878   4.091   3.705 -0.3358 -0.0029 -0.7930
12424TIP3    H258764   4.788   3.970   3.718  0.5150 -0.5937 -0.3509
12425TIP3   OH258765   2.531   0.258   2.609 -0.4620  0.6802 -0.9563
12425TIP3    H158766   2.539   0.244   2.515  0.6923  2.6693 -1.1791
12425TIP3    H258767   2.457   0.203   2.635  0.6350 -1.6728 -2.6013
12426TIP3   OH258768   3.255   2.281  14.616  0.5657  0.4477 -0.0442
12426TIP3    H158769   3.183   2.327  14.573  1.1433  0.3853 -1.1109
12426TIP3    H258770   3.308   2.351  14.655  0.3177  0.5461  0.1145
12427TIP3   OH258771   5.808   0.824  12.486  0.0626  0.0778  0.3168
12427TIP3    H158772   5.867   0.897  12.468 -2.0653  1.4932 -1.1352
12427TIP3    H258773   5.813   0.813  12.581  0.8410  1.7435  0.4925
12428TIP3   OH258774   4.695   4.355   0.726  0.0629  0.1416  0.0557
12428TIP3    H158775   4.715   4.271   0.685 -0.2426 -1.0435  2.2567
12428TIP3    H258776   4.734   4.420   0.669  0.7439 -1.5347 -1.4183
12429TIP3   OH258777   4.394   4.378  15.184 -0.2533 -0.0293  0.4100
12429TIP3    H158778   4.441   4.321  15.244 -0.1092 -0.7653 -0.3843
12429TIP3    H258779   4.452   4.386  15.108 -1.2405 -0.6405 -0.4223
12430TIP3   OH258780   3.001   0.156   0.228  0.2186 -0.7214  0.0033
12430TIP3    H158781   2.991   0.178   0.321  0.4228 -0.0940 -0.1196
12430TIP3    H258782   3.030   0.065   0.228  0.6766 -0.5808  0.5751
12431TIP3   OH258783   3.636   0.520   1.508  0.6335 -0.9013 -0.4310
12431TIP3    H158784   3.656   0.556   1.422 -0.3196 -2.3450 -1.2725
12431TIP3    H258785   3.716   0.533   1.558  1.7540 -1.5069 -2.0234
12432TIP3   OH258786   0.355   3.525  13.721  0.3263 -0.2008 -0.3272
12432TIP3    H158787   0.297   3.573  13.780  1.1609 -0.3277  0.6228
12432TIP3    H258788   0.432   3.505  13.774  1.1840 -0.1535 -1.5217
12433TIP3   OH258789   4.517   5.733  14.454  0.7622 -0.2891  0.0669
12433TIP3    H158790   4.456   5.683  14.508  1.9873 -1.7272  0.1539
12433TIP3    H258791   4.517   5.688  14.369 -0.3150  1.2949 -0.7972
12434TIP3   OH258792   2.955   6.387  14.982  0.3186  0.0575  0.3101
12434TIP3    H158793   3.041   6.385  14.941  0.1679  0.1667 -0.0158
12434TIP3    H258794   2.896   6.418  14.912 -0.2504 -1.5918  0.0281
12435TIP3   OH258795   6.331   3.506  13.809  0.1132  0.3171 -0.2747
12435TIP3    H158796   6.412   3.552  13.832 -0.2713  0.8573  0.0243
12435TIP3    H258797   6.262   3.557  13.853 -0.5766  1.0173 -2.1247
12436TIP3   OH258798   2.087   3.254  16.105  0.1186 -0.4993 -0.0279
12436TIP3    H158799   2.009   3.250  16.160 -0.2105  1.1298 -0.3500
12436TIP3    H258800   2.056   3.237  16.017  0.3017 -0.9338 -0.0112
12437TIP3   OH258801   6.706   1.303  12.066  0.0134 -0.2478  0.3263
12437TIP3    H158802   6.693   1.232  12.004 -2.5770 -0.2076  0.7420
12437TIP3    H258803   6.766   1.268  12.131  0.2057 -1.4088 -0.4603
12438TIP3   OH258804   3.507   4.934  13.179  0.2253 -0.5468  0.4458
12438TIP3    H158805   3.509   4.859  13.238 -0.1958 -0.3065  0.7702
12438TIP3    H258806   3.574   4.994  13.214  0.5233 -0.7428  0.2191
12439TIP3   OH258807   1.888   4.463  16.459 -0.8221  0.3875 -0.3603
12439TIP3    H158808   1.935   4.541  16.490  0.5544 -0.1908 -0.9807
12439TIP3    H258809   1.900   4.464  16.364  0.8949 -1.6425 -0.1996
12440TIP3   OH258810   5.393   5.239   4.390  0.1309  0.1576  0.5535
12440TIP3    H158811   5.311   5.239   4.439  0.8662 -2.6939  1.9036
12440TIP3    H258812   5.451   5.183   4.441  1.2519 -2.1307 -3.0395
12441TIP3   OH258813   5.812   5.119   2.700 -0.0092  0.1072  0.2747
12441TIP3    H158814   5.758   5.052   2.658 -0.1564  0.0420  0.5662
12441TIP3    H258815   5.858   5.073   2.770 -0.9705  0.5321  1.1998
12442TIP3   OH258816   1.076   1.246  13.270 -0.2333 -0.2413 -0.0727
12442TIP3    H158817   1.006   1.181  13.272  0.0448 -0.5337  0.4010
12442TIP3    H258818   1.097   1.256  13.177 -1.3475  0.3322 -0.2580
12443TIP3   OH258819   0.931   6.091  11.505  0.6602 -0.5686 -0.1613
12443TIP3    H158820   0.900   6.122  11.421  1.5054 -0.4384 -0.4333
12443TIP3    H258821   0.917   5.996  11.503 -0.1861 -0.4440 -0.0754
12444TIP3   OH258822   4.715   2.299   0.200  0.3175 -0.5482 -0.1681
12444TIP3    H158823   4.781   2.229   0.202  1.2822  0.3071 -1.7840
12444TIP3    H258824   4.764   2.379   0.215 -0.4474  0.0473 -0.8042
12445TIP3   OH258825   5.761   4.118   4.529 -0.1937 -0.2407  0.6091
12445TIP3    H158826   5.783   4.030   4.500 -0.1715 -0.7314  2.0900
12445TIP3    H258827   5.670   4.131   4.500  0.2507 -0.2090 -0.8280
12446TIP3   OH258828   4.521   5.043  13.153 -0.0488 -0.0069  0.2035
12446TIP3    H158829   4.545   4.965  13.103  1.0450  1.4432 -1.5743
12446TIP3    H258830   4.428   5.054  13.136  0.1874  0.1320 -1.0350
12447TIP3   OH258831   3.222   5.296  15.611  0.1134 -0.0701 -0.0788
12447TIP3    H158832   3.161   5.351  15.562 -0.1032 -0.1959  0.0518
12447TIP3    H258833   3.288   5.269  15.547  0.8192  1.2174  0.0707
12448TIP3   OH258834   2.539   4.982  14.869 -0.4369 -0.3149 -0.0452
12448TIP3    H158835   2.463   4.923  14.870  0.5927 -1.6778 -0.4131
12448TIP3    H258836   2.612   4.927  14.898  0.6671  0.6075 -1.0608
12449TIP3   OH258837   3.526   0.340   2.642 -0.2786  0.0413 -0.0647
12449TIP3    H158838   3.617   0.366   2.661 -0.8930  0.8436  1.8988
12449TIP3    H258839   3.475   0.380   2.712 -1.5940 -4.4010  1.6280
12450TIP3   OH258840   6.647   5.139   1.181  0.1646  0.0375 -0.0665
12450TIP3    H158841   6.723   5.081   1.193  0.5314  1.0176  2.6847
12450TIP3    H258842   6.684   5.219   1.144 -0.1565 -0.9321 -2.5994
12451TIP3   OH258843   5.508   3.489  15.621 -0.0992  0.7918 -0.2653
12451TIP3    H158844   5.574   3.533  15.567 -0.2049  1.7397  0.3675
12451TIP3    H258845   5.438   3.467  15.560  0.1918  1.0134 -0.6849
12452TIP3   OH258846   0.705   5.601  11.442 -0.1980 -0.2319  0.5727
12452TIP3    H158847   0.720   5.515  11.483 -2.8555 -0.5321  1.0238
12452TIP3    H258848   0.627   5.588  11.389  0.5644  1.4016 -0.9898
12453TIP3   OH258849   0.829   4.529   1.875  0.0494  0.1136 -0.3822
12453TIP3    H158850   0.744   4.537   1.832  0.4253 -1.0266 -1.3550
12453TIP3    H258851   0.852   4.436   1.866  0.6245  0.0563  1.3534
12454TIP3   OH258852   0.953   1.679   1.920 -0.4698  0.2216  0.2696
12454TIP3    H158853   0.889   1.644   1.982 -0.8149 -0.2654 -0.3475
12454TIP3    H258854   1.038   1.657   1.956 -0.6640  0.2362  0.7352
12455TIP3   OH258855   0.034   6.394   5.478  0.3194 -0.1656  0.6739
12455TIP3    H158856   0.083   6.437   5.408  1.6354  1.2510  2.4085
12455TIP3    H258857  -0.008   6.319   5.436  0.5728  1.0138 -1.7415
12456TIP3   OH258858   3.266   0.496   4.461  0.2050 -0.8785  0.3785
12456TIP3    H158859   3.260   0.427   4.396 -0.1492  0.2899 -0.8653
12456TIP3    H258860   3.325   0.561   4.422 -0.9853  0.4130  0.6661
12457TIP3   OH258861   2.448   1.703   6.363 -0.4366 -0.2533 -0.1848
12457TIP3    H158862   2.446   1.609   6.347  1.1702 -0.1001 -1.4438
12457TIP3    H258863   2.361   1.734   6.337 -0.7134 -1.2841 -0.4971
12458TIP3   OH258864   1.048   1.341   1.004  0.2063  0.0589 -0.5211
12458TIP3    H158865   1.022   1.433   1.006  0.3902  0.1337 -1.2886
12458TIP3    H258866   1.104   1.334   0.927  1.4463 -0.3661  0.3998
12459TIP3   OH258867   4.653   5.863  16.657 -0.1168 -0.0422  0.4282
12459TIP3    H158868   4.643   5.843  16.564  0.1632 -2.9896  0.9891
12459TIP3    H258869   4.583   5.925  16.676 -1.2141 -0.6927 -1.3766
12460TIP3   OH258870   2.819   2.160   1.610 -0.1294  0.2495 -0.3522
12460TIP3    H158871   2.904   2.121   1.590  0.1163  1.4826 -1.8063
12460TIP3    H258872   2.782   2.183   1.524 -0.6095  2.4558  0.4108
12461TIP3   OH258873   0.927   6.626  11.955 -0.3375  0.5547 -0.6851
12461TIP3    H158874   1.001   6.577  11.991 -0.5700  0.1549 -0.7502
12461TIP3    H258875   0.912   6.586  11.869 -0.7019  0.5612 -0.6245
12462TIP3   OH258876   2.496   0.382  17.040  0.1960 -0.1731  0.3182
12462TIP3    H158877   2.557   0.435  16.988 -0.4340 -0.4217 -0.6815
12462TIP3    H258878   2.552   0.316  17.081  0.7068  0.0417 -0.0223
12463TIP3   OH258879   2.810   1.024   3.836 -0.4669 -0.7590  0.5372
12463TIP3    H158880   2.739   0.974   3.876 -0.4008 -2.0925 -0.9496
12463TIP3    H258881   2.780   1.115   3.840 -1.0716 -1.0085  2.3042
12464TIP3   OH258882   5.893   4.039   5.933  0.4777 -0.4160 -0.3737
12464TIP3    H158883   5.976   4.071   5.969 -0.0448  0.8667 -0.3129
12464TIP3    H258884   5.829   4.107   5.954  0.1104  0.2588 -3.4325
12465TIP3   OH258885   2.783   2.391  15.840 -0.0368  0.0870 -0.3893
12465TIP3    H158886   2.878   2.386  15.831  0.0277  0.3895  0.1141
12465TIP3    H258887   2.766   2.369  15.931 -0.1816  3.1608  0.3895
12466TIP3   OH258888   5.306   6.815  16.307  0.4847  0.8309 -0.2580
12466TIP3    H158889   5.237   6.795  16.244  0.3479  1.8958 -0.4673
12466TIP3    H258890   5.380   6.760  16.282  0.6572  1.7241 -1.7437
12467TIP3   OH258891   5.662   6.254   1.932 -0.3409 -0.0066 -0.1030
12467TIP3    H158892   5.677   6.262   1.837  0.7488  0.7611  0.1308
12467TIP3    H258893   5.661   6.344   1.964 -0.1293 -0.2906  0.7139
12468TIP3   OH258894   6.265   3.515  11.954  0.0491 -0.0880 -0.7443
12468TIP3    H158895   6.187   3.460  11.957  0.3527 -0.4699  0.9048
12468TIP3    H258896   6.329   3.462  11.907  0.8400 -1.9004  2.2029
12469TIP3   OH258897   2.769   6.411   5.578 -0.2107 -0.1664 -0.1762
12469TIP3    H158898   2.824   6.346   5.622  0.2818  0.8839  0.7948
12469TIP3    H258899   2.748   6.372   5.493  2.1470 -0.5433 -0.6079
12470TIP3   OH258900   1.625   4.908  13.761  0.0114 -0.5399 -0.0073
12470TIP3    H158901   1.618   4.977  13.694  0.0373  0.8184  1.3595
12470TIP3    H258902   1.551   4.850  13.743 -1.2614  1.0117  0.0993
12471TIP3   OH258903   3.733   3.571  12.681 -0.3076  0.0096 -0.1926
12471TIP3    H158904   3.663   3.543  12.741 -0.0788  0.5690  0.3416
12471TIP3    H258905   3.791   3.625  12.735  1.3087 -1.5855 -0.2728
12472TIP3   OH258906   6.731   3.764  12.979 -0.1967 -0.3134  0.4305
12472TIP3    H158907   6.803   3.707  12.953  1.6736  1.3419  1.8240
12472TIP3    H258908   6.696   3.724  13.059  0.1802 -0.3291  0.5928
12473TIP3   OH258909   1.197   4.803   2.690  0.6052  0.0918 -0.6672
12473TIP3    H158910   1.280   4.761   2.711  0.3760 -0.3893 -0.7073
12473TIP3    H258911   1.217   4.861   2.616  1.0631  0.5605 -0.1792
12474TIP3   OH258912   2.110   2.842  13.601 -0.0189  0.5761  0.1669
12474TIP3    H158913   2.072   2.838  13.689 -0.8735 -1.8929 -0.2798
12474TIP3    H258914   2.087   2.930  13.569 -4.9053 -0.5574  0.1589
12475TIP3   OH258915   6.057   4.765   0.637 -0.4564  0.5491  0.2308
12475TIP3    H158916   6.064   4.858   0.616 -1.2452  0.5343 -0.1109
12475TIP3    H258917   6.145   4.741   0.667 -0.4463  1.5695  1.0426
12476TIP3   OH258918   0.186   4.263   3.551  0.3317 -0.0369 -0.0125
12476TIP3    H158919   0.242   4.206   3.498  0.8403 -0.4762  0.9797
12476TIP3    H258920   0.136   4.314   3.487 -0.3286 -1.7713 -0.9137
12477TIP3   OH258921   2.838   3.463   1.200 -0.0078 -0.4637  0.1420
12477TIP3    H158922   2.892   3.446   1.278 -1.3244  0.0481  1.1881
12477TIP3    H258923   2.901   3.465   1.128  1.4558  0.7686  1.4096
12478TIP3   OH258924   1.535   6.153  12.432 -0.0310 -0.0865 -0.0755
12478TIP3    H158925   1.488   6.166  12.514  0.9285  1.1410  0.2847
12478TIP3    H258926   1.482   6.090  12.384 -1.0081 -0.2151  1.1573
12479TIP3   OH258927   2.187   4.748  14.712  0.0309  0.7412 -0.3633
12479TIP3    H158928   2.108   4.757  14.659 -0.1566 -0.2572 -0.2491
12479TIP3    H258929   2.165   4.682  14.778  0.5951  1.2466  0.3433
12480TIP3   OH258930   4.964   2.692   1.463  0.8284  0.3405 -0.1792
12480TIP3    H158931   4.884   2.732   1.497  0.5198 -1.0062  0.6695
12480TIP3    H258932   5.003   2.648   1.538  1.0630 -1.1387 -1.1613
12481TIP3   OH258933   5.001   2.363   0.983 -0.4950  0.4884  0.1911
12481TIP3    H158934   4.953   2.329   1.059  0.6931  2.4663  1.8850
12481TIP3    H258935   5.055   2.290   0.954 -1.6359 -0.5682  0.6996
12482TIP3   OH258936   4.737   3.099  13.452 -0.1281  0.3505  0.1242
12482TIP3    H158937   4.714   3.009  13.476 -0.0950 -0.0525 -1.3042
12482TIP3    H258938   4.787   3.131  13.526 -0.1551 -0.8124  0.6626
12483TIP3   OH258939   3.483   2.537  13.972 -0.5886  0.1973  0.0655
12483TIP3    H158940   3.470   2.471  14.040 -1.2055  1.6162  1.3692
12483TIP3    H258941   3.417   2.517  13.906 -0.2555 -0.9615  0.0881
12484TIP3   OH258942   5.586   2.239  16.499  0.0139  0.8012 -0.5512
12484TIP3    H158943   5.557   2.246  16.590 -0.3856 -0.0007 -0.6062
12484TIP3    H258944   5.512   2.273  16.448  0.5265  1.9188 -0.5444
12485TIP3   OH258945   3.591   3.653   0.156 -0.5891 -0.8764  0.5851
12485TIP3    H158946   3.520   3.654   0.091  0.8931  1.6578 -1.0729
12485TIP3    H258947   3.666   3.616   0.109  0.4127  0.6772  0.9384
12486TIP3   OH258948   0.753   1.404  10.917  0.2844 -0.7791  0.0095
12486TIP3    H158949   0.823   1.468  10.927  0.0371 -0.5948  0.5722
12486TIP3    H258950   0.798   1.325  10.885  0.5143 -0.1908 -1.1476
12487TIP3   OH258951   4.630   3.478   4.864 -0.8443 -0.1616  0.3828
12487TIP3    H158952   4.626   3.422   4.942 -0.4009 -0.2031  0.3774
12487TIP3    H258953   4.628   3.416   4.791  3.5551 -0.4555  0.4013
12488TIP3   OH258954   1.650   4.045  12.022 -0.1704 -0.6980  0.3727
12488TIP3    H158955   1.641   3.970  11.963  0.1976  0.6216 -1.4247
12488TIP3    H258956   1.744   4.049  12.040 -0.3011 -1.1896  1.2008
12489TIP3   OH258957   5.871   4.919  16.607 -0.3637 -0.0559 -0.0874
12489TIP3    H158958   5.783   4.950  16.585 -1.1246 -1.2220  1.2345
12489TIP3    H258959   5.923   4.999  16.615 -1.5822  0.7198  0.2520
12490TIP3   OH258960   0.116   6.374  11.708  0.4467 -0.0881  0.1560
12490TIP3    H158961   0.109   6.327  11.791 -1.0486 -0.0254  0.0914
12490TIP3    H258962   0.199   6.346  11.671 -0.4924 -2.8462  0.0154
12491TIP3   OH258963   1.631   1.108   6.525 -0.7493 -0.4064  0.1655
12491TIP3    H158964   1.592   1.192   6.553  0.0460 -0.0314  0.1507
12491TIP3    H258965   1.679   1.130   6.445 -0.3028 -0.8261  0.3181
12492TIP3   OH258966   4.836   0.534  13.612  0.0974  0.4430 -0.0807
12492TIP3    H158967   4.807   0.446  13.634 -1.0107  0.9592  0.5781
12492TIP3    H258968   4.877   0.526  13.526  0.4909 -0.8054  0.2208
12493TIP3   OH258969   5.301   0.270  14.926  0.2002 -0.0114  0.3339
12493TIP3    H158970   5.386   0.242  14.891  0.6717  1.9630 -0.1652
12493TIP3    H258971   5.241   0.199  14.902  2.1181 -2.5297  2.6673
12494TIP3   OH258972   4.709   4.063   5.747 -0.1590  0.7387 -0.6668
12494TIP3    H158973   4.753   4.144   5.773  2.7909 -0.7046 -1.0336
12494TIP3    H258974   4.721   4.058   5.652 -0.1176 -0.2597 -0.6161
12495TIP3   OH258975   4.244   4.529  12.896 -0.8481  0.1428  0.0096
12495TIP3    H158976   4.293   4.610  12.878 -0.1186 -0.1494  0.6655
12495TIP3    H258977   4.162   4.540  12.847 -1.2894  1.8094  1.0439
12496TIP3   OH258978   4.473   0.372   0.944  0.7246 -0.2736 -0.1938
12496TIP3    H158979   4.487   0.449   0.999  2.6999 -1.3312  0.8507
12496TIP3    H258980   4.480   0.405   0.854  2.3856  0.6315  0.2501
12497TIP3   OH258981   2.091   2.664   3.685 -0.2070 -0.0317  0.3354
12497TIP3    H158982   2.026   2.657   3.615  0.3104  0.1818 -0.1664
12497TIP3    H258983   2.038   2.668   3.765 -0.8430  0.8220 -0.1165
12498TIP3   OH258984   4.996   1.572   4.972  0.9175 -0.2097 -0.0692
12498TIP3    H158985   5.030   1.533   4.891  0.5788 -2.0395  0.6331
12498TIP3    H258986   5.074   1.583   5.027  1.2296  1.5656 -0.8312
12499TIP3   OH258987   3.939   0.011   5.141  0.5833  0.2470  0.2305
12499TIP3    H158988   3.926  -0.059   5.205 -0.1937  0.3743  0.2156
12499TIP3    H258989   3.856   0.016   5.094  0.9328  0.5964 -0.3477
12500TIP3   OH258990   0.347   5.840  15.156 -0.2846  0.4999 -0.7187
12500TIP3    H158991   0.252   5.835  15.169 -0.4303  2.3588 -1.0579
12500TIP3    H258992   0.358   5.876  15.069  0.7291  2.6483  0.2684
12501TIP3   OH258993   4.602   1.083   5.115 -0.7906  0.3351  0.2436
12501TIP3    H158994   4.652   1.165   5.119 -0.8777  0.4885 -1.7487
12501TIP3    H258995   4.656   1.024   5.063 -1.4645 -0.3679  0.3272
12502TIP3   OH258996   3.594   1.588  13.677 -0.3125  0.2449  0.2826
12502TIP3    H158997   3.646   1.648  13.731 -1.5961  1.6703 -0.0453
12502TIP3    H258998   3.503   1.617  13.689 -0.5012  1.9998 -4.2542
12503TIP3   OH258999   0.155   5.143   6.375 -0.4382 -0.3871 -0.4195
12503TIP3    H159000   0.144   5.237   6.386 -0.8020 -0.3457 -1.1101
12503TIP3    H259001   0.115   5.104   6.453 -0.5714  0.0098 -0.2911
12504TIP3   OH259002   6.247   0.211   4.740  0.1587 -0.7899  0.4525
12504TIP3    H159003   6.325   0.237   4.788 -0.4889 -0.9408  1.6178
12504TIP3    H259004   6.222   0.289   4.690  0.5256 -0.4430  0.8050
12505TIP3   OH259005   4.603   4.584   4.687 -0.1921  0.1222  0.0200
12505TIP3    H159006   4.695   4.559   4.687  0.1561  1.1892  2.8105
12505TIP3    H259007   4.604   4.679   4.702 -1.7175  0.3550 -1.1648
12506TIP3   OH259008   1.966   5.980   2.858  0.3754  0.3808  0.1908
12506TIP3    H159009   1.955   5.885   2.855 -1.6426  0.5666  1.1098
12506TIP3    H259010   2.037   5.993   2.921  1.8081 -0.5576 -1.1655
12507TIP3   OH259011   6.558   2.528  12.022 -0.0268  0.2189 -0.0844
12507TIP3    H159012   6.578   2.555  11.932  0.3185  0.9853  0.2151
12507TIP3    H259013   6.534   2.610  12.066 -3.1367 -0.5441 -0.2323
12508TIP3   OH259014   2.942   4.515  16.325  0.1492 -0.1193  0.1764
12508TIP3    H159015   2.937   4.588  16.263  1.0074  0.5012  0.8124
12508TIP3    H259016   2.975   4.555  16.406 -0.6101 -0.9761  0.9258
12509TIP3   OH259017   6.676   1.525   4.605 -0.2586  0.1799 -0.1012
12509TIP3    H159018   6.666   1.541   4.699  0.0176  1.1959 -0.2399
12509TIP3    H259019   6.769   1.501   4.596  0.9115  4.4714 -0.6869
12510TIP3   OH259020   1.288   2.119   1.561  0.2934  0.0534  0.0304
12510TIP3    H159021   1.343   2.083   1.492 -1.4054 -1.1716 -0.7200
12510TIP3    H259022   1.249   2.042   1.603 -1.1233  0.9061  0.2939
12511TIP3   OH259023   3.396   2.113   2.145  0.0224 -0.2170 -0.2248
12511TIP3    H159024   3.447   2.175   2.093 -0.6212  1.7567  1.4395
12511TIP3    H259025   3.460   2.072   2.203  0.5893 -1.7702 -1.8989
12512TIP3   OH259026   1.484   3.421   5.569 -0.3324 -0.2691 -0.6578
12512TIP3    H159027   1.506   3.385   5.655 -0.1357 -2.2073 -1.4763
12512TIP3    H259028   1.439   3.503   5.588  0.1151 -0.4356  1.2764
12513TIP3   OH259029   6.212   6.247  14.016 -0.8827  0.4950 -0.2537
12513TIP3    H159030   6.149   6.319  14.006 -1.8111 -0.1188  1.0347
12513TIP3    H259031   6.258   6.244  13.932 -0.9056  2.5179 -0.3705
12514TIP3   OH259032   4.946   0.580  15.260 -0.6469  0.3068  0.4109
12514TIP3    H159033   4.986   0.524  15.327  1.4532  0.5121 -0.6285
12514TIP3    H259034   4.939   0.524  15.183  0.0783  1.0337 -0.1886
12515TIP3   OH259035   6.066   5.299   1.918 -0.0621  0.0830  0.1060
12515TIP3    H159036   6.034   5.220   1.876 -1.8547  0.5200  0.6125
12515TIP3    H259037   6.075   5.276   2.010 -1.8600  0.8349  0.4831
12516TIP3   OH259038   3.686   3.589   4.208 -0.2582  0.0945 -0.1971
12516TIP3    H159039   3.669   3.505   4.252  1.5755 -0.5871 -0.7473
12516TIP3    H259040   3.603   3.637   4.216 -1.3071 -1.7208  0.2189
12517TIP3   OH259041   1.872   3.155   6.077  1.0221 -0.0325 -0.5278
12517TIP3    H159042   1.845   3.122   5.991 -1.8336  0.2247  0.2041
12517TIP3    H259043   1.841   3.245   6.079  0.2444 -0.3097  1.0770
12518TIP3   OH259044   3.456   3.782   5.883 -0.1029  0.5028  0.4321
12518TIP3    H159045   3.392   3.808   5.949 -1.6286  2.2454 -1.6401
12518TIP3    H259046   3.436   3.838   5.807  1.9861 -0.9803 -1.2807
12519TIP3   OH259047   1.733   4.110   4.779  0.0486 -0.3649  0.2873
12519TIP3    H159048   1.815   4.085   4.736 -0.1556  0.5800 -0.6838
12519TIP3    H259049   1.687   4.028   4.794  0.1420 -0.7176 -1.2909
12520TIP3   OH259050   3.469   6.674   3.111  0.3768  0.4404 -0.3122
12520TIP3    H159051   3.416   6.650   3.035 -0.1487 -0.8056  0.4199
12520TIP3    H259052   3.409   6.667   3.185  1.4725 -0.7467  0.4916
12521TIP3   OH259053   5.618   6.692   0.398  0.2577 -0.0701 -0.3315
12521TIP3    H159054   5.631   6.704   0.492  0.1714  0.6948 -0.4133
12521TIP3    H259055   5.684   6.627   0.373  1.4325  0.9932 -0.0483
12522TIP3   OH259056   4.783   0.298  13.402  0.2902  0.0079 -0.3229
12522TIP3    H159057   4.692   0.324  13.393  0.1134 -0.5820 -0.2520
12522TIP3    H259058   4.785   0.207  13.373  0.0121 -1.4167  3.8756
12523TIP3   OH259059   0.994   2.397  14.907  0.3455  0.4501 -0.0433
12523TIP3    H159060   1.032   2.412  14.994  1.3856  2.4068 -0.8094
12523TIP3    H259061   1.067   2.368  14.853 -0.1479 -0.0247 -0.4641
12524TIP3   OH259062   4.205   0.816   2.651  0.3600 -0.0216  0.5559
12524TIP3    H159063   4.271   0.823   2.582 -1.0347  1.1702 -0.6595
12524TIP3    H259064   4.192   0.905   2.682 -1.1914 -0.1675  0.3348
12525TIP3   OH259065   1.377   4.109   3.551 -0.0255 -0.3579  0.2773
12525TIP3    H159066   1.357   4.200   3.571 -3.2082 -0.6529 -1.1044
12525TIP3    H259067   1.343   4.060   3.626 -0.1637 -0.5147  0.1149
12526TIP3   OH259068   1.317   1.693  11.158  0.3069  0.0968  0.9270
12526TIP3    H159069   1.389   1.635  11.134  1.2913  1.7704 -0.2153
12526TIP3    H259070   1.348   1.738  11.236  1.1564  1.9699 -0.4716
12527TIP3   OH259071   3.605   5.707   5.358 -0.0923  0.5215 -0.6508
12527TIP3    H159072   3.568   5.680   5.273 -0.3637  2.5579 -1.1995
12527TIP3    H259073   3.532   5.702   5.419  0.1441 -1.1250 -0.4658
12528TIP3   OH259074   3.553   2.996  12.054  0.2898 -0.8079 -0.7798
12528TIP3    H159075   3.586   3.061  11.991  0.9388 -0.7212 -0.3588
12528TIP3    H259076   3.479   3.039  12.097  1.4438  0.1153  0.3323
12529TIP3   OH259077   4.449   5.202   4.700 -0.4979 -0.2648  0.1028
12529TIP3    H159078   4.390   5.211   4.626 -0.3548 -0.3194 -0.0193
12529TIP3    H259079   4.511   5.274   4.690  2.3425 -2.9063 -2.4151
12530TIP3   OH259080   4.037   3.368  10.357 -0.2369  0.0252 -0.0510
12530TIP3    H159081   4.044   3.410  10.271  1.4681  1.5042  0.7779
12530TIP3    H259082   4.115   3.313  10.363 -0.2935  0.0146  0.5845
12531TIP3   OH259083   0.719   1.727  13.512  0.2317 -1.0283 -0.5611
12531TIP3    H159084   0.730   1.812  13.470 -1.3627 -0.0679  0.8746
12531TIP3    H259085   0.626   1.708  13.506  0.4711 -2.3808 -0.3102
12532TIP3   OH259086   5.473   4.003   4.727  0.3292  0.1272 -0.5050
12532TIP3    H159087   5.439   4.088   4.699  0.3653 -0.5271 -2.6377
12532TIP3    H259088   5.442   3.942   4.660 -0.8635 -1.7999  1.7186
12533TIP3   OH259089   0.270   5.430   1.193  0.8312  0.2658 -0.0205
12533TIP3    H159090   0.360   5.404   1.173  0.6072 -0.5098 -0.0146
12533TIP3    H259091   0.220   5.403   1.117  0.6860  1.2157 -0.2744
12534TIP3   OH259092   3.281   4.340  10.346  0.3568 -0.2301 -0.0627
12534TIP3    H159093   3.186   4.329  10.352  0.3499 -0.9770 -1.2917
12534TIP3    H259094   3.310   4.265  10.294  1.2432  1.7216 -2.4381
12535TIP3   OH259095   2.376   6.658   0.800 -0.0538  0.0925 -0.0828
12535TIP3    H159096   2.352   6.611   0.721 -1.7571  1.4503 -0.4046
12535TIP3    H259097   2.298   6.654   0.855  0.6363  0.3859  0.9457
12536TIP3   OH259098   4.825   3.739  16.070  0.0614 -0.0611  0.5172
12536TIP3    H159099   4.914   3.774  16.079  1.2488 -2.9057  0.2541
12536TIP3    H259100   4.798   3.764  15.982  1.7126 -1.5441 -0.4493
12537TIP3   OH259101   5.098   4.808   5.128 -0.3738 -0.3036  0.2971
12537TIP3    H159102   5.135   4.843   5.047 -3.9055  0.1715 -1.2383
12537TIP3    H259103   5.173   4.796   5.186  1.8498  2.5794 -1.8291
12538TIP3   OH259104   0.546   6.201   3.214 -0.3789  0.9498 -0.0261
12538TIP3    H159105   0.539   6.276   3.155 -2.0975  1.6214  0.9605
12538TIP3    H259106   0.494   6.132   3.173 -1.8140  1.5116  0.8077
12539TIP3   OH259107   0.525   4.794  14.161 -0.0684  0.5327 -0.3757
12539TIP3    H159108   0.499   4.886  14.156 -1.0647  0.3320  0.9502
12539TIP3    H259109   0.450   4.746  14.128 -0.8473  0.0311  2.0370
12540TIP3   OH259110   0.443   3.471  11.677  0.1989 -0.0707  0.3360
12540TIP3    H159111   0.495   3.449  11.754 -0.2523 -1.4149  0.2795
12540TIP3    H259112   0.457   3.565  11.664 -1.5026  0.6813  3.3982
12541TIP3   OH259113   2.396   3.623  14.992  0.3543  0.9601  0.3726
12541TIP3    H159114   2.444   3.668  15.061  1.6268 -0.4158  0.3908
12541TIP3    H259115   2.424   3.532  14.997 -0.0450  0.7008 -1.5179
12542TIP3   OH259116   5.633   3.902  14.405  0.7466  0.4122 -0.2267
12542TIP3    H159117   5.667   3.972  14.349  0.6638  0.2015 -0.5393
12542TIP3    H259118   5.689   3.826  14.386  1.4352  0.6496  0.8068
12543TIP3   OH259119   1.612   1.516  14.818  0.1080  0.0331  0.1521
12543TIP3    H159120   1.656   1.431  14.821 -0.8467 -0.4838 -0.3341
12543TIP3    H259121   1.677   1.575  14.779  0.3861 -0.7110 -0.5334
12544TIP3   OH259122   3.082   2.905   3.176 -0.0805 -0.1642 -0.4074
12544TIP3    H159123   3.099   2.902   3.270  0.4689 -0.1560 -0.5057
12544TIP3    H259124   3.021   2.834   3.160  2.1642 -2.1247 -0.5241
12545TIP3   OH259125   2.507   2.686  17.091 -0.4151  0.0358  0.0680
12545TIP3    H159126   2.525   2.771  17.130  0.6084  1.1666 -2.6961
12545TIP3    H259127   2.444   2.704  17.021 -1.3490 -1.7181  0.4193
12546TIP3   OH259128   3.839   2.675   0.228  0.0191 -0.4205  0.1090
12546TIP3    H159129   3.873   2.677   0.138 -1.1479  1.8187 -0.3181
12546TIP3    H259130   3.743   2.674   0.217 -0.1337  0.1096  1.3255
12547TIP3   OH259131   0.933   3.370  11.766  0.3044  0.0655  0.2485
12547TIP3    H159132   0.879   3.291  11.766 -1.2833  1.0871 -2.0246
12547TIP3    H259133   0.977   3.369  11.681 -0.3965  2.0546 -0.1691
12548TIP3   OH259134   1.757   2.728   4.355 -0.1154  0.1745 -0.2334
12548TIP3    H159135   1.798   2.680   4.426 -2.0387 -1.0679  0.0657
12548TIP3    H259136   1.716   2.661   4.301  0.2552  1.2089 -1.8390
12549TIP3   OH259137   6.286   5.986  14.259  0.3162 -0.2864  0.3856
12549TIP3    H159138   6.354   5.955  14.319 -1.2265  0.0313  2.3789
12549TIP3    H259139   6.213   5.926  14.273  0.0261 -0.3816 -1.4289
12550TIP3   OH259140   5.888   1.362   3.633 -0.2402 -0.4903 -0.2423
12550TIP3    H159141   5.970   1.337   3.590  0.5032 -1.8530  1.9132
12550TIP3    H259142   5.916   1.420   3.704 -1.1055 -1.4066  0.8446
12551TIP3   OH259143   1.111   5.799  12.037 -0.2205  0.4660  0.4348
12551TIP3    H159144   1.119   5.843  12.122 -1.6084  1.8235 -0.1143
12551TIP3    H259145   1.051   5.726  12.054  1.8552 -1.0994  1.2810
12552TIP3   OH259146   2.167   3.114  12.812  0.6336  0.1501 -0.1542
12552TIP3    H159147   2.112   3.088  12.737  0.3852 -1.0301  0.4228
12552TIP3    H259148   2.155   3.209  12.819 -2.0066 -0.1825  0.4662
12553TIP3   OH259149   4.161   3.087  16.896 -0.2002  0.9511  0.4094
12553TIP3    H159150   4.248   3.124  16.879  0.4152 -1.7591 -2.8916
12553TIP3    H259151   4.178   3.013  16.954 -0.3032  0.4343 -0.2172
12554TIP3   OH259152   3.927   6.561  13.310 -0.1425  0.2544 -0.2472
12554TIP3    H159153   4.020   6.577  13.329  0.4368 -0.6374 -2.2197
12554TIP3    H259154   3.880   6.624  13.366  1.6762  1.3869  0.0595
12555TIP3   OH259155   1.951   1.628   3.029  0.5556 -0.4921 -0.6317
12555TIP3    H159156   2.005   1.599   2.956  0.8521 -0.5422 -0.3921
12555TIP3    H259157   1.861   1.625   2.995  0.3318 -4.0018  0.1333
12556TIP3   OH259158   3.369   3.908  13.095  0.4608 -0.3094 -0.6253
12556TIP3    H159159   3.423   3.980  13.129  0.5505 -0.9876  0.6908
12556TIP3    H259160   3.413   3.829  13.125 -0.9997 -0.8797  0.0824
12557TIP3   OH259161   6.675   2.696   2.679  0.3690  0.0034  0.1621
12557TIP3    H159162   6.764   2.693   2.715  0.0289  3.0818  1.4526
12557TIP3    H259163   6.629   2.625   2.724  1.7548 -0.6437  0.6082
12558TIP3   OH259164   1.775   5.689   0.003 -0.1529  0.4784  0.1992
12558TIP3    H159165   1.795   5.604  -0.036  0.9797  1.0892 -0.5745
12558TIP3    H259166   1.708   5.726  -0.054 -0.1029  0.4180  0.0999
12559TIP3   OH259167   3.043   0.920   2.042 -0.9951 -0.5170 -0.4033
12559TIP3    H159168   2.960   0.953   2.007 -0.9576 -0.9836 -0.9418
12559TIP3    H259169   3.055   0.836   1.999 -0.0828 -0.3068 -0.5576
12560TIP3   OH259170   0.518   2.377  12.629 -0.0735 -0.0241 -0.4951
12560TIP3    H159171   0.608   2.411  12.625 -0.3417  1.0253  1.4150
12560TIP3    H259172   0.529   2.283  12.647  0.6681  0.5825  2.4981
12561TIP3   OH259173   4.275   1.863  14.622 -0.0933  0.8554  0.3581
12561TIP3    H159174   4.307   1.777  14.594  0.8233  1.9530 -2.1103
12561TIP3    H259175   4.188   1.871  14.582 -0.5840  0.7106  1.3714
12562TIP3   OH259176   4.106   1.911   5.867  0.0986 -0.1668  0.6629
12562TIP3    H159177   4.174   1.892   5.803 -1.6257  0.2551 -1.3306
12562TIP3    H259178   4.138   1.989   5.913  0.6841  0.3861 -0.6648
12563TIP3   OH259179   0.101   3.115  17.008 -0.5390 -0.0779 -0.0726
12563TIP3    H159180   0.013   3.141  16.978 -0.9871 -1.7693 -0.2761
12563TIP3    H259181   0.157   3.188  16.982 -1.5281  0.0917 -1.8629
12564TIP3   OH259182   2.275   3.036  14.043 -0.4728 -0.0389 -0.5069
12564TIP3    H159183   2.308   2.948  14.064  0.5609  0.6438  0.8276
12564TIP3    H259184   2.265   3.036  13.948  0.4742 -1.2726 -0.6236
12565TIP3   OH259185   5.042   1.782  16.824  0.1788 -0.6416 -0.3373
12565TIP3    H159186   5.060   1.688  16.825  0.9450 -0.4945  0.5817
12565TIP3    H259187   5.102   1.818  16.889 -1.0685  0.3136  0.2882
12566TIP3   OH259188   5.697   1.936   6.502  0.8677  0.4061  0.2926
12566TIP3    H159189   5.771   1.992   6.477  0.8669  0.4438  0.3775
12566TIP3    H259190   5.625   1.997   6.519  1.4052  0.5130  2.3047
12567TIP3   OH259191   4.910   3.667  10.862 -0.5238 -0.1758 -0.2160
12567TIP3    H159192   4.926   3.605  10.791 -2.0598 -0.0350 -0.7000
12567TIP3    H259193   4.916   3.753  10.822  0.0847 -0.0433  0.1450
12568TIP3   OH259194   0.790   4.860   2.149  0.1299 -0.0612  0.1509
12568TIP3    H159195   0.809   4.850   2.242 -0.5891  1.2636  0.4502
12568TIP3    H259196   0.856   4.806   2.105  2.9843  2.4026  1.2473
12569TIP3   OH259197   5.381   1.140   0.775 -0.1093  0.1640  0.0141
12569TIP3    H159198   5.336   1.058   0.758  2.2656 -0.7540 -2.3146
12569TIP3    H259199   5.398   1.140   0.869  0.8996 -2.6099 -0.1161
12570TIP3   OH259200   5.519   1.400   5.889  0.0691  0.0529  0.3935
12570TIP3    H159201   5.525   1.375   5.981 -0.4544 -0.4299  0.2996
12570TIP3    H259202   5.588   1.350   5.846  0.6444  0.6618  0.5998
12571TIP3   OH259203   5.311   5.499  15.114  0.0525 -0.3495 -0.3261
12571TIP3    H159204   5.335   5.408  15.129 -2.5080 -1.0530 -0.1828
12571TIP3    H259205   5.346   5.546  15.190  2.2512 -1.0298 -0.9010
12572TIP3   OH259206   2.881   2.952  12.025 -0.4739 -0.3109 -0.5008
12572TIP3    H159207   2.839   2.920  12.105  1.9471  0.6862  1.2347
12572TIP3    H259208   2.844   3.039  12.011 -0.2048 -0.1040  0.0784
12573TIP3   OH259209   1.558   5.214  15.183 -0.0808  0.3547  0.4097
12573TIP3    H159210   1.470   5.222  15.220 -0.4022  0.4416 -0.3596
12573TIP3    H259211   1.558   5.128  15.141 -0.1656  0.8147 -0.5429
12574TIP3   OH259212   1.517   2.436  14.997 -0.1953  0.3965 -0.8778
12574TIP3    H159213   1.433   2.393  15.015 -0.3499  0.9617 -0.2042
12574TIP3    H259214   1.579   2.393  15.056 -0.8094  2.6122  1.4571
12575TIP3   OH259215   2.815   1.757   0.875 -0.7431 -0.0610 -0.5730
12575TIP3    H159216   2.847   1.771   0.964 -0.3023  0.6095 -0.8305
12575TIP3    H259217   2.863   1.680   0.844 -0.4310  0.0840 -0.4526
12576TIP3   OH259218   6.593   4.852  14.554  0.2880  0.4274  0.1631
12576TIP3    H159219   6.650   4.792  14.506 -0.2727  1.9354 -2.4670
12576TIP3    H259220   6.615   4.838  14.646  1.6156 -2.3099 -0.5291
12577TIP3   OH259221   0.477   3.903   1.983  0.2714  0.0948 -0.9304
12577TIP3    H159222   0.473   3.850   1.904  1.4378  1.1650 -1.7430
12577TIP3    H259223   0.444   3.847   2.052  2.7378 -2.1655 -1.5113
12578TIP3   OH259224   5.092   0.058  13.311  0.3768  0.0334 -0.3458
12578TIP3    H159225   5.144  -0.003  13.260 -3.0248 -1.7940 -1.7937
12578TIP3    H259226   5.073   0.130  13.250 -0.5616 -0.3563 -0.5271
12579TIP3   OH259227   1.556   0.868  16.072  0.3039 -0.1472 -0.0214
12579TIP3    H159228   1.551   0.839  16.163  0.3400  0.1566  0.0789
12579TIP3    H259229   1.477   0.833  16.031  0.1152  0.0097  0.2125
12580TIP3   OH259230   6.107   4.898   5.055 -0.0182  0.2601 -0.2966
12580TIP3    H159231   6.075   4.854   5.134  1.2574 -1.0331 -0.4820
12580TIP3    H259232   6.152   4.976   5.086  0.3169 -0.1478  0.2390
12581TIP3   OH259233   5.890   4.467  11.774  0.2603 -0.3668  0.1756
12581TIP3    H159234   5.909   4.426  11.858 -1.2552 -0.7356  0.3600
12581TIP3    H259235   5.841   4.401  11.725  1.8518 -0.4614 -1.3301
12582TIP3   OH259236   5.251   5.995  14.339 -0.2126 -0.4378  0.5756
12582TIP3    H159237   5.231   6.005  14.246 -0.6684 -0.2554  0.6891
12582TIP3    H259238   5.345   5.977  14.343 -0.0407  0.3418  0.1305
12583TIP3   OH259239   4.078   5.337  14.820  0.5935  0.0906 -0.2822
12583TIP3    H159240   4.071   5.349  14.725  1.0965 -0.2226 -0.3633
12583TIP3    H259241   4.104   5.423  14.852 -0.3659  0.4070 -0.3327
12584TIP3   OH259242   1.776   6.199   6.440 -0.1106 -0.3454  0.7811
12584TIP3    H159243   1.738   6.150   6.513  3.6024 -0.1391  2.9895
12584TIP3    H259244   1.815   6.133   6.384  1.8893 -0.2090  1.9596
12585TIP3   OH259245   3.483   3.488   5.508  0.0847  0.0363  0.4210
12585TIP3    H159246   3.388   3.495   5.513  0.1921  2.6869 -0.5728
12585TIP3    H259247   3.514   3.510   5.596 -0.2226 -1.1152  0.8219
12586TIP3   OH259248   1.413   2.343   1.609 -0.0572  0.0711 -0.1767
12586TIP3    H159249   1.383   2.254   1.590 -1.1183  0.5404 -0.7709
12586TIP3    H259250   1.383   2.360   1.698 -1.3016  0.4296 -0.6618
12587TIP3   OH259251   3.741   2.536  10.782  0.2097  0.4662 -0.2383
12587TIP3    H159252   3.745   2.523  10.688  2.7549  1.9532 -0.3865
12587TIP3    H259253   3.724   2.450  10.819 -2.2690  0.1144 -2.1152
12588TIP3   OH259254   0.113   3.434  16.293 -0.1804  0.5526  0.4649
12588TIP3    H159255   0.090   3.509  16.347 -0.0951 -1.3661  3.2293
12588TIP3    H259256   0.052   3.365  16.320  0.3537 -0.6799 -1.3525
12589TIP3   OH259257   4.865   5.203   1.463  0.2782  0.1474  0.0878
12589TIP3    H159258   4.815   5.267   1.514 -0.1742  1.1353 -1.5674
12589TIP3    H259259   4.951   5.242   1.453  0.3423 -0.0086  0.0265
12590TIP3   OH259260   4.415   4.554   5.216  0.5117  0.1564 -0.1966
12590TIP3    H159261   4.415   4.598   5.131  0.8730 -1.2778 -0.9573
12590TIP3    H259262   4.471   4.477   5.203 -0.3333 -0.6833  1.0225
12591TIP3   OH259263   6.092   0.293   4.450  0.1089  0.0768 -0.2137
12591TIP3    H159264   6.041   0.302   4.369 -0.3550  2.5139  0.3174
12591TIP3    H259265   6.170   0.346   4.435  0.3802 -0.0765  0.6483
12592TIP3   OH259266   1.240   0.247  12.278 -0.0223 -0.2388  0.1517
12592TIP3    H159267   1.249   0.159  12.241  0.6375  0.3715 -1.1883
12592TIP3    H259268   1.169   0.287  12.229 -0.1366  0.0735  0.5679
12593TIP3   OH259269   5.556   3.129   5.028 -0.3382  0.8630 -0.6048
12593TIP3    H159270   5.640   3.153   5.068  0.4232 -0.0059 -1.6544
12593TIP3    H259271   5.496   3.118   5.102  0.6616  0.7906  0.1971
12594TIP3   OH259272   3.523   2.447   5.145  0.0344  0.0267  0.8224
12594TIP3    H159273   3.523   2.511   5.074 -1.6751  0.1243  0.8832
12594TIP3    H259274   3.528   2.362   5.100  0.3408  0.1325  0.6548
12595TIP3   OH259275   4.975   1.644  12.201 -0.2110  0.4206 -0.4810
12595TIP3    H159276   4.895   1.625  12.250  0.7243  1.0673  1.3365
12595TIP3    H259277   4.979   1.577  12.134 -1.3313 -0.7122  0.5630
12596TIP3   OH259278   6.557   0.559   4.401  0.1924  0.3700  0.3152
12596TIP3    H159279   6.605   0.495   4.347  2.0838  0.7555  1.5156
12596TIP3    H259280   6.601   0.642   4.385 -0.6401  0.9026  0.7574
12597TIP3   OH259281   4.235   2.695   2.413 -0.0174  0.0489  0.5082
12597TIP3    H159282   4.198   2.729   2.331 -0.6958 -2.2075 -0.1439
12597TIP3    H259283   4.177   2.729   2.481 -1.0379 -0.2950 -0.1800
12598TIP3   OH259284   0.248   1.898  13.556 -0.1618 -0.4624  0.6697
12598TIP3    H159285   0.185   1.832  13.585  1.2696 -1.0436  2.5106
12598TIP3    H259286   0.299   1.919  13.634 -0.8834  3.2035  0.2668
12599TIP3   OH259287   4.237   3.113  14.092  0.3959 -0.6661  0.1410
12599TIP3    H159288   4.332   3.107  14.099  0.3910 -0.8454  0.0525
12599TIP3    H259289   4.205   3.027  14.121  0.2729 -0.6933 -0.0793
12600TIP3   OH259290   5.902   4.316   4.405 -0.3622 -0.0702 -0.3410
12600TIP3    H159291   5.843   4.243   4.388  1.0432 -1.5628  1.0254
12600TIP3    H259292   5.872   4.351   4.490 -0.6825  0.6014 -0.7250
12601TIP3   OH259293   0.888   2.270  11.113 -0.6259  0.4867 -0.0447
12601TIP3    H159294   0.822   2.231  11.056 -0.7010  0.4581  0.0624
12601TIP3    H259295   0.927   2.196  11.159  0.6613  0.3305 -1.3530
12602TIP3   OH259296   3.848   0.784  15.398 -0.6613 -0.9031  0.3834
12602TIP3    H159297   3.782   0.715  15.403 -0.9843 -0.8004 -1.9595
12602TIP3    H259298   3.930   0.742  15.426 -1.0717 -1.9340  0.0470
12603TIP3   OH259299   4.854   5.124   6.883 -0.0384  1.0066 -0.8128
12603TIP3    H159300   4.762   5.123   6.912 -0.7741 -0.5017 -3.0460
12603TIP3    H259301   4.882   5.214   6.897 -1.5634  1.2658  0.8088
12604TIP3   OH259302   1.783   2.859  14.829 -0.0586 -0.0819 -0.2102
12604TIP3    H159303   1.847   2.825  14.891  0.9418 -1.0186 -1.7142
12604TIP3    H259304   1.794   2.954  14.832  1.7387 -0.2651 -0.7999
12605TIP3   OH259305   2.006   1.650   0.482  0.7306  0.1027 -0.1040
12605TIP3    H159306   2.042   1.588   0.546 -1.0028 -0.8735 -0.0312
12605TIP3    H259307   2.066   1.724   0.484 -0.1310  0.7975  3.8642
12606TIP3   OH259308   5.091   0.614  13.731 -0.4381  0.5852  0.0996
12606TIP3    H159309   5.031   0.548  13.697  0.8117 -1.3932  1.6357
12606TIP3    H259310   5.170   0.604  13.680  0.5116 -0.6084  1.7535
12607TIP3   OH259311   6.372   1.836  10.782  0.0635 -0.2431  0.2094
12607TIP3    H159312   6.451   1.783  10.779 -0.3399 -0.7713 -2.1914
12607TIP3    H259313   6.317   1.796  10.849  0.8217 -1.3489  0.1711
12608TIP3   OH259314   0.795   3.354   0.428 -0.0184  0.1969 -0.2085
12608TIP3    H159315   0.760   3.438   0.456 -0.6747 -0.1733  0.0948
12608TIP3    H259316   0.890   3.365   0.430 -0.1110  1.0652 -0.6014
12609TIP3   OH259317   3.575   4.943   3.198 -0.2344 -0.8741  0.1530
12609TIP3    H159318   3.617   4.934   3.283  0.1183  0.1661  0.1023
12609TIP3    H259319   3.561   4.853   3.168 -1.3390 -1.2604  1.7647
12610TIP3   OH259320   3.785   5.472   0.698 -1.2413 -0.7242  0.6191
12610TIP3    H159321   3.781   5.550   0.643 -2.0571  1.4643  3.5868
12610TIP3    H259322   3.878   5.456   0.710 -1.0093  1.2036  1.7291
12611TIP3   OH259323   6.686   1.330  14.321  0.0297  0.5216  0.3018
12611TIP3    H159324   6.678   1.387  14.397 -0.3328  0.7132  0.1202
12611TIP3    H259325   6.640   1.376  14.251 -2.3915 -1.0754  0.7760
12612TIP3   OH259326   6.701   0.953  11.924  0.2173  0.4072 -0.6298
12612TIP3    H159327   6.620   0.926  11.880  0.3467 -0.3533 -0.4117
12612TIP3    H259328   6.764   0.965  11.853  0.5389 -1.2076 -0.6400
12613TIP3   OH259329   6.693   4.280   1.982  0.3975 -0.0078 -0.4221
12613TIP3    H159330   6.730   4.215   2.043  0.2327 -0.0668 -0.3863
12613TIP3    H259331   6.599   4.270   1.991  0.3662  0.7639  0.1519
12614TIP3   OH259332   6.787   2.827  13.680 -0.2253  0.0317  0.3348
12614TIP3    H159333   6.756   2.829  13.590  1.0308 -2.4498 -0.1931
12614TIP3    H259334   6.849   2.900  13.686  0.0058 -0.0476 -0.9406
12615TIP3   OH259335   3.742   1.356   4.485  0.1329  0.2852  0.3538
12615TIP3    H159336   3.710   1.267   4.476 -1.7316  0.9177  0.6193
12615TIP3    H259337   3.787   1.357   4.570  0.3444 -0.4494  0.2496
12616TIP3   OH259338   2.660   3.168   4.020 -0.3210  0.0598 -0.0394
12616TIP3    H159339   2.659   3.156   3.925  1.0158 -0.6810  0.0258
12616TIP3    H259340   2.719   3.241   4.036  0.2905 -0.4915  0.2770
12617TIP3   OH259341   2.084   5.559   0.096 -0.3276  0.4144  0.3560
12617TIP3    H159342   2.105   5.619   0.167 -0.5367  0.2879  0.5257
12617TIP3    H259343   2.010   5.508   0.128  0.1340 -0.2449  0.3852
12618TIP3   OH259344   1.022   2.252   6.659 -0.0011  0.5522  0.1558
12618TIP3    H159345   1.000   2.277   6.749  0.4728  2.9125 -0.3444
12618TIP3    H259346   1.096   2.193   6.667 -0.8159 -0.3152  1.3885
12619TIP3   OH259347   2.447   3.611   3.268  0.2454  0.0334 -0.1402
12619TIP3    H159348   2.422   3.613   3.175  0.1592  5.4059 -0.1258
12619TIP3    H259349   2.536   3.646   3.270 -0.4152  1.6596  1.9893
12620TIP3   OH259350   0.098   5.941  13.722  0.0281 -0.1185  0.1239
12620TIP3    H159351   0.070   5.857  13.685  0.3476 -0.2979  0.2948
12620TIP3    H259352   0.110   5.998  13.645  0.7546 -0.5112 -0.0503
12621TIP3   OH259353   4.131   5.570   2.838  0.1761 -0.2474  0.0774
12621TIP3    H159354   4.100   5.583   2.928  1.0665  0.2642  0.3132
12621TIP3    H259355   4.070   5.619   2.784 -1.0053 -1.4497  0.3122
12622TIP3   OH259356   4.542   1.808  17.112 -0.1077 -0.2023  0.0740
12622TIP3    H159357   4.551   1.900  17.089 -1.2061  0.3933  1.9067
12622TIP3    H259358   4.451   1.787  17.092 -0.3753 -0.3636  1.3788
12623TIP3   OH259359   3.681   6.404  12.511 -0.2727 -0.2181  0.0912
12623TIP3    H159360   3.705   6.406  12.604 -0.1363 -1.4303  0.0823
12623TIP3    H259361   3.637   6.321  12.499  1.1809 -0.8185 -1.2894
12624TIP3   OH259362   5.361   5.990  10.826  0.0003  0.4342  0.0458
12624TIP3    H159363   5.285   6.005  10.882 -0.3562  0.2683 -0.3951
12624TIP3    H259364   5.351   5.901  10.794  0.9687  0.0209  0.8832
12625TIP3   OH259365   6.776   1.642   6.431 -0.0257 -0.6654 -0.6314
12625TIP3    H159366   6.704   1.589   6.467  1.9578 -2.1858  1.2677
12625TIP3    H259367   6.733   1.706   6.375 -2.8037 -2.0098 -0.1389
12626TIP3   OH259368   1.486   2.672   2.475  0.4800 -0.0413  0.7727
12626TIP3    H159369   1.468   2.724   2.396 -2.8275  0.2203  1.6488
12626TIP3    H259370   1.485   2.582   2.445  1.1709  0.1285  0.2000
12627TIP3   OH259371   3.854   5.610  11.053 -0.2772 -0.4996  0.7178
12627TIP3    H159372   3.894   5.687  11.094 -1.3178  0.0840  0.6384
12627TIP3    H259373   3.852   5.630  10.960  2.0860 -1.8298  0.3609
12628TIP3   OH259374   6.391   2.631  12.353 -0.1899  0.0713  0.1190
12628TIP3    H159375   6.330   2.562  12.329  0.0957  0.4925 -1.8815
12628TIP3    H259376   6.362   2.708  12.303  1.2321  0.6076  0.0926
12629TIP3   OH259377   3.850   2.152   2.636  0.0349 -0.4149 -0.4489
12629TIP3    H159378   3.946   2.142   2.631 -0.0972 -2.7314  0.7320
12629TIP3    H259379   3.837   2.228   2.692  1.1927  1.1140 -2.2088
12630TIP3   OH259380   3.150   3.968  12.109 -0.0100  0.1087 -0.7559
12630TIP3    H159381   3.078   3.912  12.137 -1.0629  2.7482  2.0775
12630TIP3    H259382   3.122   4.002  12.024 -0.7766 -1.1699 -1.0167
12631TIP3   OH259383   3.519   1.880  16.049  0.2445 -0.2277  0.0234
12631TIP3    H159384   3.539   1.971  16.069 -2.2333  0.2989  0.2289
12631TIP3    H259385   3.503   1.879  15.954 -1.3459 -0.1129  0.2798
12632TIP3   OH259386   5.856   2.091   0.169 -0.0463 -0.0575  0.5292
12632TIP3    H159387   5.819   2.176   0.146  0.6214 -0.1556 -0.9541
12632TIP3    H259388   5.796   2.056   0.234 -2.2341  0.0943 -1.3348
12633TIP3   OH259389   3.277   5.326  12.026 -0.5028 -0.1985  0.3813
12633TIP3    H159390   3.185   5.299  12.035 -0.6119 -0.0216 -0.1811
12633TIP3    H259391   3.276   5.420  12.044 -0.2808 -0.3760  1.3273
12634TIP3   OH259392   6.681   3.623   1.150  0.1380 -0.3573 -0.4370
12634TIP3    H159393   6.636   3.629   1.066  0.5465 -1.2753 -0.7271
12634TIP3    H259394   6.653   3.539   1.186  1.9921 -1.1790 -0.8545
12635TIP3   OH259395   2.127   3.057   3.502  0.4082  0.2169 -0.5019
12635TIP3    H159396   2.075   3.023   3.429  0.4240  0.6160 -0.6995
12635TIP3    H259397   2.088   3.143   3.521 -1.8118 -1.2919  2.1915
12636TIP3   OH259398   1.780   1.950  15.969  0.2421  0.2054  0.1396
12636TIP3    H159399   1.697   1.972  15.928 -0.4914  0.6878  1.8122
12636TIP3    H259400   1.845   2.003  15.923 -0.5960  0.9712 -0.1623
12637TIP3   OH259401   2.496   3.873   3.737 -0.4681  0.1921  0.2294
12637TIP3    H159402   2.486   3.862   3.643 -1.9800 -1.4415  0.5534
12637TIP3    H259403   2.556   3.804   3.763 -1.0883 -0.2019  0.6399
12638TIP3   OH259404   2.143   5.446  16.760  0.1257 -0.0626 -0.0173
12638TIP3    H159405   2.048   5.452  16.750  0.1055  0.1528  0.2878
12638TIP3    H259406   2.172   5.537  16.767  0.3568 -0.1271 -0.1146
12639TIP3   OH259407   4.706   3.405  12.045 -0.5748  0.4411 -0.0626
12639TIP3    H159408   4.765   3.333  12.064 -1.9222 -0.8636 -0.6695
12639TIP3    H259409   4.665   3.381  11.962 -2.8753  0.6699  0.9520
12640TIP3   OH259410   3.759   0.605  14.521  0.4014 -0.0720  0.0699
12640TIP3    H159411   3.685   0.604  14.582  1.0061  0.6721  0.8260
12640TIP3    H259412   3.737   0.537  14.456 -1.3883  0.7935 -0.2708
12641TIP3   OH259413   5.577   0.788  12.025  0.1908 -1.0190  0.6503
12641TIP3    H159414   5.545   0.762  11.939  2.5852 -1.3518 -0.1718
12641TIP3    H259415   5.621   0.711  12.059 -0.9861 -0.9863  2.3342
12642TIP3   OH259416   6.490   1.417   2.998 -0.3601 -0.1671  0.3021
12642TIP3    H159417   6.524   1.477   2.932 -0.2344 -1.2021 -0.5849
12642TIP3    H259418   6.526   1.332   2.974 -1.1420 -0.7338  1.1083
12643TIP3   OH259419   6.049   5.091  11.199  0.5768  0.8436  0.2261
12643TIP3    H159420   6.102   5.103  11.278  1.9557  2.0979 -0.8818
12643TIP3    H259421   6.043   5.178  11.160  0.6094  0.0922 -1.5077
12644TIP3   OH259422   6.174   4.645   4.628  0.4689  0.0246  0.2318
12644TIP3    H159423   6.188   4.720   4.687 -1.0112  0.4142  0.1054
12644TIP3    H259424   6.080   4.630   4.630  0.8863 -2.8074  1.4245
12645TIP3   OH259425   3.907   3.989  15.029  0.0817 -0.3813  0.0660
12645TIP3    H159426   3.867   3.904  15.045 -0.2262 -0.4567 -1.0219
12645TIP3    H259427   3.848   4.052  15.071  0.8800 -0.7794  1.7915
12646TIP3   OH259428   3.209   1.015  13.241  0.4781 -0.2046  0.4356
12646TIP3    H159429   3.187   0.922  13.228  1.4037 -0.6240  1.7663
12646TIP3    H259430   3.162   1.060  13.171 -1.6373 -1.4533  0.9878
12647TIP3   OH259431   2.567   3.100  14.130 -0.3314 -0.1774  0.1800
12647TIP3    H159432   2.544   3.007  14.133  0.6793 -0.5114 -1.6990
12647TIP3    H259433   2.644   3.108  14.187  0.1184 -0.6694 -0.3495
12648TIP3   OH259434   1.315   0.504   2.546 -0.4581  0.3537 -0.2288
12648TIP3    H159435   1.257   0.436   2.578 -0.4906  0.5176  0.0662
12648TIP3    H259436   1.257   0.573   2.515 -0.4250  0.2994 -0.4107
12649TIP3   OH259437   2.642   2.757   2.390  0.3053 -0.3254  0.1514
12649TIP3    H159438   2.664   2.840   2.433 -0.1473 -0.8612  1.4581
12649TIP3    H259439   2.657   2.691   2.458 -1.8605 -1.0540 -0.0630
12650TIP3   OH259440   4.080   0.904   4.201 -0.1648 -0.3250 -0.2820
12650TIP3    H159441   4.063   0.810   4.191  1.0222 -0.2940 -2.9398
12650TIP3    H259442   4.147   0.908   4.269  0.6931 -1.5275 -1.0193
12651TIP3   OH259443   5.980   4.793   5.303  0.1879  0.6392 -0.0942
12651TIP3    H159444   5.908   4.757   5.355  1.0392 -0.2639  0.4857
12651TIP3    H259445   6.034   4.841   5.366 -0.2751  1.9049 -0.6510
12652TIP3   OH259446   6.739   2.725   6.364  0.1771 -0.4101  0.0496
12652TIP3    H159447   6.661   2.733   6.419  0.6693  0.4958  0.6303
12652TIP3    H259448   6.803   2.680   6.418  0.7700  0.7659  0.3495
12653TIP3   OH259449   0.323   6.816   2.221  0.6749 -0.2151 -0.0676
12653TIP3    H159450   0.403   6.805   2.273  0.8777  0.0324 -0.3211
12653TIP3    H259451   0.272   6.882   2.268  0.4801 -0.5961  0.2572
12654TIP3   OH259452   1.383   3.519   1.324 -0.1072  0.3429 -0.1174
12654TIP3    H159453   1.342   3.563   1.249 -1.5289  1.6441  1.3812
12654TIP3    H259454   1.315   3.460   1.356  0.8681 -0.9887 -0.4743
12655TIP3   OH259455   4.999   5.581  16.944  0.9941 -0.1395 -0.7399
12655TIP3    H159456   4.957   5.552  16.863  2.2242 -0.7842 -1.1570
12655TIP3    H259457   5.058   5.510  16.968  1.2010  0.3744  0.3081
12656TIP3   OH259458   1.293   3.336   2.227  0.1357 -0.0899 -0.4061
12656TIP3    H159459   1.216   3.381   2.262  0.6613 -0.3857  1.1567
12656TIP3    H259460   1.320   3.390   2.153 -1.1826  0.3717 -0.5778
12657TIP3   OH259461   3.245   4.351   6.158 -0.5443  0.3741 -0.2512
12657TIP3    H159462   3.233   4.272   6.211 -2.0925  0.5438 -0.3170
12657TIP3    H259463   3.215   4.422   6.214 -2.2972  0.5460 -1.3553
12658TIP3   OH259464   6.635   6.278  13.746  0.0215  0.0843  0.2163
12658TIP3    H159465   6.610   6.371  13.748 -1.9743 -0.4006 -1.1630
12658TIP3    H259466   6.701   6.273  13.678 -1.7995  0.0722 -1.5993
12659TIP3   OH259467   2.134   6.034  14.028 -0.3018 -0.5942 -0.6165
12659TIP3    H159468   2.213   6.075  14.065 -1.2925 -0.1747  1.0830
12659TIP3    H259469   2.164   5.948  13.998  0.9885 -0.1004 -0.7981
12660TIP3   OH259470   5.102   0.777  11.566  0.5443  0.2499 -0.2214
12660TIP3    H159471   5.081   0.684  11.553  1.5316 -0.1476  0.9644
12660TIP3    H259472   5.135   0.806  11.481  2.3260 -1.0691 -0.0138
12661TIP3   OH259473   5.157   1.524  16.800  0.0417  1.0801 -0.3496
12661TIP3    H159474   5.196   1.477  16.874  0.0281 -0.3762 -1.2428
12661TIP3    H259475   5.209   1.496  16.725 -1.9542  0.0575 -1.3764
12662TIP3   OH259476   5.963   0.147   3.578 -0.4114  0.1948 -0.5073
12662TIP3    H159477   5.917   0.103   3.506 -1.2164  2.5097 -1.4528
12662TIP3    H259478   5.910   0.126   3.656 -2.2292  1.5205 -1.3428
12663TIP3   OH259479   3.564   3.324  10.751  0.3544 -0.9505 -0.1712
12663TIP3    H159480   3.502   3.279  10.693 -1.0745  0.5638  0.1336
12663TIP3    H259481   3.590   3.402  10.701 -0.4071  0.0420  0.9729
12664TIP3   OH259482   4.756   2.230   3.738  0.2728  0.4252  0.0021
12664TIP3    H159483   4.800   2.168   3.680  0.0068  0.1720  0.0704
12664TIP3    H259484   4.717   2.294   3.679 -0.1440  0.0715 -0.1104
12665TIP3   OH259485   4.197   0.607   4.694  0.1098 -0.6447 -0.4125
12665TIP3    H159486   4.239   0.540   4.749 -0.4776 -2.2518 -1.8608
12665TIP3    H259487   4.103   0.594   4.708  0.0220  1.7688  1.4601
12666TIP3   OH259488   5.154   5.501   4.328  0.0945  0.2415 -0.2198
12666TIP3    H159489   5.085   5.563   4.303  0.0429  0.0167 -0.6486
12666TIP3    H259490   5.171   5.452   4.248  1.0087  0.5332 -0.2015
12667TIP3   OH259491   2.196   6.503  11.764 -0.4883  0.3063 -0.0124
12667TIP3    H159492   2.131   6.508  11.694 -1.2285  0.7260  0.6957
12667TIP3    H259493   2.241   6.587  11.761 -0.0181  0.0400 -0.4611
12668TIP3   OH259494   5.103   5.861   3.992  0.0655  0.3347  1.3555
12668TIP3    H159495   5.194   5.846   4.018  0.5513 -0.4976 -0.7326
12668TIP3    H259496   5.068   5.774   3.975 -0.2336  0.8180 -0.6883
12669TIP3   OH259497   1.933   3.525  10.565  0.3078 -0.7064 -0.1595
12669TIP3    H159498   1.856   3.547  10.513 -0.0613 -0.5455  0.4545
12669TIP3    H259499   2.004   3.573  10.523 -0.3185  0.8848  0.5718
12670TIP3   OH259500   3.253   5.292   5.778 -0.1040  0.7244  0.4881
12670TIP3    H159501   3.269   5.337   5.861 -0.7658  2.3531 -0.2292
12670TIP3    H259502   3.202   5.215   5.801  0.5794  0.6268  1.7072
12671TIP3   OH259503   3.343   1.367   5.828 -0.2317  0.2379 -0.1552
12671TIP3    H159504   3.323   1.444   5.882 -1.3290  0.2266 -0.5321
12671TIP3    H259505   3.430   1.340   5.857  0.4600  2.0305 -0.5076
12672TIP3   OH259506   4.513   2.893  12.995  0.0780  0.3942 -0.4161
12672TIP3    H159507   4.422   2.900  12.966 -0.4732  3.9137  1.7775
12672TIP3    H259508   4.510   2.838  13.073 -0.2419  0.8821 -0.0846
12673TIP3   OH259509   3.223   6.232   3.851 -0.3059  0.4073 -0.1505
12673TIP3    H159510   3.301   6.190   3.888 -0.1542  0.3225 -0.5744
12673TIP3    H259511   3.151   6.175   3.878 -0.2273  0.4849  0.2390
12674TIP3   OH259512   0.938   0.605  15.082 -0.3371 -0.3983  0.3993
12674TIP3    H159513   0.970   0.554  15.008  3.1183 -0.6762  1.9744
12674TIP3    H259514   1.001   0.677  15.092 -0.1817 -0.8701  3.5516
12675TIP3   OH259515   3.330   5.009  16.493  0.5393 -0.6719  0.3959
12675TIP3    H159516   3.405   5.034  16.546  0.5935 -0.7395  0.3527
12675TIP3    H259517   3.253   5.035  16.544  0.5787 -1.6443  0.9450
12676TIP3   OH259518   4.068   6.279   0.789  0.7107  0.3269  0.0494
12676TIP3    H159519   3.991   6.334   0.778 -0.9979 -1.8874  0.5146
12676TIP3    H259520   4.134   6.337   0.826 -0.5568  2.3968 -0.8691
12677TIP3   OH259521   1.836   5.820  13.229 -0.0466 -0.4055  0.1049
12677TIP3    H159522   1.899   5.752  13.202  0.2367 -0.3707  0.6775
12677TIP3    H259523   1.775   5.827  13.155  0.0976 -1.0712 -0.0756
12678TIP3   OH259524   0.804   6.525   4.787  0.5913 -0.5399  0.2380
12678TIP3    H159525   0.766   6.573   4.714  1.2125 -1.2686 -0.5640
12678TIP3    H259526   0.820   6.592   4.854 -0.8681 -0.0272  0.0887
12679TIP3   OH259527   4.498   0.371   6.430 -0.4096  0.2785 -0.4217
12679TIP3    H159528   4.459   0.457   6.444 -1.3971  0.2995 -2.9406
12679TIP3    H259529   4.428   0.309   6.447 -0.2900  0.0913 -0.5978
12680TIP3   OH259530   6.070   5.135  16.647  0.4084  0.8855  0.2144
12680TIP3    H159531   6.054   5.205  16.711  1.3647  0.1810  1.2402
12680TIP3    H259532   6.161   5.147  16.621  0.8372 -0.4798  1.0300
12681TIP3   OH259533   0.598   2.454   1.081 -0.1420 -0.2694 -0.2904
12681TIP3    H159534   0.601   2.475   1.174  2.1946 -0.6774 -0.2567
12681TIP3    H259535   0.517   2.495   1.050 -0.5995  0.4367  1.7653
12682TIP3   OH259536   6.351   6.212   3.456  0.4100 -0.0421 -0.0193
12682TIP3    H159537   6.329   6.213   3.549  2.2450 -1.0140  0.4691
12682TIP3    H259538   6.268   6.224   3.411 -1.1314 -3.4318  1.6853
12683TIP3   OH259539   2.319   0.747  11.350 -0.6355  1.0935  0.4089
12683TIP3    H159540   2.356   0.829  11.318 -0.4593  0.6682 -0.4928
12683TIP3    H259541   2.263   0.716  11.278 -0.2897  0.1670  0.5287
12684TIP3   OH259542   2.805   5.437  13.677  0.3122  0.0805 -0.0322
12684TIP3    H159543   2.820   5.345  13.657 -0.2868  0.1926 -1.0300
12684TIP3    H259544   2.761   5.437  13.763 -2.0223 -0.7173 -1.1804
12685TIP3   OH259545   2.691   0.090   2.978  0.2968 -0.0180  0.5248
12685TIP3    H159546   2.616   0.090   3.036 -0.0638  1.3487  0.0818
12685TIP3    H259547   2.654   0.078   2.890  0.8130 -1.7965  0.5281
12686TIP3   OH259548   1.836   2.574   1.027  0.2181  0.0172 -0.0603
12686TIP3    H159549   1.853   2.663   0.997 -0.4939  0.0172 -0.4744
12686TIP3    H259550   1.917   2.527   1.009  0.6948  0.6494  0.4278
12687TIP3   OH259551   6.492   1.281   6.226 -0.1887 -0.0737  0.5077
12687TIP3    H159552   6.555   1.353   6.228  1.4142 -1.3664 -1.0935
12687TIP3    H259553   6.495   1.244   6.314  0.0514  0.9230  0.9261
12688TIP3   OH259554   4.815   4.330  15.064 -0.3807  1.1031 -0.4750
12688TIP3    H159555   4.829   4.424  15.055 -0.3871  1.2280  0.7465
12688TIP3    H259556   4.826   4.313  15.158  1.7599 -0.4744 -0.9947
12689TIP3   OH259557   2.788   2.281   5.612 -0.2185  0.5181 -0.8327
12689TIP3    H159558   2.859   2.313   5.667  0.3798  0.4788 -1.5656
12689TIP3    H259559   2.819   2.295   5.522 -1.0010  0.2070 -1.1610
12690TIP3   OH259560   5.332   1.979   5.145  0.4149 -0.2213  0.3773
12690TIP3    H159561   5.296   1.890   5.149 -1.8652  0.6903  1.2016
12690TIP3    H259562   5.308   2.010   5.058  0.8527 -0.2804  0.2376
12691TIP3   OH259563   3.870   1.835   1.920  0.6500 -0.4474 -0.2915
12691TIP3    H159564   3.860   1.911   1.864 -1.6183 -2.1037 -2.2471
12691TIP3    H259565   3.842   1.761   1.865  0.1637 -2.3392  2.4128
12692TIP3   OH259566   4.992   6.375   0.863  0.3040  0.1051 -0.1267
12692TIP3    H159567   5.077   6.336   0.845 -0.2223 -1.8034  1.4158
12692TIP3    H259568   4.930   6.323   0.811 -0.2934 -0.5133  1.1943
12693TIP3   OH259569   4.353   2.732  11.381 -0.4990  0.1493 -0.4690
12693TIP3    H159570   4.291   2.668  11.345 -0.5397 -0.6442  0.9521
12693TIP3    H259571   4.355   2.712  11.475  1.8216  0.2519 -0.4781
12694TIP3   OH259572   0.946   4.904   2.692 -0.1603 -0.8457 -0.1105
12694TIP3    H159573   0.912   4.875   2.777 -0.6910 -1.2275 -0.4560
12694TIP3    H259574   1.034   4.866   2.688  0.2678  0.0046  0.7018
12695TIP3   OH259575   1.058   4.195  16.055  0.2255 -0.0761  0.0462
12695TIP3    H159576   1.105   4.270  16.091  0.3613  0.3095 -0.9251
12695TIP3    H259577   0.967   4.224  16.051  0.2758  0.0320 -0.3158
12696TIP3   OH259578   0.799   1.629   5.433  0.3076 -0.5842 -0.6515
12696TIP3    H159579   0.828   1.716   5.461 -1.0557 -0.2927 -0.1245
12696TIP3    H259580   0.744   1.597   5.505  0.7063 -1.8444 -0.8833
12697TIP3   OH259581   4.092   0.246   5.093  0.0424  0.2710 -0.5503
12697TIP3    H159582   4.057   0.166   5.133  2.7761 -0.4328  0.5527
12697TIP3    H259583   4.017   0.285   5.048 -1.8829 -1.7024  0.8320
12698TIP3   OH259584   2.525   0.815  16.303  0.0704 -0.5009 -0.0979
12698TIP3    H159585   2.474   0.871  16.245  0.3899  0.6145  0.6630
12698TIP3    H259586   2.463   0.788  16.371 -0.2727 -1.7052 -0.8808
12699TIP3   OH259587   4.096   0.083  13.396 -0.5825  0.3453  0.1523
12699TIP3    H159588   4.123   0.140  13.468  1.0338  1.3343 -1.2140
12699TIP3    H259589   4.049   0.140  13.336  1.8036  0.5055 -1.6603
12700TIP3   OH259590   1.952   3.764  11.625 -0.5750 -0.2587  0.2153
12700TIP3    H159591   1.893   3.690  11.611 -1.9175  0.8940 -0.3482
12700TIP3    H259592   1.895   3.834  11.656  0.5358  0.8284 -0.1822
12701TIP3   OH259593   5.559   4.888   2.998 -0.3936 -0.0004  0.0361
12701TIP3    H159594   5.603   4.968   3.027 -0.9044  0.3951 -0.2829
12701TIP3    H259595   5.488   4.876   3.060 -0.9529  0.3653 -0.5332
12702TIP3   OH259596   6.245   3.604  10.713  0.0250 -0.5241 -0.5257
12702TIP3    H159597   6.152   3.606  10.736  0.0631 -0.6116 -0.3681
12702TIP3    H259598   6.270   3.696  10.703  0.3595 -0.4236  1.1401
12703TIP3   OH259599   2.889   5.666  16.076  0.4559 -0.2779  0.0159
12703TIP3    H159600   2.915   5.592  16.021  1.0536 -0.1261  0.0884
12703TIP3    H259601   2.951   5.735  16.053 -1.1233  0.7398 -1.2404
12704TIP3   OH259602   2.448   0.666   5.030 -0.1797 -0.6277  0.0111
12704TIP3    H159603   2.423   0.756   5.048 -0.5286 -0.7663  0.2241
12704TIP3    H259604   2.407   0.615   5.100 -0.5126 -1.0255 -0.4649
12705TIP3   OH259605   3.524   5.133  15.880 -0.3646  0.4799 -0.1960
12705TIP3    H159606   3.429   5.141  15.865 -0.6402  0.9323  1.5536
12705TIP3    H259607   3.563   5.140  15.794 -2.0321 -1.2413 -1.1243
12706TIP3   OH259608   5.020   3.410  16.571 -0.1148  0.3142 -0.0398
12706TIP3    H159609   4.958   3.346  16.536  0.8577 -0.6018 -0.0977
12706TIP3    H259610   4.979   3.495  16.553 -2.1772 -0.3289  1.5249
12707TIP3   OH259611   6.752   1.529   2.854  0.2247  0.2304  0.4933
12707TIP3    H159612   6.768   1.442   2.818  1.5715  0.5421  0.3279
12707TIP3    H259613   6.817   1.539   2.924 -0.6214  0.6871  1.2287
12708TIP3   OH259614   6.614   5.298  13.798  0.4637 -0.1929  1.2629
12708TIP3    H159615   6.577   5.386  13.796 -0.4198 -0.5705  0.8195
12708TIP3    H259616   6.614   5.274  13.890 -0.9246 -0.4026  1.2181
12709TIP3   OH259617   4.974   2.004   4.491  0.0086 -0.1950  0.0600
12709TIP3    H159618   4.918   1.986   4.416  0.1477 -2.0644  0.3821
12709TIP3    H259619   4.954   2.095   4.515 -1.5473 -0.2607 -0.9284
12710TIP3   OH259620   5.856   3.918  15.076  0.2751 -0.2918  0.2274
12710TIP3    H159621   5.839   3.977  15.003 -1.3482 -0.1460  0.6918
12710TIP3    H259622   5.950   3.905  15.076  0.5051  1.2731 -0.6791
12711TIP3   OH259623   6.666   1.236  13.883  0.5896 -0.5289  0.0718
12711TIP3    H159624   6.583   1.282  13.871  0.4807 -0.1147  2.2838
12711TIP3    H259625   6.656   1.189  13.966  3.1894  0.9288  1.2636
12712TIP3   OH259626   5.715   0.687   0.555  0.3146 -0.5657 -0.1532
12712TIP3    H159627   5.752   0.771   0.528 -0.2575  0.6865  2.7188
12712TIP3    H259628   5.782   0.648   0.610 -0.8767 -0.2244  1.5994
12713TIP3   OH259629   4.530   0.813   4.862 -0.4509 -0.0578  0.1676
12713TIP3    H159630   4.474   0.885   4.833 -0.2009 -0.5779 -1.7177
12713TIP3    H259631   4.477   0.764   4.924 -0.4823  1.9651  1.7670
12714TIP3   OH259632   1.957   2.269   2.093 -0.5129 -0.5461  0.4754
12714TIP3    H159633   1.965   2.203   2.162  0.0965 -2.2753 -1.2206
12714TIP3    H259634   2.041   2.315   2.094 -0.6387 -0.3205  1.1087
12715TIP3   OH259635   4.274   3.484   5.152  0.4078  0.6452 -0.3570
12715TIP3    H159636   4.248   3.545   5.221  0.4351  0.5188 -0.2353
12715TIP3    H259637   4.247   3.527   5.071 -2.3499 -0.5716 -0.1209
12716TIP3   OH259638   2.380   3.911  14.220  0.1489  0.1988  0.1777
12716TIP3    H159639   2.365   3.995  14.177 -0.0875  0.5340  0.9088
12716TIP3    H259640   2.394   3.850  14.148  1.3638  1.0583 -0.3387
12717TIP3   OH259641   5.144   6.536  15.260  0.0091  0.0731  0.2091
12717TIP3    H159642   5.160   6.453  15.215  1.6311 -0.2238  1.2888
12717TIP3    H259643   5.178   6.603  15.200  1.6352 -0.2811  0.7110
12718TIP3   OH259644   2.816   1.437   2.573  0.0922 -0.6408 -0.5704
12718TIP3    H159645   2.857   1.359   2.608  0.0714 -0.3524  0.1103
12718TIP3    H259646   2.835   1.505   2.638 -0.7103 -0.3103 -0.6716
12719TIP3   OH259647   5.520   5.801  14.584  0.0424  0.2432 -0.2753
12719TIP3    H159648   5.582   5.772  14.651  0.2669 -0.1256 -0.6379
12719TIP3    H259649   5.467   5.723  14.567  0.5601  0.0843 -1.1622
12720TIP3   OH259650   4.652   4.496   6.054  0.3157  0.8212  0.3843
12720TIP3    H159651   4.623   4.443   5.979 -0.0592  0.6808  0.6271
12720TIP3    H259652   4.740   4.464   6.073 -0.3908 -0.6114  1.3380
12721TIP3   OH259653   4.975   1.231  12.232  0.7255  0.3324  0.2599
12721TIP3    H159654   4.980   1.201  12.141  1.6058 -1.0089  0.7161
12721TIP3    H259655   5.066   1.250  12.256  0.7304 -0.9620  1.3585
12722TIP3   OH259656   6.740   0.379   4.301 -0.2050  0.0394  0.0184
12722TIP3    H159657   6.801   0.446   4.333 -1.0369  0.5515  0.5508
12722TIP3    H259658   6.767   0.299   4.345  1.5128 -0.2362 -1.4769
12723TIP3   OH259659   3.258   2.369   0.088 -0.0368  0.1935 -0.0421
12723TIP3    H159660   3.239   2.453   0.130 -0.5341 -0.2664  0.6749
12723TIP3    H259661   3.222   2.303   0.149  0.5536 -0.5418 -0.4785
12724TIP3   OH259662   2.933   1.830  15.770  0.3262 -0.0774  0.6486
12724TIP3    H159663   2.882   1.854  15.693 -1.4404 -0.0224  1.8224
12724TIP3    H259664   3.022   1.819  15.737 -0.7523 -2.0280 -1.7857
12725TIP3   OH259665   2.781   6.614   3.616 -0.4943 -0.1108  0.0637
12725TIP3    H159666   2.788   6.693   3.563  2.1610 -0.5757 -0.3420
12725TIP3    H259667   2.778   6.542   3.553  2.1841 -0.6324  0.4593
12726TIP3   OH259668   4.405   5.429  16.022  0.9232  0.1761 -0.2512
12726TIP3    H159669   4.464   5.391  16.087  0.3571  2.5670  1.7523
12726TIP3    H259670   4.319   5.423  16.062  0.4352  0.8404 -1.1905
12727TIP3   OH259671   2.349   0.011  16.412  0.0298 -0.1168  0.1274
12727TIP3    H159672   2.281   0.067  16.374 -0.4412 -0.4897  0.4208
12727TIP3    H259673   2.417   0.007  16.345 -1.7277 -2.5376 -1.6024
12728TIP3   OH259674   0.557   0.999  11.984  0.2879  0.0494  0.0389
12728TIP3    H159675   0.492   0.972  12.049 -0.1934  0.4551 -0.2654
12728TIP3    H259676   0.516   0.979  11.900  0.2536  0.9865 -0.1718
12729TIP3   OH259677   4.322   1.611   2.916 -0.1398 -0.4342 -0.0131
12729TIP3    H159678   4.291   1.553   2.846  2.1029 -0.3638 -1.0944
12729TIP3    H259679   4.323   1.557   2.994 -0.2845 -1.2119 -0.5477
12730TIP3   OH259680   3.871   5.001   5.931 -0.0681 -0.1598 -0.1113
12730TIP3    H159681   3.837   4.942   5.864 -0.7998  0.3222 -0.1699
12730TIP3    H259682   3.798   5.013   5.992  1.0746 -1.8248  1.6229
12731TIP3   OH259683   6.355   0.532   2.967 -0.1181  0.3149 -0.0181
12731TIP3    H159684   6.306   0.450   2.970  1.1732 -0.4096  1.6971
12731TIP3    H259685   6.308   0.590   3.027 -0.0450  0.2879  0.0649
12732TIP3   OH259686   3.268   6.123  16.540 -0.2017 -0.3906  0.4370
12732TIP3    H159687   3.260   6.212  16.508  0.2736 -1.1093 -1.7104
12732TIP3    H259688   3.180   6.101  16.571  0.0842  1.4244  2.7363
12733TIP3   OH259689   6.483   5.286   5.127 -0.7130 -0.4687 -0.3384
12733TIP3    H159690   6.447   5.365   5.088 -2.5824 -1.8402 -1.4255
12733TIP3    H259691   6.471   5.218   5.061 -1.9939 -2.3651  1.7597
12734TIP3   OH259692   0.321   5.008   3.399  0.6320 -0.6458  0.0554
12734TIP3    H159693   0.406   4.982   3.435  0.5760 -2.0628 -0.7815
12734TIP3    H259694   0.293   4.932   3.347 -0.2144  0.5675 -1.3030
12735TIP3   OH259695   5.907   1.782   6.728 -0.0426  0.1536 -0.1651
12735TIP3    H159696   5.900   1.875   6.750 -0.1509 -0.5309  2.9102
12735TIP3    H259697   5.824   1.744   6.758  0.9923 -1.3210  0.8984
12736TIP3   OH259698   0.283   5.894   1.313 -0.4822  0.1357 -0.4216
12736TIP3    H159699   0.320   5.959   1.373  0.2896 -0.6170 -0.0723
12736TIP3    H259700   0.279   5.938   1.228 -0.7106  0.8971 -0.0201
12737TIP3   OH259701   6.026   2.184  12.997 -0.5575 -0.2196  0.0167
12737TIP3    H159702   6.105   2.215  13.040 -0.1058  0.6818 -1.4509
12737TIP3    H259703   6.025   2.090  13.014  0.8076 -0.2296  0.0582
12738TIP3   OH259704   5.892   1.768  13.681 -0.2558 -0.1945  0.5156
12738TIP3    H159705   5.968   1.823  13.661  1.1085 -1.2055  2.7690
12738TIP3    H259706   5.890   1.704  13.610 -0.6580  1.4902 -1.0297
12739TIP3   OH259707   2.087   0.460  16.099  0.4586  0.5403  0.4326
12739TIP3    H159708   2.088   0.504  16.184  2.4677 -0.9222  1.1922
12739TIP3    H259709   2.179   0.445  16.079 -0.0952 -1.2242 -0.9128
12740TIP3   OH259710   1.347   5.640   5.355 -0.2807 -0.0009  0.0463
12740TIP3    H159711   1.291   5.717   5.369 -0.7932 -0.8024  2.6746
12740TIP3    H259712   1.436   5.675   5.355 -0.5772  0.7670 -0.1141
12741TIP3   OH259713   1.419   5.539  14.277 -0.4536  0.7917  0.1643
12741TIP3    H159714   1.496   5.488  14.302 -1.9414 -1.6630 -0.0976
12741TIP3    H259715   1.407   5.602  14.348 -1.5557 -2.6020  3.0861
12742TIP3   OH259716   5.606   1.070  15.461 -0.3625 -0.2869  0.0815
12742TIP3    H159717   5.649   1.138  15.409 -0.6247  0.1961  0.4988
12742TIP3    H259718   5.525   1.051  15.414 -1.4566  1.4057  1.2441
12743TIP3   OH259719   0.701   6.262  13.301  0.6431  0.0957 -0.4562
12743TIP3    H159720   0.620   6.215  13.285 -0.5640  1.2538  1.9968
12743TIP3    H259721   0.674   6.353  13.315  2.2449  0.3175  1.3736
12744TIP3   OH259722   3.518   5.357   0.004  0.1146 -0.0655 -0.1942
12744TIP3    H159723   3.576   5.354   0.080 -1.4763 -0.0976  1.0398
12744TIP3    H259724   3.485   5.268  -0.005 -0.9198  0.2815  0.0503
12745TIP3   OH259725   5.582   1.198   2.478 -0.3207  0.7062  0.6526
12745TIP3    H159726   5.572   1.132   2.547  1.2607  0.5237  0.7461
12745TIP3    H259727   5.653   1.255   2.510 -0.0675  1.0492 -0.4893
12746TIP3   OH259728   1.064   5.265  17.118  0.7544  0.3918 -0.2810
12746TIP3    H159729   1.019   5.238  17.198  0.1640 -1.2978 -1.1521
12746TIP3    H259730   1.028   5.207  17.050  1.1979  1.8469 -1.7704
12747TIP3   OH259731   1.211   0.649  13.929 -0.0362 -0.7659 -0.4069
12747TIP3    H159732   1.157   0.603  13.994 -0.1960  0.6831  0.5134
12747TIP3    H259733   1.154   0.717  13.894  0.2855 -1.0785 -1.5618
12748TIP3   OH259734   4.757   3.277   2.270  0.0098 -0.5257  0.0284
12748TIP3    H159735   4.679   3.237   2.309 -1.1221  2.1471  0.6309
12748TIP3    H259736   4.780   3.348   2.330  1.7344 -0.0258 -1.1837
12749TIP3   OH259737   5.313   4.509   0.803 -0.0018  0.2521  0.0265
12749TIP3    H159738   5.259   4.437   0.836 -0.5094  0.1825 -0.9110
12749TIP3    H259739   5.399   4.471   0.790 -0.2322 -0.1486 -0.3278
12750TIP3   OH259740   5.265   1.203   1.261 -0.1116  0.6808 -0.2237
12750TIP3    H159741   5.275   1.231   1.170  0.7449 -0.0695 -0.3663
12750TIP3    H259742   5.197   1.260   1.296 -0.1500  1.2576 -1.2156
12751TIP3   OH259743   5.542   4.250  14.720  0.3923  0.4601 -0.5847
12751TIP3    H159744   5.487   4.211  14.788  1.7592 -0.5409 -0.0095
12751TIP3    H259745   5.600   4.309  14.768 -0.9011  2.3664 -1.3220
12752TIP3   OH259746   4.592   2.863  10.677  0.2221 -0.0141  0.7347
12752TIP3    H159747   4.499   2.872  10.697 -0.4352 -3.4833 -0.4673
12752TIP3    H259748   4.602   2.906  10.592 -0.4456 -0.2810  0.5144
12753TIP3   OH259749   3.664   3.871  16.586 -0.2131 -0.5316 -0.0007
12753TIP3    H159750   3.605   3.872  16.511 -1.2679  1.8533  0.8127
12753TIP3    H259751   3.746   3.908  16.553 -0.8509  1.0318  0.1282
12754TIP3   OH259752   4.966   0.652   1.384 -0.2964 -0.2057  0.5957
12754TIP3    H159753   4.899   0.605   1.336 -0.4518  0.4906  0.1333
12754TIP3    H259754   4.923   0.679   1.466 -0.6270  0.3624  0.2395
12755TIP3   OH259755   0.533   5.262   3.993 -0.6047  0.2867 -0.5700
12755TIP3    H159756   0.621   5.276   4.029 -1.1535 -2.0739  1.8931
12755TIP3    H259757   0.544   5.187   3.934 -1.0374 -0.4227  0.2303
12756TIP3   OH259758   3.117   4.832  12.690  0.1848 -0.3951 -0.2636
12756TIP3    H159759   3.084   4.806  12.776  0.3479  2.5240  0.7276
12756TIP3    H259760   3.038   4.841  12.636 -0.1501  0.6431  0.4008
12757TIP3   OH259761   5.137   6.405  13.763 -0.7117 -0.2131 -0.5590
12757TIP3    H159762   5.156   6.498  13.755 -1.0874 -0.2641 -2.1191
12757TIP3    H259763   5.218   6.366  13.796 -0.6281  0.6870  0.3229
12758TIP3   OH259764   4.310   0.174  11.342  0.2645  0.3449 -0.0903
12758TIP3    H159765   4.246   0.236  11.308 -0.5328  1.2672  2.9730
12758TIP3    H259766   4.390   0.193  11.292 -0.8370  1.6497 -1.4127
12759TIP3   OH259767   3.779   6.655   5.708 -0.2679  0.1485  0.2187
12759TIP3    H159768   3.847   6.596   5.676 -0.4847  0.5776 -1.0746
12759TIP3    H259769   3.810   6.683   5.794  0.5356 -0.7128  0.2171
12760TIP3   OH259770   0.791   5.155   1.155 -0.3954 -0.2094  0.1132
12760TIP3    H159771   0.777   5.063   1.133 -2.9101  0.1865 -0.1837
12760TIP3    H259772   0.877   5.176   1.119  0.0664 -2.3673 -0.0873
12761TIP3   OH259773   4.751   1.522   6.461 -0.0887  0.0119  0.3765
12761TIP3    H159774   4.845   1.509   6.453  0.0670  0.9012  0.7894
12761TIP3    H259775   4.714   1.466   6.392  0.7085 -0.6988  0.5183
12762TIP3   OH259776   1.983   3.389  11.610  0.3974 -0.1901  0.1309
12762TIP3    H159777   1.916   3.457  11.608  0.5506 -0.0800 -1.1703
12762TIP3    H259778   1.984   3.353  11.522  1.6955 -0.5448  0.2778
12763TIP3   OH259779   4.577   1.229  13.287  0.3158 -0.0165 -0.0446
12763TIP3    H159780   4.498   1.273  13.255 -0.1443 -0.3942  0.5927
12763TIP3    H259781   4.647   1.294  13.272 -0.0307  0.1457 -1.0233
12764TIP3   OH259782   4.450   1.879  11.693  0.2108 -0.2104  0.0328
12764TIP3    H159783   4.355   1.885  11.703  0.1808  0.4247 -0.5758
12764TIP3    H259784   4.473   1.955  11.639  1.0451 -0.4398  0.0585
12765TIP3   OH259785   1.332   2.266   2.963  0.0859 -0.0969  0.2681
12765TIP3    H159786   1.340   2.248   2.870  0.5940 -0.3723  0.3666
12765TIP3    H259787   1.294   2.354   2.967 -3.1556 -1.4198 -0.2104
12766TIP3   OH259788   5.619   0.710  11.742 -0.8389  0.3115  0.0269
12766TIP3    H159789   5.575   0.661  11.673 -0.2796  1.5151 -1.2140
12766TIP3    H259790   5.699   0.661  11.759 -0.2356  0.8070 -1.2723
12767TIP3   OH259791   0.930   1.646   1.330 -0.1737  0.5853  0.1482
12767TIP3    H159792   0.931   1.697   1.410  0.1528  1.2492 -0.2727
12767TIP3    H259793   0.946   1.555   1.358 -0.9126  0.6957  0.9077
12768TIP3   OH259794   6.684   1.965   2.451 -0.0200  0.2298  0.0737
12768TIP3    H159795   6.661   2.017   2.529  0.4435  0.0118  0.3566
12768TIP3    H259796   6.605   1.915   2.431 -0.4914  1.0746 -0.2266
12769TIP3   OH259797   4.973   2.143   1.990 -0.4714  0.7306  0.0515
12769TIP3    H159798   4.961   2.068   1.931 -0.1268  1.0945 -0.4812
12769TIP3    H259799   5.067   2.149   2.002 -0.6639 -1.1118  2.9291
12770TIP3   OH259800   1.917   3.709   2.365  0.3608 -0.5618 -0.4016
12770TIP3    H159801   1.915   3.799   2.398  2.7179 -0.3128 -0.8915
12770TIP3    H259802   1.825   3.684   2.361 -0.2275  1.1101  1.6870
12771TIP3   OH259803   5.977   0.756  14.520  0.0813  0.0812  0.2736
12771TIP3    H159804   5.927   0.705  14.456  0.0366 -0.3417  0.6453
12771TIP3    H259805   6.067   0.752  14.488 -0.2909  1.9529 -1.1308
12772TIP3   OH259806   6.492   1.791  13.108  0.0708  0.1883 -0.8158
12772TIP3    H159807   6.437   1.717  13.083  0.2222 -0.2102 -0.0097
12772TIP3    H259808   6.497   1.785  13.204  0.4274  0.9954 -0.7815
12773TIP3   OH259809   5.464   0.002  11.272 -0.1440 -0.5373  0.1120
12773TIP3    H159810   5.423   0.060  11.335  2.8919  2.6648 -0.6913
12773TIP3    H259811   5.437   0.035  11.187  0.7480 -0.9463 -0.3445
12774TIP3   OH259812   4.038   5.729  16.567  0.3933  0.5574  0.3624
12774TIP3    H159813   4.125   5.764  16.550 -0.3952  1.1954 -2.6324
12774TIP3    H259814   4.053   5.639  16.597  2.0981  1.0655  1.0762
12775TIP3   OH259815   5.445   6.776  11.646 -0.2870  0.5419 -0.0168
12775TIP3    H159816   5.400   6.758  11.729 -0.8030  1.0966 -0.1748
12775TIP3    H259817   5.437   6.694  11.597  0.0906  0.1839  0.5121
12776TIP3   OH259818   1.450   2.867   6.516  0.3667  0.0825 -0.0577
12776TIP3    H159819   1.442   2.960   6.495 -0.2304 -0.1503 -0.8867
12776TIP3    H259820   1.453   2.864   6.611 -4.2948  0.6143  0.2271
12777TIP3   OH259821   6.689   4.075  13.751 -0.3436  0.7861 -0.9284
12777TIP3    H159822   6.770   4.033  13.779 -0.9008 -0.2404 -0.8448
12777TIP3    H259823   6.717   4.161  13.717  0.6486  0.8764  0.0884
12778TIP3   OH259824   0.720   5.188   2.151 -0.4238 -0.0223 -0.0383
12778TIP3    H159825   0.778   5.264   2.153  0.3944 -0.5278 -2.5825
12778TIP3    H259826   0.777   5.114   2.174 -0.8214 -0.0962  0.7129
12779TIP3   OH259827   2.735   0.152  10.463  0.6130  0.4254  0.6665
12779TIP3    H159828   2.688   0.236  10.468 -0.1924 -0.1280  2.6756
12779TIP3    H259829   2.673   0.088  10.498  1.7996 -0.7853  0.5719
12780TIP3   OH259830   2.484   0.582  15.397  0.5684  0.6244 -0.0952
12780TIP3    H159831   2.432   0.511  15.360 -0.0045  1.0600 -0.1386
12780TIP3    H259832   2.429   0.660  15.387  1.7172  1.3089 -1.2166
12781TIP3   OH259833   2.963   3.298  12.088 -0.1064  0.0722  0.4230
12781TIP3    H159834   2.937   3.299  12.180  0.4746  0.8088  0.5801
12781TIP3    H259835   2.883   3.317  12.040 -1.0642 -3.1537  0.6143
12782TIP3   OH259836   6.305   2.312   5.959 -0.4091  0.0573 -0.3731
12782TIP3    H159837   6.315   2.238   5.899  0.7933 -0.0448 -0.0498
12782TIP3    H259838   6.262   2.379   5.906  2.7344  0.8063 -2.0873
12783TIP3   OH259839   1.950   1.193  13.622 -0.1504  0.9300  0.5053
12783TIP3    H159840   1.980   1.237  13.702  0.0371  1.3982  0.1771
12783TIP3    H259841   1.929   1.264  13.562  0.3158  0.5758 -0.0847
12784TIP3   OH259842   6.526   0.246   4.827  0.3869 -0.1468  0.0520
12784TIP3    H159843   6.583   0.242   4.905 -0.7281  1.6777  0.9852
12784TIP3    H259844   6.556   0.323   4.779  0.9677 -1.1786 -1.2838
12785TIP3   OH259845   5.038   6.202   5.722 -0.0216 -0.6233 -0.1665
12785TIP3    H159846   5.036   6.285   5.675 -1.4502 -0.6415 -0.1297
12785TIP3    H259847   5.039   6.135   5.654 -2.9862 -0.6755 -0.2047
12786TIP3   OH259848   3.467   4.825   1.308 -0.2127  0.0809  0.4005
12786TIP3    H159849   3.560   4.817   1.328 -0.3361  0.0722  0.9839
12786TIP3    H259850   3.446   4.747   1.258  0.5970  1.1754 -1.7034
12787TIP3   OH259851   0.168   1.212  12.630 -0.1198 -0.0990 -0.4787
12787TIP3    H159852   0.124   1.248  12.706  0.7455  2.3455 -1.0800
12787TIP3    H259853   0.129   1.126  12.617 -1.2097  0.0202  1.9098
12788TIP3   OH259854   2.535   2.905  16.491  0.4558  0.1468 -0.1061
12788TIP3    H159855   2.554   2.895  16.397 -0.7526  2.5252 -0.6515
12788TIP3    H259856   2.463   2.845  16.508  0.6623 -0.2764 -0.7144
12789TIP3   OH259857   0.126   6.291  11.296 -0.4141 -0.4596 -0.8123
12789TIP3    H159858   0.200   6.231  11.301  0.6861  1.0444  1.7252
12789TIP3    H259859   0.136   6.335  11.212  2.1153  0.3891 -0.0919
12790TIP3   OH259860   6.377   4.657  14.691  0.1464  0.5402  0.3218
12790TIP3    H159861   6.382   4.750  14.669  3.3344  0.4239  0.4133
12790TIP3    H259862   6.403   4.652  14.783 -0.0457 -0.4555  0.3301
12791TIP3   OH259863   5.606   1.306   6.154 -0.1153  0.0913  0.1243
12791TIP3    H159864   5.601   1.280   6.246  0.2093 -0.3096  0.0305
12791TIP3    H259865   5.684   1.261   6.121  0.1776  0.8134 -0.1619
12792TIP3   OH259866   4.520   6.363  16.131  0.0008  0.2086  0.8986
12792TIP3    H159867   4.439   6.317  16.153  0.2943 -1.0847 -0.6813
12792TIP3    H259868   4.572   6.358  16.211 -0.5771 -0.9082  1.2246
12793TIP3   OH259869   1.227   4.235   0.987 -0.0220 -0.0489  0.8133
12793TIP3    H159870   1.197   4.162   0.933  3.9676 -0.3443 -1.1511
12793TIP3    H259871   1.238   4.308   0.926 -2.1469  1.6891  2.4409
12794TIP3   OH259872   2.973   3.914  14.068  0.1727 -0.0421  0.3927
12794TIP3    H159873   2.974   3.818  14.067  0.8418 -0.0349 -0.8669
12794TIP3    H259874   3.045   3.939  14.010  1.0464  1.2384  1.9902
12795TIP3   OH259875   4.748   2.056  15.980 -0.3577 -0.2769 -0.5692
12795TIP3    H159876   4.807   2.071  15.905  0.6848 -0.7056  0.1474
12795TIP3    H259877   4.738   2.143  16.019 -1.2636  0.0248 -1.4653
12796TIP3   OH259878   5.895   4.057  13.762  0.8966  0.0217  0.4359
12796TIP3    H159879   5.832   4.067  13.833  0.4535 -0.6769  0.1477
12796TIP3    H259880   5.979   4.045  13.805  0.6927  0.0246  0.8348
12797TIP3   OH259881   6.742   4.437   5.058 -0.1475  0.0017  0.3544
12797TIP3    H159882   6.833   4.456   5.080 -0.3753 -0.3705  1.6598
12797TIP3    H259883   6.733   4.463   4.966  0.9894  1.0347  0.5277
12798TIP3   OH259884   1.826   2.689  10.734 -0.3171  0.1508 -0.1503
12798TIP3    H159885   1.861   2.767  10.777 -1.1016  1.1177 -1.2505
12798TIP3    H259886   1.773   2.647  10.802 -0.9483  1.2671  0.0601
12799TIP3   OH259887   3.611   3.574   1.327  0.1915  0.0716  0.3878
12799TIP3    H159888   3.609   3.520   1.406  1.9215  0.7168  0.9002
12799TIP3    H259889   3.551   3.646   1.344 -1.6650 -1.3184 -0.0549
12800TIP3   OH259890   3.408   0.845  16.213 -0.5551  0.3980  0.0147
12800TIP3    H159891   3.485   0.873  16.164 -0.9803  0.4389 -0.6473
12800TIP3    H259892   3.396   0.753  16.188 -1.3721  0.7047 -0.7728
12801TIP3   OH259893   2.508   2.952  17.172 -0.0834  0.1250 -0.0319
12801TIP3    H159894   2.443   3.020  17.155 -3.5834 -2.8712  0.4934
12801TIP3    H259895   2.548   2.977  17.256 -1.4772  1.3926  0.2819
12802TIP3   OH259896   5.398   6.711   5.716 -0.0433  0.3639  0.5063
12802TIP3    H159897   5.489   6.707   5.685 -0.0668  1.6510  0.2681
12802TIP3    H259898   5.368   6.620   5.712  1.2462 -0.0833  0.6210
12803TIP3   OH259899   0.177   3.669  14.126 -0.1561 -0.5599 -0.2631
12803TIP3    H159900   0.191   3.583  14.165  0.2682 -0.5079 -0.3060
12803TIP3    H259901   0.125   3.716  14.191  0.5404 -0.4756  0.2363
12804TIP3   OH259902   0.881   1.883   0.707 -0.1082  0.0519 -0.0730
12804TIP3    H159903   0.840   1.809   0.752 -1.1972 -0.9791 -2.6882
12804TIP3    H259904   0.807   1.936   0.676  0.6171  0.1239 -1.6797
12805TIP3   OH259905   2.678   6.709   3.851  0.3806 -0.0832 -0.0532
12805TIP3    H159906   2.631   6.627   3.866 -1.5965  0.7233 -1.6556
12805TIP3    H259907   2.735   6.692   3.776 -0.1977  0.0866 -0.5277
12806TIP3   OH259908   1.578   3.041  12.161 -0.4395  0.6831  0.4074
12806TIP3    H159909   1.545   3.083  12.082 -0.1511  0.8448  0.3690
12806TIP3    H259910   1.514   3.063  12.229  0.1837  1.9785  0.5959
12807TIP3   OH259911   2.167   3.255  15.527  0.2433  0.1314 -0.4962
12807TIP3    H159912   2.077   3.237  15.554 -0.2419  0.5766 -1.7731
12807TIP3    H259913   2.220   3.228  15.602 -0.9257 -0.4171  0.1568
12808TIP3   OH259914   3.655   5.108  16.356 -0.0823  0.0308 -0.2321
12808TIP3    H159915   3.682   5.195  16.326 -0.8658  0.8208  1.3321
12808TIP3    H259916   3.610   5.070  16.280 -0.2240  1.1964 -0.7561
12809TIP3   OH259917   3.621   4.590   5.191 -0.0193 -0.2223  0.0763
12809TIP3    H159918   3.679   4.647   5.240  0.6815 -2.8805  2.4709
12809TIP3    H259919   3.675   4.513   5.170 -1.1113 -0.3640 -2.4962
12810TIP3   OH259920   3.291   3.406  13.419  0.1860  0.6240  0.4681
12810TIP3    H159921   3.299   3.319  13.381 -0.6691  0.5949  0.3384
12810TIP3    H259922   3.215   3.444  13.375  0.5977  1.4622  0.4665
12811TIP3   OH259923   1.665   2.649   1.378 -0.2053  0.1861 -0.0613
12811TIP3    H159924   1.577   2.614   1.367  0.0990 -0.4309 -0.5529
12811TIP3    H259925   1.708   2.633   1.294 -0.1992  2.1740 -0.4654
12812TIP3   OH259926   5.095   2.404   0.200  0.8068 -0.3877 -0.4314
12812TIP3    H159927   5.079   2.371   0.112 -1.9101 -0.5540  0.0711
12812TIP3    H259928   5.008   2.408   0.240  1.9949 -0.4317  2.2784
12813TIP3   OH259929   3.615   6.421  12.785 -0.1483  0.3675 -0.3259
12813TIP3    H159930   3.542   6.480  12.802  2.0961  2.1392  3.7109
12813TIP3    H259931   3.590   6.338  12.825 -0.3119  0.6855  0.2212
12814TIP3   OH259932   2.242   1.732   3.603  0.6483 -0.2538  0.1845
12814TIP3    H159933   2.171   1.703   3.546  1.9012  1.9758 -2.6801
12814TIP3    H259934   2.215   1.819   3.633  0.8027 -0.6769  1.5570
12815TIP3   OH259935   3.228   6.316   4.812 -0.7835  0.0979  0.4968
12815TIP3    H159936   3.163   6.339   4.746 -0.5280  1.0284  0.5606
12815TIP3    H259937   3.186   6.336   4.896 -0.1038  1.5781  0.5091
12816TIP3   OH259938   4.661   4.692  15.954  0.1995 -0.4142  0.1304
12816TIP3    H159939   4.640   4.718  15.864  0.9172 -2.9499 -0.7951
12816TIP3    H259940   4.756   4.704  15.961  0.0723  0.2726  0.7254
12817TIP3   OH259941   6.014   1.952   2.444 -0.2449  0.3318  0.5365
12817TIP3    H159942   6.003   1.990   2.357 -1.8476  0.1312  0.6231
12817TIP3    H259943   6.077   2.008   2.487  4.8393 -2.6267 -2.5390
12818TIP3   OH259944   5.702   1.219  11.972 -0.8040  0.3662 -0.1158
12818TIP3    H159945   5.739   1.301  12.004 -0.7661  0.8555 -1.3869
12818TIP3    H259946   5.777   1.162  11.959 -0.9615 -0.4185  2.2622
12819TIP3   OH259947   1.027   3.480   0.380  0.4870 -0.4561  0.1943
12819TIP3    H159948   1.112   3.437   0.390  0.3771 -0.2817  1.9739
12819TIP3    H259949   1.028   3.551   0.444 -0.0364  1.1153 -1.4847
12820TIP3   OH259950   1.155   1.835  10.956  0.5312  0.1481  0.5399
12820TIP3    H159951   1.211   1.785  11.015  1.4779 -1.2770 -1.5163
12820TIP3    H259952   1.172   1.927  10.979  0.5502 -0.3984  2.7440
12821TIP3   OH259953   2.947   4.444   2.220  1.0497  0.3081  0.0002
12821TIP3    H159954   2.892   4.414   2.148  1.6328  2.0379 -1.2167
12821TIP3    H259955   2.896   4.513   2.262  0.8665 -0.4448  1.0352
12822TIP3   OH259956   2.553   2.069  15.979  0.4690 -0.1818  0.2523
12822TIP3    H159957   2.459   2.087  15.982  0.5615  0.4813 -0.3632
12822TIP3    H259958   2.576   2.083  15.887  1.4958  1.4331  0.7310
12823TIP3   OH259959   2.307   4.259  15.517  0.1626 -0.2402 -0.4830
12823TIP3    H159960   2.262   4.185  15.475 -1.2650  0.2095  0.2168
12823TIP3    H259961   2.334   4.224  15.602 -0.6466  0.0776 -0.0906
12824TIP3   OH259962   1.520   6.054   1.282 -1.3928  0.2498 -0.4038
12824TIP3    H159963   1.588   5.992   1.254  0.3858  1.5829  0.8629
12824TIP3    H259964   1.444   6.031   1.229 -0.5329 -2.4906 -0.5610
12825TIP3   OH259965   3.757   4.366  13.131 -0.1351  0.0408 -0.4354
12825TIP3    H159966   3.765   4.294  13.068  1.0767 -0.6962  0.5245
12825TIP3    H259967   3.841   4.366  13.178  0.6543  3.3267 -1.7262
12826TIP3   OH259968   0.869   4.585   6.583  0.8115 -0.1952 -0.3693
12826TIP3    H159969   0.899   4.667   6.623  1.0699 -0.1170 -0.7157
12826TIP3    H259970   0.892   4.517   6.647  1.6467 -0.1238 -0.5904
12827TIP3   OH259971   5.646   0.118   4.639 -0.0637 -0.4392  0.2479
12827TIP3    H159972   5.555   0.104   4.614  0.6827 -1.4889 -1.9512
12827TIP3    H259973   5.641   0.182   4.711 -2.5308 -0.7405  0.3998
12828TIP3   OH259974   3.615   5.133  10.494  0.3549  0.3138 -0.4852
12828TIP3    H159975   3.538   5.146  10.548  1.5246  1.1759  1.0157
12828TIP3    H259976   3.591   5.169  10.408 -0.8458  0.6807 -0.0007
12829TIP3   OH259977   4.416   4.149   2.361  0.2469 -0.4169 -0.7503
12829TIP3    H159978   4.430   4.228   2.309 -0.2800  1.2845  1.6235
12829TIP3    H259979   4.501   4.131   2.402 -0.0260 -0.1524 -0.0564
12830TIP3   OH259980   0.630   4.647  15.070  0.0629 -0.2878  0.6600
12830TIP3    H159981   0.607   4.632  15.162  1.1787 -0.7883  0.8719
12830TIP3    H259982   0.567   4.597  15.020 -1.5069  1.2029  1.1019
12831TIP3   OH259983   3.431   4.321   1.351 -0.2172 -0.3318  0.4225
12831TIP3    H159984   3.505   4.325   1.411  0.3295  1.2044 -0.3241
12831TIP3    H259985   3.462   4.268   1.278 -0.4860 -1.2238  0.9518
12832TIP3   OH259986   5.633   0.778   1.143 -0.2873  0.0344 -0.1561
12832TIP3    H159987   5.662   0.724   1.069 -0.0575 -1.3096  0.9157
12832TIP3    H259988   5.705   0.840   1.156 -0.3126  0.2626 -1.0267
12833TIP3   OH259989   3.064   4.789  17.241  0.2567 -0.0482 -0.6420
12833TIP3    H159990   3.125   4.732  17.195 -1.3385 -0.8102 -1.8785
12833TIP3    H259991   2.980   4.774  17.197 -0.8444  0.8533  1.1024
12834TIP3   OH259992   6.585   4.174   0.865 -0.0545 -0.1673 -0.0333
12834TIP3    H159993   6.667   4.208   0.901  0.5754 -0.6954 -0.9513
12834TIP3    H259994   6.582   4.083   0.894 -0.4225 -0.0900  0.1738
12835TIP3   OH259995   6.780   5.400   5.701  0.1620  0.3013  0.3555
12835TIP3    H159996   6.847   5.461   5.734  1.5841 -0.5845 -0.8224
12835TIP3    H259997   6.697   5.445   5.717  1.1199  2.0437  0.5845
12836TIP3   OH259998   0.012   4.108   5.226 -1.0299 -0.4361 -0.5530
12836TIP3    H159999   0.104   4.131   5.218 -1.4853  0.9648 -2.1384
12836TIP3    H260000   0.009   4.014   5.209  0.0105 -0.3431 -1.2878
12837TIP3   OH260001   1.793   0.885   1.570  0.7723 -0.4493 -0.4318
12837TIP3    H160002   1.760   0.955   1.515 -0.6345 -1.2893 -0.6898
12837TIP3    H260003   1.870   0.852   1.524 -0.4030 -1.1586 -1.9491
12838TIP3   OH260004   3.199   0.547   2.343 -0.1978  0.0036  0.0429
12838TIP3    H160005   3.204   0.603   2.420 -0.0056 -0.9125  0.7018
12838TIP3    H260006   3.239   0.599   2.273 -0.3388  0.8246  0.5647
12839TIP3   OH260007   5.294   6.329  16.402  0.6419  0.7224  0.4609
12839TIP3    H160008   5.359   6.265  16.373 -1.6410 -1.7346  0.5253
12839TIP3    H260009   5.314   6.345  16.494  0.3272 -1.1273  0.8752
12840TIP3   OH260010   1.563   5.982  11.680 -0.1150  0.5506  0.1798
12840TIP3    H160011   1.639   6.036  11.658  0.1696  0.5857  1.2440
12840TIP3    H260012   1.498   6.004  11.613  0.2925  1.5916  0.1208
12841TIP3   OH260013   6.395   5.818   5.879 -0.2217 -0.3601  0.3263
12841TIP3    H160014   6.406   5.724   5.897  0.6672 -0.1835  0.7452
12841TIP3    H260015   6.475   5.842   5.831 -0.3074  0.2527  0.4928
12842TIP3   OH260016   5.329   4.022  16.371  1.4815  0.0229  0.8950
12842TIP3    H160017   5.318   4.117  16.377 -1.2528 -0.2077  0.3956
12842TIP3    H260018   5.306   3.990  16.458  1.3380 -0.2484  0.7587
12843TIP3   OH260019   6.285   6.018   0.245  0.2621  0.1844  0.1269
12843TIP3    H160020   6.300   6.084   0.312 -1.4499 -1.9775  2.7457
12843TIP3    H260021   6.347   5.949   0.265 -2.1266 -1.7053  1.2692
12844TIP3   OH260022   3.433   4.640  16.638 -0.2135  0.3029  0.1253
12844TIP3    H160023   3.385   4.693  16.574 -0.0272  0.1740 -0.1217
12844TIP3    H260024   3.514   4.688  16.654 -0.2810  0.3586  0.3011
12845TIP3   OH260025   5.084   0.295  14.050  0.3480 -0.6245 -0.0177
12845TIP3    H160026   5.015   0.266  14.110 -1.9051 -1.7296 -3.0151
12845TIP3    H260027   5.046   0.283  13.963  2.3109  3.9415 -1.6259
12846TIP3   OH260028   0.040   2.513  13.822  0.1328  0.9705  0.4673
12846TIP3    H160029   0.117   2.508  13.766 -1.7438 -0.3179 -2.1569
12846TIP3    H260030   0.018   2.606  13.825  1.1689  1.2207  0.3601
12847TIP3   OH260031   4.601   4.005  14.382  0.0760  0.7429 -0.2604
12847TIP3    H160032   4.576   4.012  14.474  0.7767  2.0161 -0.1474
12847TIP3    H260033   4.609   3.911  14.366  0.7308  0.5384  1.1916
12848TIP3   OH260034   2.941   3.705   0.964  0.3446 -0.2580 -0.3348
12848TIP3    H160035   2.952   3.725   1.057  0.4974  1.9711 -0.7989
12848TIP3    H260036   3.015   3.648   0.943  1.5170  0.9327  0.4550
12849TIP3   OH260037   1.928   6.023   6.255  0.1187  0.0076  0.4902
12849TIP3    H160038   1.904   6.073   6.177 -0.1279 -1.2173 -0.2298
12849TIP3    H260039   1.947   5.935   6.222  1.1864 -0.2103  1.6476
12850TIP3   OH260040   0.862   4.040  17.069 -0.8721  0.3976 -0.0168
12850TIP3    H160041   0.820   4.079  17.146 -0.2627  0.9115  0.0540
12850TIP3    H260042   0.920   3.973  17.105  0.7148  1.7903  0.1091
12851TIP3   OH260043   3.870   1.809  13.249  0.1584 -0.2228 -0.1817
12851TIP3    H160044   3.961   1.814  13.220  0.0387  1.5553 -0.2932
12851TIP3    H260045   3.871   1.843  13.339 -0.3542 -0.4365 -0.0916
12852TIP3   OH260046   4.157   6.222  13.453  0.1466 -0.2611 -0.1380
12852TIP3    H160047   4.212   6.262  13.386 -1.2852  3.2284  0.6586
12852TIP3    H260048   4.208   6.228  13.533 -0.1544  0.1885  0.0222
12853TIP3   OH260049   5.312   5.663   2.824 -0.0367  0.6816  0.3920
12853TIP3    H160050   5.225   5.630   2.848  0.4765 -1.1759 -0.1909
12853TIP3    H260051   5.372   5.596   2.857  1.1561  1.8069  0.5277
12854TIP3   OH260052   4.756   1.855   2.395  0.0202 -0.3310  0.0460
12854TIP3    H160053   4.786   1.944   2.379  0.4743 -0.8055 -1.8384
12854TIP3    H260054   4.719   1.826   2.312 -0.7324 -1.6838  0.8164
12855TIP3   OH260055   6.062   0.668  12.506  0.5287 -0.2431  0.0681
12855TIP3    H160056   5.992   0.692  12.446  0.3292  0.0701  0.4280
12855TIP3    H260057   6.023   0.603  12.564  1.0319 -1.3816 -0.8312
12856TIP3   OH260058   2.595   1.960  14.287 -0.0640 -0.0861  0.3775
12856TIP3    H160059   2.541   2.015  14.344 -2.2201 -0.5712 -1.1478
12856TIP3    H260060   2.557   1.872  14.295 -0.3230 -0.1880 -1.6805
12857TIP3   OH260061   0.222   4.611   2.144 -0.0548 -1.4353 -0.1790
12857TIP3    H160062   0.239   4.654   2.228 -0.5562 -0.5584 -0.5140
12857TIP3    H260063   0.229   4.518   2.163  1.7024 -1.2065  0.4360
12858TIP3   OH260064   5.774   2.792  11.678  0.1025  0.1795  0.3568
12858TIP3    H160065   5.763   2.725  11.611 -0.9675  3.0837 -2.5222
12858TIP3    H260066   5.865   2.784  11.706  0.3687 -1.5047 -0.9661
12859TIP3   OH260067   4.297   0.573   5.894  0.4316 -0.7923  0.2112
12859TIP3    H160068   4.213   0.565   5.939  0.8845  0.2544  1.2887
12859TIP3    H260069   4.276   0.566   5.801 -0.2755 -5.0871  0.6291
12860TIP3   OH260070   4.233   3.803   5.122  0.4788 -0.5121  0.5996
12860TIP3    H160071   4.165   3.782   5.186  0.8067 -0.4432  0.9714
12860TIP3    H260072   4.185   3.842   5.049 -0.1131 -2.4753 -0.0656
12861TIP3   OH260073   3.473   1.599   2.747 -0.0403 -0.0007  0.3454
12861TIP3    H160074   3.514   1.680   2.778 -0.1588  0.8889 -1.7045
12861TIP3    H260075   3.502   1.532   2.807 -0.5540  1.7071  2.5720
12862TIP3   OH260076   2.935   5.672   5.222  1.1524 -0.0537 -0.7843
12862TIP3    H160077   2.855   5.620   5.220 -0.0618  1.7834 -2.1404
12862TIP3    H260078   2.982   5.641   5.299 -0.6182 -1.5259 -0.2594
12863TIP3   OH260079   5.740   6.522   5.994 -0.0207  0.1805 -0.1412
12863TIP3    H160080   5.753   6.493   6.085  0.2197 -0.3581 -0.3439
12863TIP3    H260081   5.828   6.544   5.963 -0.1790  0.9403 -0.0557
12864TIP3   OH260082   6.151   6.276   4.295  0.4250 -0.4011  0.1231
12864TIP3    H160083   6.093   6.231   4.234  0.8698 -0.5652 -0.1795
12864TIP3    H260084   6.092   6.327   4.351  0.1731  2.2998 -2.4862
12865TIP3   OH260085   3.165   2.646  12.249 -0.2161 -0.0683 -0.3210
12865TIP3    H160086   3.237   2.586  12.230  0.0148  0.3107 -0.6379
12865TIP3    H260087   3.152   2.695  12.168  1.5686  2.3781  0.8245
12866TIP3   OH260088   3.650   4.788  16.664 -0.4709 -0.1037 -0.1852
12866TIP3    H160089   3.680   4.775  16.573 -1.4367 -0.2916 -0.4811
12866TIP3    H260090   3.720   4.750  16.717 -0.3531 -0.8975 -0.8803
12867TIP3   OH260091   2.395   3.447   1.062  0.6099  0.2414 -0.4459
12867TIP3    H160092   2.373   3.426   1.153 -0.0764 -0.5241 -0.7748
12867TIP3    H260093   2.489   3.433   1.056  0.3849 -1.4976 -0.2987
12868TIP3   OH260094   6.467   4.715  14.320 -0.7671  0.0004 -0.1145
12868TIP3    H160095   6.396   4.761  14.275 -0.0106 -0.4923 -1.8332
12868TIP3    H260096   6.517   4.784  14.363 -0.9048  0.5558 -0.8535
12869TIP3   OH260097   6.716   2.100   0.369 -0.0730 -0.0820 -0.0661
12869TIP3    H160098   6.737   2.008   0.388  1.5285  0.1677 -0.5755
12869TIP3    H260099   6.760   2.118   0.286 -1.5489  0.7516 -0.6906
12870TIP3   OH260100   5.752   6.123   5.464 -0.1053  0.0757 -0.5425
12870TIP3    H160101   5.690   6.052   5.483  0.5690  0.0882  1.8530
12870TIP3    H260102   5.838   6.080   5.468  0.3504  1.1034  1.5651
12871TIP3   OH260103   5.088   2.327   2.957  0.0339 -0.1637  0.6817
12871TIP3    H160104   5.018   2.328   2.892 -2.1540 -1.0020  2.9690
12871TIP3    H260105   5.124   2.238   2.952  2.2296  0.7761 -1.7389
12872TIP3   OH260106   6.122   1.757  16.708 -0.1806  0.5150  0.3420
12872TIP3    H160107   6.184   1.698  16.665  0.4840  0.4759  1.3419
12872TIP3    H260108   6.083   1.704  16.777 -0.3520  0.9352  0.5674
12873TIP3   OH260109   3.304   1.158  14.850 -0.4651 -0.3029 -0.0776
12873TIP3    H160110   3.361   1.186  14.778 -1.4098 -0.8120 -1.0378
12873TIP3    H260111   3.255   1.083  14.814 -2.6030  0.8565  0.3090
12874TIP3   OH260112   5.107   0.292   2.607 -0.3599  0.2247  0.2926
12874TIP3    H160113   5.197   0.305   2.637 -0.9874  0.6333  2.0605
12874TIP3    H260114   5.082   0.207   2.643 -0.5130 -0.1443 -0.6549
12875TIP3   OH260115   3.746   3.933   6.583  0.1475  0.1916 -0.6941
12875TIP3    H160116   3.656   3.950   6.555 -0.2474  0.3675  0.6194
12875TIP3    H260117   3.780   3.870   6.519 -1.2844 -0.7347 -0.5732
12876TIP3   OH260118   2.494   1.540  14.512 -0.2738  0.6178 -0.2986
12876TIP3    H160119   2.421   1.528  14.573  1.0072 -1.1435  0.9312
12876TIP3    H260120   2.496   1.459  14.461  0.6966  0.7348 -0.4553
12877TIP3   OH260121   3.404   2.521   4.886  0.4449 -0.5958 -0.6784
12877TIP3    H160122   3.352   2.599   4.865  0.7695  0.3784  2.0519
12877TIP3    H260123   3.341   2.460   4.923  0.9651  0.0474  1.2976
12878TIP3   OH260124   6.575   6.353   3.592 -0.3821 -0.2742  0.1388
12878TIP3    H160125   6.570   6.266   3.631 -0.2832 -0.2533  0.1988
12878TIP3    H260126   6.495   6.397   3.622 -0.9950 -0.7244 -0.8227
12879TIP3   OH260127   3.129   0.445  16.802 -0.1253  0.0195  0.4066
12879TIP3    H160128   3.052   0.393  16.825 -0.0106 -0.0052  0.7483
12879TIP3    H260129   3.187   0.384  16.757  0.1323 -0.2246  1.0650
12880TIP3   OH260130   4.200   4.906   5.089 -0.7904 -0.2479 -0.0537
12880TIP3    H160131   4.209   4.946   5.003  0.5532 -0.4742 -0.0210
12880TIP3    H260132   4.287   4.912   5.128 -1.0533 -1.4087  0.7357
12881TIP3   OH260133   2.141   2.970  15.633  0.6246 -0.2396 -0.0679
12881TIP3    H160134   2.108   2.961  15.723 -1.0138  0.7549 -0.5609
12881TIP3    H260135   2.223   2.920  15.633  0.0532 -1.2290  1.6704
12882TIP3   OH260136   3.659   6.641   4.011  0.0084  0.2182  0.1151
12882TIP3    H160137   3.701   6.679   4.088  0.6677 -0.3860  0.0574
12882TIP3    H260138   3.723   6.577   3.978 -0.6667 -0.2084 -0.3737
12883TIP3   OH260139   6.105   5.349  16.800 -0.1699  0.1398  0.2497
12883TIP3    H160140   6.188   5.334  16.845  0.1409 -0.7541 -0.6090
12883TIP3    H260141   6.057   5.407  16.858  0.9151  0.3808  0.9266
12884TIP3   OH260142   3.555   3.987   4.026  0.2498 -0.1065 -0.6528
12884TIP3    H160143   3.623   3.929   3.994  0.5933  0.1350 -0.3665
12884TIP3    H260144   3.562   3.981   4.122 -1.5538 -1.7604 -0.5943
12885TIP3   OH260145   3.174   5.617   2.163  0.3025 -0.0413 -0.0535
12885TIP3    H160146   3.081   5.594   2.160  0.4664 -0.4591 -2.4605
12885TIP3    H260147   3.202   5.591   2.251 -1.9511  0.5608  0.8912
12886TIP3   OH260148   3.082   5.681  12.591  0.5469 -0.8900 -0.8878
12886TIP3    H160149   3.037   5.606  12.631  0.9137 -1.1227 -0.9061
12886TIP3    H260150   3.137   5.642  12.523  0.4677 -0.5668 -1.1380
12887TIP3   OH260151   1.983   2.625   5.310 -0.4083  0.3778  0.1756
12887TIP3    H160152   2.063   2.610   5.361 -1.7872  1.6421  2.7851
12887TIP3    H260153   2.003   2.702   5.256 -0.0714  1.0436  1.2483
12888TIP3   OH260154   5.010   1.219   4.436  0.0431 -0.0502 -0.2639
12888TIP3    H160155   5.067   1.266   4.497 -2.6384  1.8404  0.8753
12888TIP3    H260156   5.066   1.151   4.398  3.1098  1.9303  0.5635
12889TIP3   OH260157   4.335   2.252  12.801  0.0919 -0.2567 -0.0819
12889TIP3    H160158   4.330   2.302  12.719  1.1984  2.4533  1.4590
12889TIP3    H260159   4.423   2.214  12.800  0.4752  0.6086  0.3061
12890TIP3   OH260160   3.267   4.264  14.708  0.1489  0.0569 -0.6121
12890TIP3    H160161   3.357   4.241  14.731 -0.2004 -0.0071  0.7351
12890TIP3    H260162   3.216   4.186  14.729 -0.2806  0.2291 -0.9973
12891TIP3   OH260163   2.103   3.774   4.778 -0.0815 -0.0092 -0.2873
12891TIP3    H160164   2.024   3.746   4.732 -0.5727  2.2300 -0.8413
12891TIP3    H260165   2.167   3.788   4.709  0.2015  0.1117 -0.0025
12892TIP3   OH260166   0.921   3.770  11.702 -0.1632  0.5186 -0.0808
12892TIP3    H160167   0.917   3.812  11.616  1.0977  2.3817  0.7594
12892TIP3    H260168   0.874   3.830  11.760  1.1366  0.4824  1.0150
12893TIP3   OH260169   2.014   5.385  15.797 -0.4871  0.2935  0.3388
12893TIP3    H160170   2.059   5.463  15.829 -0.5201 -0.0634  1.2658
12893TIP3    H260171   2.023   5.321  15.867  0.2956 -0.8391 -0.7658
12894TIP3   OH260172   4.926   3.792  12.697 -0.1001  0.3363 -0.8521
12894TIP3    H160173   4.866   3.762  12.629 -1.2154  0.6317 -0.0265
12894TIP3    H260174   4.889   3.876  12.726  0.6293  0.4509 -0.2381
12895TIP3   OH260175   5.529   6.625   3.009  0.4895 -0.3354  0.0103
12895TIP3    H160176   5.460   6.668   2.959  0.6849 -0.7630 -0.6259
12895TIP3    H260177   5.512   6.650   3.100  0.5396  1.0023 -0.3379
12896TIP3   OH260178   5.903   3.176   3.835  0.6604  0.0747 -0.3946
12896TIP3    H160179   5.960   3.248   3.862  1.1732 -0.4155 -0.1647
12896TIP3    H260180   5.895   3.186   3.740 -0.8220  1.5571 -0.1448
12897TIP3   OH260181   6.471   1.362  12.220  0.0282 -0.3399 -0.3560
12897TIP3    H160182   6.448   1.288  12.276  0.2002 -0.3780 -0.3352
12897TIP3    H260183   6.534   1.326  12.158  1.0017  0.0658  0.3814
12898TIP3   OH260184   4.953   3.136   1.370 -0.0389 -0.1981  0.4406
12898TIP3    H160185   4.917   3.192   1.439 -2.5258 -1.4170  0.1956
12898TIP3    H260186   5.047   3.133   1.389 -0.5315  0.1730  3.2951
12899TIP3   OH260187   6.282   1.559   3.076  0.4099 -0.0883 -0.5890
12899TIP3    H160188   6.355   1.504   3.046  0.6705 -0.0586 -0.0245
12899TIP3    H260189   6.258   1.610   2.999  0.8660 -0.2302 -0.8329
12900TIP3   OH260190   6.191   3.915   2.599  0.0483 -0.1082  0.1937
12900TIP3    H160191   6.152   3.837   2.560  2.1245 -1.6161  1.0279
12900TIP3    H260192   6.244   3.953   2.528 -2.5311  1.7059 -0.8127
12901TIP3   OH260193   6.448   3.021   3.417  0.3458  0.5252 -0.3968
12901TIP3    H160194   6.486   2.944   3.459  0.9102  1.4584  0.8356
12901TIP3    H260195   6.439   2.996   3.325  0.5690 -0.9847 -0.0230
12902TIP3   OH260196   2.400   4.299   1.449  0.3004  0.3197 -0.1157
12902TIP3    H160197   2.425   4.388   1.424  0.5978  0.1447 -0.4474
12902TIP3    H260198   2.483   4.253   1.463  0.1661 -0.1115 -0.6840
12903TIP3   OH260199   4.087   5.156  17.158  0.0096  1.1121  0.0821
12903TIP3    H160200   4.146   5.203  17.217  3.1812 -1.8336 -0.5744
12903TIP3    H260201   4.073   5.072  17.201 -3.7500  1.7203  0.1629
12904TIP3   OH260202   4.492   1.693  15.273 -0.1780  0.3590  0.3610
12904TIP3    H160203   4.482   1.697  15.178 -1.4100 -2.0770  0.3495
12904TIP3    H260204   4.571   1.640  15.287 -1.4521 -1.5338  0.6670
12905TIP3   OH260205   6.703   4.448   0.036  0.8580  0.4358 -0.5063
12905TIP3    H160206   6.639   4.464   0.107  1.3193  3.3077 -0.6717
12905TIP3    H260207   6.777   4.406   0.080  0.0711 -0.2219  0.2231
12906TIP3   OH260208   6.130   1.151   3.631 -0.1305 -0.0303  0.1310
12906TIP3    H160209   6.223   1.161   3.611 -0.1537  1.5200  0.7433
12906TIP3    H260210   6.124   1.161   3.726 -0.6688 -2.1829  0.3381
12907TIP3   OH260211   5.948   4.723  10.941  0.3039  0.0326 -0.5275
12907TIP3    H160212   6.011   4.657  10.915 -0.3670 -0.1559 -1.7103
12907TIP3    H260213   5.863   4.680  10.933 -0.0340  0.4959  0.3828
12908TIP3   OH260214   4.899   4.232   4.631 -0.5602 -0.1392 -0.9711
12908TIP3    H160215   4.902   4.313   4.681 -1.9318 -0.4360 -0.3739
12908TIP3    H260216   4.931   4.255   4.544 -0.1138  0.8440 -0.5451
12909TIP3   OH260217   2.349   1.974   3.366  0.2516  0.4119  0.3672
12909TIP3    H160218   2.281   1.909   3.352  0.8019 -0.0542 -0.1790
12909TIP3    H260219   2.424   1.924   3.399  1.4718  0.4013 -2.3475
12910TIP3   OH260220   2.720   0.259  17.148 -0.5411  0.4585 -0.1828
12910TIP3    H160221   2.810   0.274  17.178 -0.1204 -2.3140  0.0920
12910TIP3    H260222   2.683   0.199  17.213 -2.7136  1.7910 -0.1312
12911TIP3   OH260223   2.596   6.166   0.461  0.0739 -0.3346 -0.4116
12911TIP3    H160224   2.677   6.116   0.473 -0.5921 -1.0583  1.2181
12911TIP3    H260225   2.625   6.251   0.429  1.2976 -1.3841 -2.2102
12912TIP3   OH260226   5.937   0.008  17.065 -1.0218  0.2452 -0.3384
12912TIP3    H160227   5.895   0.046  17.143  0.8715 -0.0709  0.8776
12912TIP3    H260228   6.016   0.061  17.052  0.3358 -1.6442 -0.1269
12913TIP3   OH260229   5.821   4.500  11.154 -0.1201 -0.2097 -0.4753
12913TIP3    H160230   5.808   4.442  11.079 -1.9083 -0.2833 -0.1367
12913TIP3    H260231   5.758   4.571  11.140  0.3069  0.3548  0.3981
12914TIP3   OH260232   6.349   4.563  17.080  0.4952 -0.1231  0.1068
12914TIP3    H160233   6.397   4.573  16.998  1.2229  0.0838  0.5507
12914TIP3    H260234   6.273   4.511  17.057  1.3811 -1.1988 -0.4338
12915TIP3   OH260235   0.994   3.272   4.634 -0.2259 -0.2391  0.2034
12915TIP3    H160236   1.043   3.296   4.555 -1.6350 -1.1405 -0.9698
12915TIP3    H260237   0.988   3.176   4.631  0.0494 -0.3209  1.6235
12916TIP3   OH260238   5.187   4.422   2.456  0.1608 -0.2715  0.3770
12916TIP3    H160239   5.114   4.461   2.409 -1.2075 -2.7284  0.3939
12916TIP3    H260240   5.164   4.430   2.549  0.6552  0.3518  0.4498
12917TIP3   OH260241   5.383   6.164   3.520  0.0633 -0.6906  0.0995
12917TIP3    H160242   5.457   6.211   3.559  0.6620 -1.5316  0.0052
12917TIP3    H260243   5.306   6.199   3.565  0.3573  1.3576 -0.9228
12918TIP3   OH260244   5.676   3.350  10.984  0.4544 -0.2826 -0.1206
12918TIP3    H160245   5.612   3.383  11.047  1.3344 -0.8984  1.0933
12918TIP3    H260246   5.692   3.425  10.926  2.0380  1.3395  2.3098
12919TIP3   OH260247   6.735   1.064   4.434 -0.2775 -0.0706  0.5072
12919TIP3    H160248   6.704   1.133   4.376  1.9127  0.1391 -0.4443
12919TIP3    H260249   6.746   1.106   4.519 -1.5293  0.0983  0.5938
12920TIP3   OH260250   5.133   5.391  17.265  0.3780  0.0816  0.1596
12920TIP3    H160251   5.071   5.408  17.335  0.8415  1.8228  0.1726
12920TIP3    H260252   5.114   5.301  17.236 -2.3266  0.7103 -0.0605
12921TIP3   OH260253   0.566   0.067  14.286 -0.0989  0.5072 -0.1513
12921TIP3    H160254   0.615  -0.007  14.250  2.0753  1.0324  1.6666
12921TIP3    H260255   0.493   0.026  14.333  0.2868 -0.4001 -0.3253
12922TIP3   OH260256   0.675   0.494  14.750  0.3045  0.3416 -0.1199
12922TIP3    H160257   0.765   0.526  14.744  0.3826  0.2023  0.3239
12922TIP3    H260258   0.633   0.526  14.670  0.3480  1.6546  0.3708
12923TIP3   OH260259   4.688   1.424   1.251  0.1459 -0.2922  0.2616
12923TIP3    H160260   4.640   1.417   1.333  1.6579  0.1064  1.2041
12923TIP3    H260261   4.749   1.497   1.265  0.8828 -0.6525 -0.9601
12924TIP3   OH260262   2.051   5.193   2.976  0.5055 -0.1090 -0.6835
12924TIP3    H160263   2.140   5.174   3.006  0.0626 -1.3455 -0.1190
12924TIP3    H260264   2.002   5.211   3.057 -0.2324 -1.4680 -0.8202
12925TIP3   OH260265   6.816   1.833  15.921  0.1535 -0.1238  0.2758
12925TIP3    H160266   6.841   1.916  15.963  1.1613  0.6496 -1.7917
12925TIP3    H260267   6.865   1.833  15.839 -2.2125 -1.3633 -1.1584
12926TIP3   OH260268   6.013   5.100   6.365  0.4685 -0.2047  0.0803
12926TIP3    H160269   6.101   5.119   6.396  0.4596  1.2757 -0.7679
12926TIP3    H260270   5.961   5.091   6.445  1.0238  0.7625  0.5640
12927TIP3   OH260271   6.038   5.868  17.071 -0.0343 -0.7280 -0.1350
12927TIP3    H160272   6.042   5.847  17.164 -1.7772  0.2327  0.1725
12927TIP3    H260273   6.126   5.897  17.049  0.1545 -0.0644  1.4317
12928TIP3   OH260274   3.277   5.448  13.691  0.1570  0.3242  0.0231
12928TIP3    H160275   3.346   5.402  13.644  2.0793  0.8416  2.2573
12928TIP3    H260276   3.283   5.538  13.660  1.6355  0.7344  1.4401
12929TIP3   OH260277   0.672   6.101   1.549  0.3388  0.3274 -0.3299
12929TIP3    H160278   0.613   6.091   1.624 -1.7255 -0.5135 -2.0201
12929TIP3    H260279   0.667   6.017   1.504  2.3471  0.4785 -0.8753
12930TIP3   OH260280   0.507   0.008  12.250 -0.0316  0.1153  0.1413
12930TIP3    H160281   0.572  -0.011  12.183 -0.1515  0.4401 -0.0715
12930TIP3    H260282   0.546   0.079  12.301  0.3474 -0.5912  0.8338
12931TIP3   OH260283   2.741   5.894   4.596  0.2012  0.2589  0.0367
12931TIP3    H160284   2.745   5.923   4.505 -0.3152 -0.2753 -0.1641
12931TIP3    H260285   2.832   5.881   4.622  0.2833 -1.8119 -1.1523
12932TIP3   OH260286   5.830   5.191   0.613 -0.0786 -0.2469  0.1046
12932TIP3    H160287   5.771   5.263   0.592  0.8234  0.1624 -1.0326
12932TIP3    H260288   5.821   5.180   0.708 -1.0364  0.6401  0.1233
12933TIP3   OH260289   5.825   5.690   4.464  0.5806  0.7059  0.3157
12933TIP3    H160290   5.917   5.708   4.444  1.1276 -0.1353  1.9701
12933TIP3    H260291   5.813   5.597   4.443  0.9291  0.0434  2.9774
12934TIP3   OH260292   5.008   5.267  16.089 -0.4016  0.1054 -0.4071
12934TIP3    H160293   5.022   5.348  16.140 -1.3403 -0.0182  0.0507
12934TIP3    H260294   4.968   5.206  16.151  0.2930 -0.7165 -0.7543
12935TIP3   OH260295   2.114   5.416  12.410  0.2535 -0.2833 -0.3907
12935TIP3    H160296   2.165   5.476  12.465  0.4681 -0.3765 -0.4917
12935TIP3    H260297   2.024   5.450  12.416  0.5812  0.8076 -1.4632
12936TIP3   OH260298   1.618   5.308   0.565 -0.0100 -0.0405 -0.0641
12936TIP3    H160299   1.673   5.310   0.643 -1.6074  0.7724  1.0775
12936TIP3    H260300   1.623   5.218   0.534  3.6686  0.4683 -1.2734
12937TIP3   OH260301   1.528   1.989   2.246 -0.7517 -0.5214  0.5615
12937TIP3    H160302   1.497   2.029   2.165 -1.8760 -1.4323  0.5362
12937TIP3    H260303   1.578   1.912   2.217 -3.4822 -2.4679  0.7752
12938TIP3   OH260304   2.831   0.606   2.109  0.8349  0.0991 -0.0616
12938TIP3    H160305   2.919   0.615   2.072  0.5116 -0.6560 -1.0403
12938TIP3    H260306   2.838   0.643   2.196  1.6736  1.7662 -0.8087
12939TIP3   OH260307   2.422   2.560   3.085 -0.0132 -0.3018  0.1129
12939TIP3    H160308   2.506   2.556   3.131  0.2711  1.4394 -0.1949
12939TIP3    H260309   2.379   2.638   3.122 -1.6450 -1.3715  0.5112
12940TIP3   OH260310   0.523   5.403  13.954  0.0536  0.1776 -0.3772
12940TIP3    H160311   0.483   5.489  13.968 -1.6225 -0.6729  0.2265
12940TIP3    H260312   0.589   5.395  14.022 -0.4613  0.6008  0.1778
12941TIP3   OH260313   2.017   4.958  14.975 -0.1942 -0.0354  0.3950
12941TIP3    H160314   2.003   4.906  15.054  2.4794 -0.2815  0.7519
12941TIP3    H260315   2.112   4.962  14.965 -0.4310  1.9774 -1.5040
12942TIP3   OH260316   4.900   1.326  13.430  0.0725  0.8855  0.2508
12942TIP3    H160317   4.861   1.394  13.484 -0.6563 -0.4371  1.4167
12942TIP3    H260318   4.874   1.348  13.340 -2.4036  0.6753  0.8874
12943TIP3   OH260319   0.722   5.543   0.786 -0.0132  0.5510 -0.9960
12943TIP3    H160320   0.681   5.475   0.840 -0.2305 -0.0670 -1.9325
12943TIP3    H260321   0.666   5.550   0.709 -0.6983  2.6681 -0.3650
12944TIP3   OH260322   4.457   3.489  12.853  0.2778 -1.1266 -0.3944
12944TIP3    H160323   4.370   3.449  12.861  0.1514 -0.5734  0.9966
12944TIP3    H260324   4.515   3.431  12.901  0.2554 -0.1575  0.8214
12945TIP3   OH260325   0.831   2.290  16.201 -0.2359 -0.3061 -0.0379
12945TIP3    H160326   0.827   2.195  16.211  0.5720 -0.2335  1.1023
12945TIP3    H260327   0.911   2.307  16.152  0.7421 -0.1012  1.5971
12946TIP3   OH260328   5.634   0.986   5.399  0.0010 -0.5233 -0.6100
12946TIP3    H160329   5.650   1.025   5.313 -2.4500  1.4511 -0.2342
12946TIP3    H260330   5.702   1.024   5.456 -0.8135  1.3190 -0.8209
12947TIP3   OH260331   3.299   5.248   6.336  0.0693 -0.4745  0.5107
12947TIP3    H160332   3.251   5.231   6.417 -0.6279  2.0320  0.6715
12947TIP3    H260333   3.391   5.233   6.358 -0.3561 -2.5661  0.9619
12948TIP3   OH260334   5.439   5.368  16.018  0.0646  0.6820 -0.6357
12948TIP3    H160335   5.515   5.323  15.981 -0.3156  0.6325 -1.3810
12948TIP3    H260336   5.398   5.305  16.076  0.4058  0.5947 -0.4918
12949TIP3   OH260337   5.493   1.123  15.802 -0.0139  0.6273  0.1676
12949TIP3    H160338   5.474   1.126  15.895  0.2705  0.4729  0.2333
12949TIP3    H260339   5.588   1.112  15.797 -0.2618 -1.6929 -0.0936
12950TIP3   OH260340   2.006   5.737  11.383  0.3603  0.5973  0.3494
12950TIP3    H160341   2.038   5.650  11.406 -0.0447  0.6010  0.9305
12950TIP3    H260342   2.046   5.755  11.298  0.9146  0.0875  0.4937
12951TIP3   OH260343   3.687   5.933  12.437  0.6754 -0.0674 -0.2168
12951TIP3    H160344   3.598   5.950  12.406 -0.2437 -1.0907  1.7671
12951TIP3    H260345   3.705   5.843  12.410 -0.7707 -1.5700  3.4854
12952TIP3   OH260346   6.606   5.246  13.370  0.2431 -0.2005 -0.2326
12952TIP3    H160347   6.686   5.292  13.394 -0.6116  1.2273 -0.0944
12952TIP3    H260348   6.585   5.280  13.283  0.9551 -2.1684 -1.2151
12953TIP3   OH260349   0.572   0.252  15.802 -0.0965 -0.7014  0.7803
12953TIP3    H160350   0.499   0.194  15.823 -0.5690  0.1657  1.5668
12953TIP3    H260351   0.538   0.310  15.734  0.2391 -1.0482  0.3071
12954TIP3   OH260352   4.725   0.196   2.159 -0.4264 -0.8010  0.2096
12954TIP3    H160353   4.707   0.122   2.217  0.4822 -1.3980 -0.2539
12954TIP3    H260354   4.798   0.242   2.201 -0.9987 -0.1440  0.5041
12955TIP3   OH260355   1.912   1.885   5.013 -0.4848  0.5940 -0.0979
12955TIP3    H160356   2.004   1.887   5.039 -0.4237  0.5267 -0.3065
12955TIP3    H260357   1.878   1.970   5.041 -0.0131  1.1738 -1.2305
12956TIP3   OH260358   1.023   6.452   5.501  0.2884 -0.2032 -0.3021
12956TIP3    H160359   0.961   6.380   5.503  0.5784 -0.4050  2.1789
12956TIP3    H260360   1.001   6.506   5.577  2.3337  0.3933 -0.1012
12957TIP3   OH260361   4.209   1.256  17.018  0.1965 -0.3700  0.2382
12957TIP3    H160362   4.199   1.212  17.103  0.8335 -0.4578  0.2664
12957TIP3    H260363   4.176   1.193  16.954 -2.8061  0.7218  0.6401
12958TIP3   OH260364   0.524   5.237   4.704 -0.0400 -0.4966  0.1876
12958TIP3    H160365   0.508   5.277   4.790  1.6921  0.3696  0.1274
12958TIP3    H260366   0.589   5.294   4.663 -0.8627 -0.8910 -1.7248
12959TIP3   OH260367   0.265   4.631  14.144  0.8493  0.2468  0.1996
12959TIP3    H160368   0.224   4.549  14.115 -1.9118  0.9634  1.8574
12959TIP3    H260369   0.259   4.689  14.068 -0.2056 -0.0539  0.0365
12960TIP3   OH260370   5.041   2.865   1.259  0.3710  1.2443  0.7112
12960TIP3    H160371   4.975   2.910   1.207  0.2455 -0.9731 -1.1387
12960TIP3    H260372   4.994   2.835   1.337 -0.4386  1.0109  0.1311
12961TIP3   OH260373   6.708   3.985   3.920 -0.2105  0.1594  0.0744
12961TIP3    H160374   6.771   4.054   3.942 -0.0331  0.4830 -1.3831
12961TIP3    H260375   6.632   4.032   3.885  0.2085 -0.3966 -1.6390
12962TIP3   OH260376   6.072   3.396   6.182  0.1931  0.4614 -1.0068
12962TIP3    H160377   6.117   3.453   6.244  0.2530 -0.2988 -0.3308
12962TIP3    H260378   5.979   3.408   6.201  0.1936  0.5630 -1.0700
12963TIP3   OH260379   1.452   6.763  13.660  0.4226  0.4493  0.2425
12963TIP3    H160380   1.430   6.699  13.728  0.1646 -1.4399 -1.5722
12963TIP3    H260381   1.367   6.789  13.623  0.6871 -0.2222 -0.8527
12964TIP3   OH260382   3.103   2.461  13.900  0.2767 -0.3570  1.1639
12964TIP3    H160383   3.060   2.405  13.965  1.2881  0.4864  2.5928
12964TIP3    H260384   3.072   2.549  13.921 -0.6534 -0.2548 -0.5413
12965TIP3   OH260385   5.654   2.361  12.750 -0.5981 -0.3110 -0.2601
12965TIP3    H160386   5.690   2.450  12.749  0.6609 -0.8086 -0.5760
12965TIP3    H260387   5.627   2.347  12.840 -1.6401  0.7191 -0.4031
12966TIP3   OH260388   1.502   3.366  11.422 -0.3524  0.2264 -0.2864
12966TIP3    H160389   1.504   3.426  11.497 -0.6791 -0.2605  0.1129
12966TIP3    H260390   1.418   3.321  11.430  0.0868 -0.6048 -0.3366
12967TIP3   OH260391   4.360   5.549   1.233 -0.3799 -0.0068  0.3623
12967TIP3    H160392   4.309   5.628   1.247 -0.5303 -0.4395  2.2809
12967TIP3    H260393   4.306   5.496   1.173 -0.5098  1.1022 -0.5037
12968TIP3   OH260394   3.835   4.615   6.147 -0.2888 -0.3357 -0.9863
12968TIP3    H160395   3.867   4.541   6.199  0.1928  0.1895 -0.5163
12968TIP3    H260396   3.744   4.627   6.174 -0.3589 -0.7377 -1.0449
12969TIP3   OH260397   0.498   0.301   1.804  0.1061 -0.4928 -0.4972
12969TIP3    H160398   0.521   0.220   1.760  2.4333 -0.1040 -0.0625
12969TIP3    H260399   0.514   0.370   1.740 -0.3835 -0.2389 -0.3571
12970TIP3   OH260400   1.579   5.043  11.980  0.0657  0.0199 -0.3870
12970TIP3    H160401   1.624   5.030  12.064  0.8194  1.3800 -0.5496
12970TIP3    H260402   1.503   5.097  12.002 -1.6847 -2.5086 -0.0709
12971TIP3   OH260403   5.155   0.218   0.392 -0.2872 -0.1212 -0.1795
12971TIP3    H160404   5.163   0.309   0.362  0.8757  0.1564  0.9048
12971TIP3    H260405   5.177   0.165   0.315  1.0474  0.5514 -0.2786
12972TIP3   OH260406   0.925   0.560   4.145  0.3208  0.0405 -0.5947
12972TIP3    H160407   0.930   0.650   4.178  1.8037 -0.4309  0.4921
12972TIP3    H260408   0.832   0.549   4.122 -0.0853  1.4988  0.2451
12973TIP3   OH260409   2.521   4.273  16.639 -0.4223  0.1642 -0.3320
12973TIP3    H160410   2.581   4.199  16.646 -1.3950 -0.4887  1.4874
12973TIP3    H260411   2.564   4.343  16.688 -1.4632 -0.5513  1.6748
12974TIP3   OH260412   2.910   1.088   3.578  0.3161 -0.6990 -0.2549
12974TIP3    H160413   2.854   1.040   3.640  1.0518  0.2817  1.1902
12974TIP3    H260414   2.971   1.022   3.546  1.5895 -0.7022  2.0451
12975TIP3   OH260415   0.777   2.142   5.618 -0.0900  0.1237  0.1284
12975TIP3    H160416   0.845   2.172   5.678 -0.7864  0.2740  0.8512
12975TIP3    H260417   0.696   2.179   5.653 -0.4418  0.6405 -1.2012
12976TIP3   OH260418   1.606   3.416   0.051 -0.9121 -0.3337  0.6697
12976TIP3    H160419   1.687   3.378   0.085 -1.2618 -1.2239  0.5255
12976TIP3    H260420   1.563   3.343   0.006  0.3622  1.2042 -3.1957
12977TIP3   OH260421   1.829   5.934  13.870  0.7908  0.0006  0.6119
12977TIP3    H160422   1.872   5.877  13.934 -1.2238 -2.5483 -0.1734
12977TIP3    H260423   1.853   5.896  13.785 -1.1055 -0.0771  0.0948
12978TIP3   OH260424   2.422   3.286  16.310 -0.0693  0.5117 -0.5945
12978TIP3    H160425   2.360   3.340  16.261 -1.5018 -0.0744  0.5178
12978TIP3    H260426   2.369   3.246  16.379  1.5606 -0.0045  0.3870
12979TIP3   OH260427   1.787   3.634  13.158 -0.7213  0.5833  0.1761
12979TIP3    H160428   1.737   3.588  13.226 -0.3092 -1.0423 -0.5829
12979TIP3    H260429   1.767   3.586  13.077  0.3560  1.2505 -0.4996
12980TIP3   OH260430   0.037   4.879  13.623 -0.3511 -0.4808  0.5165
12980TIP3    H160431  -0.025   4.906  13.690 -1.1468  0.1278 -0.4514
12980TIP3    H260432   0.082   4.803  13.661  0.1860  0.6851  2.2735
12981TIP3   OH260433   5.430   5.884   4.095 -0.1655 -0.3323 -0.3116
12981TIP3    H160434   5.519   5.870   4.127  0.2581 -0.9149 -1.7084
12981TIP3    H260435   5.428   5.976   4.068 -0.6113  0.2440  1.5934
12982TIP3   OH260436   1.553   4.836  13.447 -0.0616 -0.2697  0.9028
12982TIP3    H160437   1.471   4.875  13.417  0.0281 -0.9974 -0.3144
12982TIP3    H260438   1.621   4.889  13.404  0.0568 -2.1731 -1.3278
12983TIP3   OH260439   5.684   5.929   1.514 -0.3003 -0.0090  0.0522
12983TIP3    H160440   5.622   5.959   1.580 -1.2049 -0.6031 -0.5131
12983TIP3    H260441   5.629   5.902   1.440  0.7150  1.0254 -1.1007
12984TIP3   OH260442   0.056   5.620  13.343 -0.5023  0.7956 -0.0365
12984TIP3    H160443   0.070   5.525  13.337 -1.8398  0.4017  2.4017
12984TIP3    H260444   0.097   5.655  13.264  1.3370 -1.6567 -0.2277
12985TIP3   OH260445   4.652   6.556  15.132  0.2280  0.0665  0.1585
12985TIP3    H160446   4.709   6.580  15.206  0.7873 -0.5744 -0.0671
12985TIP3    H260447   4.566   6.592  15.156  0.8886  1.7052  0.1530
12986TIP3   OH260448   0.004   5.605   0.255 -0.2440  0.0854 -0.2372
12986TIP3    H160449   0.053   5.657   0.319 -0.2315 -1.7796  1.3421
12986TIP3    H260450  -0.058   5.666   0.217 -0.6206  1.1420  1.9883
12987TIP3   OH260451   4.822   0.525   5.466  1.0185  0.0082 -0.5374
12987TIP3    H160452   4.777   0.499   5.386  1.7083 -0.9211 -0.6340
12987TIP3    H260453   4.822   0.446   5.520 -1.2451  1.1669  1.2374
12988TIP3   OH260454   2.816   3.691  13.287 -0.5937  0.2303  0.0032
12988TIP3    H160455   2.840   3.781  13.264 -1.0864  0.1654 -0.7557
12988TIP3    H260456   2.787   3.698  13.378 -0.0710  0.7333  0.1427
12989TIP3   OH260457   1.296   4.768   0.822  0.5211 -0.3684  0.4875
12989TIP3    H160458   1.239   4.756   0.898  0.8383  0.7906  0.9218
12989TIP3    H260459   1.255   4.839   0.773 -0.5750 -2.1963 -1.2936
12990TIP3   OH260460   6.186   6.697   1.713  0.0488 -0.5683  0.1713
12990TIP3    H160461   6.231   6.676   1.795 -1.6929 -1.7991  0.8330
12990TIP3    H260462   6.145   6.782   1.728  0.7610 -0.2150  0.1364
12991TIP3   OH260463   3.047   5.865   1.421 -0.5442 -0.5375  0.0943
12991TIP3    H160464   3.076   5.871   1.512  0.3716  0.9873 -0.2730
12991TIP3    H260465   2.952   5.857   1.426 -0.5128 -0.3161  1.1817
12992TIP3   OH260466   1.706   5.537  14.351  0.0847 -0.3943  0.9718
12992TIP3    H160467   1.744   5.510  14.434  0.7392  0.6519  1.0194
12992TIP3    H260468   1.741   5.625  14.335 -2.0965  0.4948  0.8759
12993TIP3   OH260469   1.407   1.969   1.142  0.1558  0.0824 -0.3082
12993TIP3    H160470   1.415   1.893   1.083 -1.3284 -0.6662  0.4267
12993TIP3    H260471   1.314   1.989   1.142  0.2203  0.4206  1.3586
12994TIP3   OH260472   1.467   4.165  13.986  0.2763 -0.1097  0.1624
12994TIP3    H160473   1.549   4.150  13.939  1.2104  0.5375  1.5503
12994TIP3    H260474   1.407   4.101  13.950  1.6827 -1.2811 -0.1510
12995TIP3   OH260475   0.464   3.660   4.302  0.6204 -0.1444  0.5331
12995TIP3    H160476   0.399   3.592   4.284  1.9417 -1.6964  1.4931
12995TIP3    H260477   0.454   3.678   4.396  0.8120  0.4368  0.4477
12996TIP3   OH260478   0.419   5.604   6.340 -0.2533  0.0875  0.5053
12996TIP3    H160479   0.398   5.641   6.254  0.2100 -0.3443  0.2040
12996TIP3    H260480   0.360   5.529   6.349  0.6016 -0.6479  0.0016
12997TIP3   OH260481   6.184   4.288  11.332  0.5273  0.0003 -0.2660
12997TIP3    H160482   6.163   4.382  11.335 -0.6289 -0.2872  1.8449
12997TIP3    H260483   6.279   4.286  11.321  0.6414  1.4428  0.2715
12998TIP3   OH260484   5.661   6.188  12.581  0.8411  0.2013 -0.2722
12998TIP3    H160485   5.630   6.165  12.493 -0.7596 -1.6060  0.7278
12998TIP3    H260486   5.738   6.244  12.566  0.9856 -0.6304 -2.8037
12999TIP3   OH260487   2.764   0.889  11.174  0.2194 -0.2218 -0.2317
12999TIP3    H160488   2.722   0.974  11.190 -1.7114 -1.1459 -0.2500
12999TIP3    H260489   2.832   0.909  11.109 -1.1110  1.0950 -1.2832
13000TIP3   OH260490   0.105   4.408   5.256 -0.8801  0.4897 -0.1412
13000TIP3    H160491   0.175   4.362   5.211 -1.8833 -1.2925  0.0782
13000TIP3    H260492   0.150   4.471   5.312  0.5098  0.0137 -0.7035
13001TIP3   OH260493   2.547   5.256   3.293 -0.1510 -0.0628 -0.1846
13001TIP3    H160494   2.614   5.190   3.312 -0.9953 -1.2510 -1.2698
13001TIP3    H260495   2.596   5.333   3.266  0.7786 -1.3946 -2.4532
13002TIP3   OH260496   1.563   6.802  11.447  0.4769  0.1996  0.0900
13002TIP3    H160497   1.611   6.736  11.397 -2.5846 -1.4727 -0.7236
13002TIP3    H260498   1.588   6.786  11.538  2.0866 -0.0988 -0.3926
13003TIP3   OH260499   1.063   3.585  11.869  0.4560 -0.2421  0.0802
13003TIP3    H160500   0.994   3.626  11.816 -0.2139  0.9316  1.7994
13003TIP3    H260501   1.028   3.498  11.889  0.1066 -0.1813 -0.2532
13004TIP3   OH260502   3.409   0.316  17.079  0.4335 -0.5188 -0.1174
13004TIP3    H160503   3.347   0.389  17.084 -0.5824 -1.3532 -0.4028
13004TIP3    H260504   3.379   0.264  17.004  2.1785 -0.2970 -1.0069
13005TIP3   OH260505   6.347   5.127  11.080 -0.2208  0.0867 -0.2532
13005TIP3    H160506   6.399   5.193  11.034  1.9316 -0.0623  1.8412
13005TIP3    H260507   6.276   5.177  11.120  1.4363  1.2147  1.3783
13006TIP3   OH260508   2.752   0.440  13.508 -0.3672  0.3912 -0.1565
13006TIP3    H160509   2.818   0.504  13.482 -0.0282  0.1034 -0.0033
13006TIP3    H260510   2.799   0.357  13.513 -0.2962  0.5335  1.9394
13007TIP3   OH260511   1.077   6.635  13.393  0.5932  0.0001  0.1843
13007TIP3    H160512   1.047   6.573  13.326  3.4921 -1.5071  0.1560
13007TIP3    H260513   1.034   6.717  13.371 -1.8906 -1.5249 -0.9206
13008TIP3   OH260514   3.472   1.071   3.146 -0.2062 -1.0904  0.1065
13008TIP3    H160515   3.540   1.034   3.090  0.1042 -1.3910  0.6830
13008TIP3    H260516   3.454   1.157   3.107  1.0146 -0.7039  0.3681
13009TIP3   OH260517   2.400   0.425   3.391  0.1681  0.1843 -0.3337
13009TIP3    H160518   2.383   0.517   3.369  2.0086  0.5626 -0.2558
13009TIP3    H260519   2.465   0.397   3.327 -0.1121 -0.9589 -0.1205
13010TIP3   OH260520   3.226   5.726  16.632  0.1617 -0.2798 -0.4745
13010TIP3    H160521   3.145   5.775  16.618  0.3416  0.0270 -0.4378
13010TIP3    H260522   3.198   5.634  16.638  0.0307 -0.4083 -2.5412
13011TIP3   OH260523   1.101   4.548  13.017 -0.4344 -0.3473  0.1534
13011TIP3    H160524   1.113   4.610  12.946  0.4008  1.4543  1.8392
13011TIP3    H260525   1.117   4.598  13.097 -0.2294 -2.5909  1.5816
13012TIP3   OH260526   4.107   6.310   5.870 -0.3727  0.0342 -0.3075
13012TIP3    H160527   4.125   6.231   5.818 -1.4483 -1.1518  1.1013
13012TIP3    H260528   4.015   6.304   5.892 -0.5331  1.8574 -0.4151
13013TIP3   OH260529   2.807   6.634   2.351  0.4062  0.3240 -0.3332
13013TIP3    H160530   2.729   6.644   2.406  0.3416  1.0165 -0.5453
13013TIP3    H260531   2.878   6.617   2.413 -0.2667 -2.5073 -0.2746
13014TIP3   OH260532   6.764   4.900   0.483 -0.4489 -0.0397  0.5308
13014TIP3    H160533   6.800   4.987   0.502  1.5010 -0.6544 -0.2473
13014TIP3    H260534   6.747   4.861   0.569  2.4257 -0.4086  0.9650
13015TIP3   OH260535   3.977   1.417  12.418  0.1385 -0.8094 -0.4224
13015TIP3    H160536   4.022   1.376  12.492 -1.7055 -0.4961  0.8835
13015TIP3    H260537   4.038   1.406  12.345  1.4258 -2.2786  0.8291
13016TIP3   OH260538   6.475   1.800  16.810 -0.1748 -0.0174  0.0562
13016TIP3    H160539   6.527   1.729  16.771 -1.8387 -0.0461 -2.2168
13016TIP3    H260540   6.534   1.875  16.809  0.2004 -0.2972 -1.5684
13017TIP3   OH260541   5.337   0.129  11.461 -0.0792  0.1181 -0.8802
13017TIP3    H160542   5.398   0.093  11.525  0.7664  1.9622 -0.6229
13017TIP3    H260543   5.333   0.223  11.481 -3.2659 -0.0080 -0.6847
13018TIP3   OH260544   5.453   3.967  15.561  0.2412 -1.1218 -0.1618
13018TIP3    H160545   5.509   4.040  15.533 -0.6848 -0.6149 -0.7058
13018TIP3    H260546   5.487   3.943  15.647  1.2463 -0.7626 -0.4461
13019TIP3   OH260547   5.283   6.334  14.074  0.0539  0.0786  0.5599
13019TIP3    H160548   5.237   6.252  14.056 -1.0935  0.6546  0.8078
13019TIP3    H260549   5.345   6.343  14.001  0.0301 -0.8851  0.4122
13020TIP3   OH260550   0.870   4.357   6.722 -0.4385  0.4560  0.3764
13020TIP3    H160551   0.927   4.338   6.647 -2.3434  3.0439 -1.8260
13020TIP3    H260552   0.821   4.276   6.736 -0.7840  0.2438 -1.8870
13021TIP3   OH260553   3.027   2.537  17.052 -0.0591  0.2286 -0.6339
13021TIP3    H160554   3.044   2.606  16.989 -0.4127  3.3285  2.5143
13021TIP3    H260555   2.953   2.488  17.016 -0.4472  2.1080 -2.4548
13022TIP3   OH260556   1.441   2.762   4.151  1.0958 -0.4514  0.1515
13022TIP3    H160557   1.511   2.767   4.216  0.8988 -3.7349  0.7169
13022TIP3    H260558   1.444   2.672   4.120 -0.7625  0.2642 -2.2420
13023TIP3   OH260559   4.360   1.344  13.144 -0.0048  0.7380  0.5104
13023TIP3    H160560   4.340   1.435  13.124 -1.8438  0.1076 -0.6340
13023TIP3    H260561   4.393   1.308  13.062 -0.2419  0.1024  0.6953
13024TIP3   OH260562   1.323   2.069  14.724 -0.0984  0.8725  0.0241
13024TIP3    H160563   1.374   2.136  14.680  0.3099  0.6233  0.1123
13024TIP3    H260564   1.292   2.012  14.654  0.3803  0.5925  0.0349
13025TIP3   OH260565   1.911   6.587  14.661  0.3095  0.6518  0.6181
13025TIP3    H160566   1.938   6.665  14.612  1.1492 -0.8104 -1.2653
13025TIP3    H260567   1.822   6.608  14.692 -0.0881  1.7406 -1.2105
13026TIP3   OH260568   2.551   4.863   2.957 -0.2408 -0.0917 -0.9526
13026TIP3    H160569   2.580   4.923   2.888 -0.7249 -0.3060 -1.3415
13026TIP3    H260570   2.568   4.911   3.039 -0.2045  0.3908 -1.2439
13027TIP3   OH260571   4.713   0.703   0.983 -0.2152 -0.2831 -0.0180
13027TIP3    H160572   4.619   0.698   0.964 -0.6542 -0.7099  2.0580
13027TIP3    H260573   4.723   0.788   1.026  0.2320 -0.5141  0.3326
13028TIP3   OH260574   2.074   6.077   3.729  0.2885  0.3003 -0.4305
13028TIP3    H160575   2.151   6.023   3.742 -0.0605 -0.2389 -0.5775
13028TIP3    H260576   2.021   6.029   3.665 -1.3502 -0.5755  1.5117
13029TIP3   OH260577   6.165   3.354  12.598  0.0414 -0.6150 -0.9148
13029TIP3    H160578   6.082   3.311  12.578  0.2339 -1.5217  0.1469
13029TIP3    H260579   6.174   3.421  12.531 -1.8241 -0.1359 -0.7140
13030TIP3   OH260580   0.310   1.127   0.562  0.2339  0.0589  0.3754
13030TIP3    H160581   0.294   1.214   0.599  0.6235 -0.4520  1.7991
13030TIP3    H260582   0.299   1.067   0.636 -2.7830 -1.4105 -1.1783
13031TIP3   OH260583   4.725   6.066   5.502  0.1654 -0.1850  0.3160
13031TIP3    H160584   4.786   6.110   5.443  0.2431  0.8490  1.1762
13031TIP3    H260585   4.672   6.136   5.539 -0.9890 -0.9902  0.2340
13032TIP3   OH260586   5.567   5.550   0.393  0.1705 -0.1652  0.3064
13032TIP3    H160587   5.596   5.642   0.395 -0.7010  0.0957  2.0974
13032TIP3    H260588   5.504   5.547   0.321 -0.1683  0.7614  0.5558
13033TIP3   OH260589   6.601   6.375   0.423  0.5891  0.1494 -0.4352
13033TIP3    H160590   6.654   6.405   0.349  2.0370  1.4688  1.0809
13033TIP3    H260591   6.664   6.335   0.483 -0.6144 -1.2414 -0.0687
13034TIP3   OH260592   0.807   5.602  16.957  0.1219  0.0415  0.3013
13034TIP3    H160593   0.758   5.657  16.896  1.2321  0.0500 -0.5805
13034TIP3    H260594   0.822   5.658  17.033 -1.2466  0.0340  0.5863
13035TIP3   OH260595   5.795   4.333   5.670  0.0338  0.0167  0.0081
13035TIP3    H160596   5.739   4.263   5.705  0.7425  0.0398  1.2329
13035TIP3    H260597   5.883   4.307   5.695  0.1770  2.1093  1.8698
13036TIP3   OH260598   3.355   6.199   5.158 -0.2863  0.1836 -0.5820
13036TIP3    H160599   3.442   6.163   5.172 -0.0620  0.6699 -0.7267
13036TIP3    H260600   3.352   6.277   5.212 -0.3216  0.6518 -1.2467
13037TIP3   OH260601   4.169   4.451   5.366  0.4005  0.5815  0.3362
13037TIP3    H160602   4.118   4.384   5.320  2.2319 -1.2305  0.8848
13037TIP3    H260603   4.217   4.497   5.297 -0.9337  1.4287 -0.0504
13038TIP3   OH260604   1.969   3.612   5.345 -0.0077  0.3421  0.2420
13038TIP3    H160605   2.008   3.526   5.335  0.0154  0.6327 -2.5527
13038TIP3    H260606   2.019   3.653   5.415  1.5106 -1.0624  0.0090
13039TIP3   OH260607   2.444   6.478  11.951  0.0183 -0.3836  0.1496
13039TIP3    H160608   2.535   6.466  11.980  0.8000  3.4485 -0.5041
13039TIP3    H260609   2.425   6.399  11.900  2.4281 -1.9646  1.5938
13040TIP3   OH260610   0.029   5.525   4.507  0.4485  0.0393  0.1874
13040TIP3    H160611   0.029   5.514   4.412  1.3276  0.5031  0.1325
13040TIP3    H260612   0.072   5.446   4.540 -1.2217 -0.8671  0.3099
13041TIP3   OH260613   2.947   2.702   2.342  0.4631 -0.1659 -0.2543
13041TIP3    H160614   2.903   2.626   2.381  0.0844  0.4641  0.5546
13041TIP3    H260615   2.887   2.733   2.275  0.5599 -0.4990 -0.4979
13042TIP3   OH260616   0.406   2.212   3.113  0.7282  0.5156 -0.0593
13042TIP3    H160617   0.432   2.186   3.201 -0.1195  2.4986  0.7913
13042TIP3    H260618   0.356   2.137   3.080 -0.1178  0.3020  1.6613
13043TIP3   OH260619   5.648   2.338   0.893  0.1253 -0.6041  0.7196
13043TIP3    H160620   5.667   2.342   0.799  2.2550 -1.3496  1.0821
13043TIP3    H260621   5.559   2.370   0.901  0.3355  0.6080 -1.4364
13044TIP3   OH260622   3.711   3.178   5.279  0.3136 -0.8250  0.4448
13044TIP3    H160623   3.772   3.210   5.213 -0.1144  0.1308  0.5060
13044TIP3    H260624   3.662   3.108   5.235  1.2339 -1.3962  0.3066
13045TIP3   OH260625   4.504   6.676  13.269  0.2092 -0.2020 -0.0596
13045TIP3    H160626   4.578   6.703  13.322  0.6892 -1.1757 -0.2236
13045TIP3    H260627   4.507   6.734  13.192  0.1125  0.5244  0.4824
13046TIP3   OH260628   4.512   5.804   2.769  0.3044  0.3320 -0.0622
13046TIP3    H160629   4.451   5.839   2.703  0.3266 -1.3512 -1.0001
13046TIP3    H260630   4.493   5.855   2.848 -2.0749  0.1113 -0.4394
13047TIP3   OH260631   4.806   5.546   0.436  0.2849  0.1619  0.7521
13047TIP3    H160632   4.723   5.584   0.465  0.0947  0.4474 -0.1488
13047TIP3    H260633   4.869   5.617   0.447 -0.2711  1.1128 -1.9414
13048TIP3   OH260634   0.695   6.183   4.361  0.5293 -0.1484  0.1560
13048TIP3    H160635   0.684   6.145   4.448  2.6766 -0.4379  0.3332
13048TIP3    H260636   0.684   6.110   4.301  0.5574 -0.2516  0.2764
13049TIP3   OH260637   6.379   2.028  13.506  0.1587  0.4376 -0.1583
13049TIP3    H160638   6.431   2.063  13.434 -0.0362  1.9724  0.4280
13049TIP3    H260639   6.343   2.105  13.549 -2.3974 -0.5765 -0.3985
13050TIP3   OH260640   2.961   1.430  11.896  0.1416  0.5628 -0.1249
13050TIP3    H160641   2.886   1.454  11.951 -0.0610  3.4804 -1.5825
13050TIP3    H260642   2.941   1.468  11.810  0.5196 -3.7717 -2.2836
13051TIP3   OH260643   2.400   3.080  16.029 -0.3726  0.1456 -0.1278
13051TIP3    H160644   2.368   3.012  16.088  0.1688  0.7996  0.9328
13051TIP3    H260645   2.323   3.132  16.007 -0.7375 -0.6299 -0.7272
13052TIP3   OH260646   0.650   1.665   0.652 -0.2320 -0.3329 -0.3607
13052TIP3    H160647   0.703   1.616   0.589  0.2937  2.4040 -2.1817
13052TIP3    H260648   0.565   1.676   0.609 -1.0517 -1.4659  0.9421
13053TIP3   OH260649   6.631   0.339   2.179 -0.1760  0.0160 -0.1096
13053TIP3    H160650   6.670   0.346   2.091  0.5281  0.8818  0.2650
13053TIP3    H260651   6.649   0.423   2.220  0.1623 -0.6571  1.1380
13054TIP3   OH260652   1.986   6.042  15.741 -0.8515  0.1200  0.2157
13054TIP3    H160653   2.055   6.071  15.681  0.3104 -0.5111  1.2221
13054TIP3    H260654   1.925   5.994  15.686  1.1883 -2.1106 -0.1725
13055TIP3   OH260655   0.763   4.299  13.762 -0.1917  0.1512  0.4920
13055TIP3    H160656   0.739   4.373  13.706  1.9825  0.2493 -0.3752
13055TIP3    H260657   0.699   4.231  13.742 -2.8461  2.0898  2.0355
13056TIP3   OH260658   3.493   1.534  12.734  1.2001 -0.0501 -0.0602
13056TIP3    H160659   3.450   1.498  12.656  0.3464  1.3715 -0.2481
13056TIP3    H260660   3.584   1.546  12.707  1.1329 -0.4990 -0.5145
13057TIP3   OH260661   5.114   5.220  15.163  0.9426 -0.6374 -0.2580
13057TIP3    H160662   5.093   5.294  15.221 -0.1816  0.6228 -2.2283
13057TIP3    H260663   5.046   5.155  15.183  1.0658 -0.5609  0.4446
13058TIP3   OH260664   4.566   6.248  14.914  0.2154 -0.1886  0.1219
13058TIP3    H160665   4.552   6.294  14.831 -1.9013 -2.6439 -0.9586
13058TIP3    H260666   4.617   6.171  14.890  0.5867 -0.3209  1.2966
13059TIP3   OH260667   2.054   3.097   2.123 -0.2759 -0.0750 -0.4456
13059TIP3    H160668   2.120   3.155   2.160 -1.9795  0.7541  1.3715
13059TIP3    H260669   1.988   3.155   2.084 -2.1022 -0.7294  1.5733
13060TIP3   OH260670   2.794   1.536  16.751 -0.0130  0.3989  0.2159
13060TIP3    H160671   2.760   1.451  16.722  1.9149 -0.0845 -0.7056
13060TIP3    H260672   2.817   1.581  16.670  1.2986  0.8114  0.8188
13061TIP3   OH260673   3.320   2.782  16.861  0.4207  0.3605  0.5113
13061TIP3    H160674   3.324   2.855  16.923 -1.9131  0.9656  0.0114
13061TIP3    H260675   3.226   2.766  16.850  0.8974 -2.3639  0.1713
13062TIP3   OH260676   5.080   0.382   3.741  0.1293 -0.4478 -0.2291
13062TIP3    H160677   5.042   0.439   3.674 -1.2022 -1.2212 -0.1631
13062TIP3    H260678   5.083   0.436   3.819  0.8467  0.1802 -0.6840
13063TIP3   OH260679   3.111   2.431   2.715  0.0235  0.2739  0.7563
13063TIP3    H160680   3.032   2.380   2.733 -0.6662  0.2755 -2.0885
13063TIP3    H260681   3.079   2.521   2.703  0.6117  0.4797  0.7025
13064TIP3   OH260682   1.924   2.197   3.223  0.3064 -0.4219 -0.1679
13064TIP3    H160683   1.894   2.225   3.137 -0.2165  1.5749  0.6292
13064TIP3    H260684   2.015   2.226   3.227 -0.2908  1.3922  0.7321
13065TIP3   OH260685   0.026   4.080  14.571 -0.0372  0.0007  0.2669
13065TIP3    H160686   0.075   4.160  14.553 -0.6824  0.9542  2.5461
13065TIP3    H260687  -0.054   4.089  14.519  0.2163  0.5027 -0.0387
13066TIP3   OH260688   2.114   3.440  11.950  0.1525  0.2027 -0.4567
13066TIP3    H160689   2.162   3.413  11.872  2.3073 -0.7462  1.1440
13066TIP3    H260690   2.110   3.535  11.945  0.3050  0.1405 -1.7158
13067TIP3   OH260691   6.551   3.351  12.480 -0.6766  0.0470  0.2629
13067TIP3    H160692   6.469   3.312  12.448 -0.0324  0.0911 -1.5202
13067TIP3    H260693   6.532   3.444  12.487 -0.9796 -0.0316  0.4931
13068TIP3   OH260694   3.306   4.944  14.833  0.1363 -0.2086 -0.1383
13068TIP3    H160695   3.230   4.978  14.786 -0.1098  0.4832  0.7472
13068TIP3    H260696   3.356   4.897  14.767 -0.5814  0.1368 -0.9334
13069TIP3   OH260697   2.515   5.280   5.261 -0.4212 -0.3349 -0.2095
13069TIP3    H160698   2.535   5.324   5.344 -1.6975 -1.3741  0.6843
13069TIP3    H260699   2.505   5.188   5.285 -1.2262 -0.5841 -1.4482
13070TIP3   OH260700   2.552   3.273   2.578 -0.0294  0.0770 -0.0825
13070TIP3    H160701   2.647   3.265   2.574  0.1358  1.1883  1.1053
13070TIP3    H260702   2.525   3.285   2.487  0.8289 -1.5136 -0.5633
13071TIP3   OH260703   2.136   5.042  10.787 -0.3044 -0.1013 -0.2088
13071TIP3    H160704   2.197   5.083  10.726 -0.9589  0.3803 -0.5417
13071TIP3    H260705   2.114   5.111  10.849  1.0780 -0.8301  1.1542
13072TIP3   OH260706   3.264   5.538   3.395 -0.3025 -0.9139 -0.3456
13072TIP3    H160707   3.358   5.518   3.394 -0.1554 -0.2269 -1.6767
13072TIP3    H260708   3.242   5.548   3.487  0.7724 -1.8311  0.0213
13073TIP3   OH260709   6.441   1.768  15.367 -0.5995  0.1300 -0.3621
13073TIP3    H160710   6.429   1.853  15.410  1.0854 -0.8122  2.0637
13073TIP3    H260711   6.521   1.778  15.316  0.1083 -0.3034  0.6722
13074TIP3   OH260712   6.726   3.612   2.908  0.3830  0.2014  0.7829
13074TIP3    H160713   6.795   3.670   2.876  1.6266 -2.5850 -1.8591
13074TIP3    H260714   6.694   3.568   2.829 -0.7910 -2.3723  2.6353
13075TIP3   OH260715   1.677   1.752   2.141 -0.2373  0.7729 -0.4393
13075TIP3    H160716   1.757   1.801   2.119  0.6308 -0.4597 -0.0759
13075TIP3    H260717   1.709   1.669   2.176 -1.6882 -0.7285 -2.5493
13076TIP3   OH260718   4.558   4.987  14.536  0.3981 -0.1560 -0.5400
13076TIP3    H160719   4.605   5.054  14.485  1.1002 -0.5805 -0.4607
13076TIP3    H260720   4.588   4.904  14.500  1.2184 -0.4718  0.8238
13077TIP3   OH260721   5.484   5.237  16.704 -0.0855 -0.4218 -0.1756
13077TIP3    H160722   5.532   5.310  16.745 -0.7956  0.6962 -1.3134
13077TIP3    H260723   5.493   5.165  16.767  1.9457  0.1615  0.2513
13078TIP3   OH260724   2.575   5.329  11.223 -0.6256  0.1090  0.1578
13078TIP3    H160725   2.670   5.332  11.237 -0.7042  0.4777  0.6278
13078TIP3    H260726   2.541   5.282  11.299 -0.8710  0.4412  0.2533
13079TIP3   OH260727   0.957   1.233   2.381 -0.1134  0.2801 -0.3639
13079TIP3    H160728   0.956   1.137   2.380  0.3342  0.2777 -0.9940
13079TIP3    H260729   0.871   1.257   2.417  0.2599 -0.3649  1.0221
13080TIP3   OH260730   5.439   4.125  13.864 -0.1851 -0.1941 -0.3164
13080TIP3    H160731   5.489   4.143  13.784 -2.0217  1.8272 -1.0644
13080TIP3    H260732   5.364   4.184  13.859 -1.2443 -1.2708  2.0794
13081TIP3   OH260733   0.445   3.020  15.120  0.1841 -0.1836  0.2407
13081TIP3    H160734   0.477   3.051  15.206 -1.4232  0.4464  0.6244
13081TIP3    H260735   0.483   3.082  15.058 -0.8772  1.0165  0.7640
13082TIP3   OH260736   6.614   5.547   1.228  0.0269  0.4935 -0.0067
13082TIP3    H160737   6.535   5.506   1.263 -1.0034  1.6858 -0.8869
13082TIP3    H260738   6.638   5.492   1.154  0.0235  0.1394  0.2501
13083TIP3   OH260739   2.488   4.270   2.588 -0.0026 -0.3280  0.7020
13083TIP3    H160740   2.407   4.278   2.639  0.3622  0.9600  1.1056
13083TIP3    H260741   2.470   4.199   2.526 -3.5105  3.4125 -2.9166
13084TIP3   OH260742   3.437   5.509  14.430  0.2968 -0.2274 -0.6079
13084TIP3    H160743   3.360   5.453  14.440  0.5160 -0.3371  0.4953
13084TIP3    H260744   3.436   5.566  14.507  1.8454 -0.8806 -0.0754
13085TIP3   OH260745   1.181   1.825  15.350  0.4835 -0.4508  0.6866
13085TIP3    H160746   1.138   1.805  15.432  1.8379 -1.0476  1.2747
13085TIP3    H260747   1.149   1.758  15.289  0.0846 -0.4850  0.9347
13086TIP3   OH260748   5.169   5.337  11.007 -0.0339  0.1476  0.2062
13086TIP3    H160749   5.234   5.385  11.057 -0.3648  0.6439  0.1625
13086TIP3    H260750   5.095   5.328  11.068  0.3013 -0.9420  0.4634
13087TIP3   OH260751   3.510   4.307  14.451  0.8339 -0.1799 -0.0252
13087TIP3    H160752   3.580   4.255  14.411  0.8675 -0.8863  0.9347
13087TIP3    H260753   3.432   4.283  14.401  1.2349  0.4380 -0.9513
13088TIP3   OH260754   0.776   3.419  12.153 -0.1026  0.3022  0.1898
13088TIP3    H160755   0.804   3.503  12.191 -1.3221  0.0250  1.7448
13088TIP3    H260756   0.853   3.363  12.162  0.2870  0.8496  0.3680
13089TIP3   OH260757   6.376   4.702   5.039 -0.4422 -0.3700  0.2301
13089TIP3    H160758   6.396   4.769   4.973 -0.8009 -1.4007 -0.9343
13089TIP3    H260759   6.282   4.689   5.031 -0.5803 -0.0598  1.3705
13090TIP3   OH260760   0.396   0.622   4.950  0.3016  0.2863 -0.4975
13090TIP3    H160761   0.429   0.708   4.975 -1.0301  1.2854 -2.1146
13090TIP3    H260762   0.321   0.607   5.007  0.2782  0.3862 -0.5021
13091TIP3   OH260763   3.960   1.558  14.419  0.1600 -0.3386  0.4494
13091TIP3    H160764   3.877   1.519  14.391 -0.2071  1.6130 -1.3423
13091TIP3    H260765   4.015   1.556  14.340  0.9647  0.5360  0.9766
13092TIP3   OH260766   3.488   6.230   2.520  0.1164  0.9225 -0.6536
13092TIP3    H160767   3.553   6.175   2.565 -0.6307  0.8754  0.3853
13092TIP3    H260768   3.507   6.319   2.550  0.3008  1.0294 -1.0870
13093TIP3   OH260769   3.985   0.676  11.942  0.1352  0.6132  0.3096
13093TIP3    H160770   4.052   0.739  11.971  1.1137  0.5848 -1.8026
13093TIP3    H260771   3.950   0.713  11.861 -0.2592 -0.8538 -0.2148
13094TIP3   OH260772   4.177   1.656   4.856  0.0622 -0.4362  0.1585
13094TIP3    H160773   4.240   1.711   4.904 -0.4448 -0.7015  1.1506
13094TIP3    H260774   4.223   1.632   4.776  0.2599  1.4945 -0.3340
13095TIP3   OH260775   0.343   4.904   2.725 -0.0363  0.4015  0.6193
13095TIP3    H160776   0.285   4.932   2.655  0.8917 -2.0201 -1.2119
13095TIP3    H260777   0.374   4.985   2.765 -0.8589  1.8336 -1.5545
13096TIP3   OH260778   4.749   3.414  15.095  0.2801  0.0191  0.2455
13096TIP3    H160779   4.735   3.474  15.168 -0.3627 -0.3791  0.4564
13096TIP3    H260780   4.686   3.343  15.110  1.0921 -0.7532  0.0524
13097TIP3   OH260781   4.438   1.917  16.653 -0.2305  0.0804 -0.7162
13097TIP3    H160782   4.442   1.852  16.582  1.4080 -1.5942  0.8566
13097TIP3    H260783   4.521   1.964  16.646 -0.9502  1.2993 -1.1733
13098TIP3   OH260784   3.850   0.358  13.391 -0.3982  0.0140 -0.0620
13098TIP3    H160785   3.945   0.358  13.384 -0.5237 -1.1447 -2.1018
13098TIP3    H260786   3.829   0.276  13.436 -0.4384  0.3813  0.6020
13099TIP3   OH260787   5.413   5.834  15.665  0.0843 -0.0080  0.3878
13099TIP3    H160788   5.422   5.780  15.743  0.1311 -1.6511 -0.7369
13099TIP3    H260789   5.335   5.801  15.621  0.4965  0.3805 -0.6548
13100TIP3   OH260790   1.856   5.583   1.727 -0.3132  0.0810  0.3800
13100TIP3    H160791   1.916   5.547   1.663 -2.0662 -0.2763 -1.1114
13100TIP3    H260792   1.858   5.521   1.800  0.7895 -0.1389  0.1752
13101TIP3   OH260793   6.602   5.534  13.279 -0.4011  0.3914  0.0155
13101TIP3    H160794   6.694   5.538  13.306 -0.0196 -0.6811 -1.0319
13101TIP3    H260795   6.552   5.559  13.357  0.7202 -0.6803  1.0938
13102TIP3   OH260796   5.576   2.630   6.119  0.5702 -0.2706 -0.3261
13102TIP3    H160797   5.612   2.674   6.042 -0.6006  0.6915 -0.3499
13102TIP3    H260798   5.588   2.692   6.190 -0.6921 -0.0682 -0.2700
13103TIP3   OH260799   3.973   5.228  15.340  0.0172 -0.3005  0.3142
13103TIP3    H160800   4.068   5.219  15.333  0.2773  0.7990  2.0841
13103TIP3    H260801   3.960   5.288  15.413 -2.0277  0.3127 -0.5152
13104TIP3   OH260802   3.746   3.323  14.180  0.2436 -0.0727 -0.2343
13104TIP3    H160803   3.755   3.232  14.149  1.5182 -0.6345  1.6806
13104TIP3    H260804   3.711   3.314  14.269  1.9799  1.2497  0.5880
13105TIP3   OH260805   6.726   0.352   6.277 -0.0333 -0.0192  0.3976
13105TIP3    H160806   6.725   0.302   6.195 -3.1617 -0.3065  0.5558
13105TIP3    H260807   6.644   0.328   6.321  0.4676  1.9459  2.5118
13106TIP3   OH260808   1.141   3.502   4.453  0.1309  0.0966  0.0647
13106TIP3    H160809   1.139   3.483   4.360 -0.0957 -1.6998  0.4140
13106TIP3    H260810   1.208   3.443   4.488 -1.4879 -1.0170  1.3872
13107TIP3   OH260811   5.107   3.737  15.778  0.1251  0.1052 -0.5467
13107TIP3    H160812   5.194   3.699  15.770 -0.3365 -0.8135 -1.1958
13107TIP3    H260813   5.123   3.828  15.805  1.2606 -0.1927 -0.2068
13108TIP3   OH260814   5.685   5.605  13.953  0.5697  0.1883  0.2843
13108TIP3    H160815   5.757   5.622  13.892  1.3017  0.7472  1.2905
13108TIP3    H260816   5.688   5.678  14.015 -1.6927  0.9413 -0.4039
13109TIP3   OH260817   3.149   4.717   5.837  0.4161 -0.2536  0.4251
13109TIP3    H160818   3.123   4.780   5.770 -1.9437 -2.7425 -1.1179
13109TIP3    H260819   3.069   4.701   5.887  1.5767 -0.2353  2.3541
13110TIP3   OH260820   1.145   5.232   0.478  0.3074  0.2070 -0.0443
13110TIP3    H160821   1.113   5.303   0.422 -1.1937  0.8435  1.5643
13110TIP3    H260822   1.074   5.219   0.542  1.4805 -1.2978  0.9612
13111TIP3   OH260823   0.766   2.486   5.653  0.3072  0.2509  0.6532
13111TIP3    H160824   0.784   2.580   5.663 -2.1212  0.7865  0.4958
13111TIP3    H260825   0.773   2.451   5.742 -0.5506  0.9546  1.0154
13112TIP3   OH260826   2.489   2.776   0.392  0.1728  0.5390  0.0651
13112TIP3    H160827   2.572   2.770   0.440  0.7515  1.5595 -0.7936
13112TIP3    H260828   2.495   2.707   0.326  1.8119  2.7418 -2.1859
13113TIP3   OH260829   3.080   4.516  15.386  0.4614 -0.1425  0.0877
13113TIP3    H160830   3.002   4.466  15.362 -0.6894  1.4606  0.3717
13113TIP3    H260831   3.112   4.475  15.466  0.4437 -1.3842 -0.5380
13114TIP3   OH260832   2.786   0.935   1.925  0.2349  0.4695  0.3963
13114TIP3    H160833   2.720   0.939   1.995 -0.5219  1.0458 -0.3422
13114TIP3    H260834   2.761   0.858   1.874  0.3616  0.4641  0.3433
13115TIP3   OH260835   0.092   0.343   5.984  0.0649  0.1003  0.0316
13115TIP3    H160836   0.118   0.430   5.953  0.7774  0.6139  1.9238
13115TIP3    H260837   0.158   0.322   6.051 -0.3859 -1.6817 -0.0686
13116TIP3   OH260838   4.552   5.692   0.669  0.7007 -0.3745 -0.1157
13116TIP3    H160839   4.513   5.726   0.588  0.5284  2.3060  1.0555
13116TIP3    H260840   4.527   5.599   0.670 -0.6890 -0.0629 -2.3109
13117TIP3   OH260841   2.580   4.696  13.402  0.5814 -0.0881 -0.4413
13117TIP3    H160842   2.655   4.747  13.433  0.8305 -1.6719  1.6096
13117TIP3    H260843   2.611   4.655  13.321  0.8354  1.8350 -1.3621
13118TIP3   OH260844   4.904   5.519  12.967 -0.4347  0.0504 -0.2902
13118TIP3    H160845   4.818   5.549  12.996 -0.1963  0.9025 -0.4360
13118TIP3    H260846   4.885   5.447  12.907 -1.0008 -0.4487  0.4899
13119TIP3   OH260847   1.716   5.984   0.183  0.1255 -0.3756  0.2958
13119TIP3    H160848   1.727   5.896   0.148 -0.4202 -0.2548 -0.1950
13119TIP3    H260849   1.748   5.979   0.273  0.0249 -1.0883  0.2934
13120TIP3   OH260850   3.427   3.949   0.329 -0.2711 -0.0467  0.0884
13120TIP3    H160851   3.488   3.971   0.259 -0.1102 -1.1405 -0.1200
13120TIP3    H260852   3.439   4.018   0.394  0.2042  0.4905 -0.5638
13121TIP3   OH260853   0.091   3.650  16.469  0.2685 -0.2838 -0.3438
13121TIP3    H160854   0.149   3.724  16.451 -0.6318  0.7599  0.9488
13121TIP3    H260855   0.089   3.645  16.565 -0.8871 -1.0172 -0.4094
13122TIP3   OH260856   4.848   5.162  14.090 -0.7082  0.2840  0.1968
13122TIP3    H160857   4.806   5.085  14.050 -1.1751  1.2341 -1.1645
13122TIP3    H260858   4.775   5.215  14.123 -0.3113 -0.7298  2.8180
13123TIP3   OH260859   0.773   5.491   0.463  0.0382  0.2243  0.5406
13123TIP3    H160860   0.728   5.570   0.434  0.4873  0.6211  0.9195
13123TIP3    H260861   0.703   5.425   0.472 -0.0831  0.0043 -1.6716
13124TIP3   OH260862   2.690   0.730  15.911  0.1794 -0.3228  1.1530
13124TIP3    H160863   2.656   0.768  15.829  1.2514 -2.0484 -0.1224
13124TIP3    H260864   2.758   0.791  15.938  1.1150 -0.7045 -0.2791
13125TIP3   OH260865   3.095   1.353  13.719 -0.1372  0.4463 -0.0426
13125TIP3    H160866   3.084   1.447  13.702  1.1892  0.4385 -1.0080
13125TIP3    H260867   3.182   1.333  13.685 -1.1453 -1.5277 -1.5448
13126TIP3   OH260868   0.591   4.540  14.250 -0.1135 -0.4747  0.2890
13126TIP3    H160869   0.653   4.542  14.177  1.3382 -1.1875  1.4844
13126TIP3    H260870   0.559   4.629  14.256  1.5772  0.1530  0.3054
13127TIP3   OH260871   2.184   5.476   4.537  0.0984 -0.8138 -0.5144
13127TIP3    H160872   2.117   5.530   4.578  0.1686 -0.4679 -0.8493
13127TIP3    H260873   2.139   5.432   4.465  0.6344  0.8421 -1.9103
13128TIP3   OH260874   2.103   1.565  13.642  0.1834 -0.1321 -0.6542
13128TIP3    H160875   2.087   1.546  13.549  0.7252  0.3054 -0.8411
13128TIP3    H260876   2.112   1.660  13.645  1.1607 -0.2339 -0.3128
13129TIP3   OH260877   4.340   0.935   0.124  0.2244 -0.6817  0.1114
13129TIP3    H160878   4.392   0.871   0.076  0.0778 -0.3664 -0.4722
13129TIP3    H260879   4.355   0.913   0.216  1.2745 -0.6768 -0.0537
13130TIP3   OH260880   3.780   3.481   3.311 -0.4637 -0.2771 -0.1938
13130TIP3    H160881   3.691   3.461   3.339 -0.8435  1.1877 -0.2955
13130TIP3    H260882   3.821   3.396   3.298 -2.3768 -0.9836 -1.8000
13131TIP3   OH260883   2.588   6.119   2.010 -0.0048 -0.6359  0.3207
13131TIP3    H160884   2.600   6.147   2.101 -1.0773  1.4099 -0.1424
13131TIP3    H260885   2.497   6.138   1.990  0.7760  1.1209 -1.8740
13132TIP3   OH260886   6.061   6.500  12.694  0.1271  0.0846 -0.0691
13132TIP3    H160887   6.136   6.494  12.635 -0.0750  2.0136 -0.5602
13132TIP3    H260888   6.040   6.594  12.697 -1.3287 -0.2577  1.2299
13133TIP3   OH260889   5.139   1.532  17.186 -0.1080 -0.5303 -0.0277
13133TIP3    H160890   5.229   1.565  17.183  0.0037 -0.9543 -1.9006
13133TIP3    H260891   5.117   1.531  17.279  1.0032  1.7959  0.3081
13134TIP3   OH260892   3.179   3.628   1.988  1.4402  0.5644 -0.0762
13134TIP3    H160893   3.187   3.705   1.932  1.2871  0.9184  0.3794
13134TIP3    H260894   3.142   3.662   2.070 -1.4372 -0.4419 -0.9016
13135TIP3   OH260895   3.435   2.644  10.704  0.0104  0.5518 -0.1194
13135TIP3    H160896   3.492   2.719  10.686  0.8530 -0.0862 -0.1264
13135TIP3    H260897   3.436   2.593  10.622  1.4246 -0.7681  0.6984
13136TIP3   OH260898   2.109   4.032  12.290 -0.1054  0.3207  0.2496
13136TIP3    H160899   2.039   4.055  12.352 -1.3670  1.3196 -1.5064
13136TIP3    H260900   2.181   4.091  12.312  0.2109 -0.6744  2.0413
13137TIP3   OH260901   1.535   3.201  12.896 -0.2226 -0.0968  0.2077
13137TIP3    H160902   1.486   3.153  12.829 -0.8627 -1.7648  1.8300
13137TIP3    H260903   1.469   3.249  12.944  0.0859  0.0982  0.4382
13138TIP3   OH260904   5.847   3.820   2.957 -0.0224  0.1536 -0.0567
13138TIP3    H160905   5.894   3.888   2.907  0.6901 -1.4930 -1.6702
13138TIP3    H260906   5.914   3.755   2.977 -1.0413 -0.8864  0.0108
13139TIP3   OH260907   3.262   2.330   5.696  0.1115  0.1745  0.3775
13139TIP3    H160908   3.211   2.255   5.726  0.8647 -0.6708 -0.4066
13139TIP3    H260909   3.330   2.291   5.641  1.0195  1.3683  0.6544
13140TIP3   OH260910   6.622   2.964  14.275 -0.1662 -0.1203 -0.4205
13140TIP3    H160911   6.569   2.893  14.238 -0.0069  0.3172 -1.5033
13140TIP3    H260912   6.699   2.919  14.312 -0.6066 -0.6135 -0.0965
13141TIP3   OH260913   3.059   0.271   3.190  0.3553  0.1232 -0.6056
13141TIP3    H160914   3.130   0.217   3.155  1.4884  1.4189 -0.3324
13141TIP3    H260915   3.096   0.312   3.267  0.2345  3.0575 -2.0630
13142TIP3   OH260916   3.867   1.709   3.630 -0.0938 -0.0593  1.2823
13142TIP3    H160917   3.813   1.674   3.701  1.5923 -0.2746  2.4911
13142TIP3    H260918   3.945   1.744   3.675  1.4232 -1.0328 -0.5451
13143TIP3   OH260919   0.436   2.533  15.517 -0.1072  0.2572 -0.7934
13143TIP3    H160920   0.352   2.512  15.557  0.2780  1.2517  0.5918
13143TIP3    H260921   0.498   2.473  15.560  0.6505  2.7144  1.6528
13144TIP3   OH260922   3.448   1.400   3.875 -0.2896 -0.1671  0.4869
13144TIP3    H160923   3.462   1.459   3.949  0.5510  0.9869 -0.5734
13144TIP3    H260924   3.353   1.383   3.876 -0.6597  1.7586  0.4065
13145TIP3   OH260925   3.829   1.191   2.325  0.3883  0.0403 -0.0403
13145TIP3    H160926   3.755   1.136   2.299  1.0449 -0.6613 -0.4468
13145TIP3    H260927   3.805   1.279   2.295 -0.4542 -0.1031  0.1873
13146TIP3   OH260928   5.348   0.409   5.529 -0.6433 -0.1548 -0.3638
13146TIP3    H160929   5.347   0.505   5.529 -1.5642 -0.1197  2.4269
13146TIP3    H260930   5.256   0.384   5.531 -0.3972 -1.0920 -0.4230
13147TIP3   OH260931   4.029   0.114   0.493 -0.7362  0.0169 -0.0872
13147TIP3    H160932   4.109   0.156   0.527 -0.5905 -1.3702  1.3549
13147TIP3    H260933   3.959   0.175   0.516 -0.0224  1.6819 -2.1646
13148TIP3   OH260934   4.764   4.962   6.093 -0.6065 -0.0309  0.5926
13148TIP3    H160935   4.716   4.957   6.176 -1.5050  0.9756  0.1435
13148TIP3    H260936   4.841   5.015   6.112 -0.3813 -0.4955  0.9813
13149TIP3   OH260937   0.629   0.068   4.922  0.4964  0.0652 -0.2216
13149TIP3    H160938   0.608   0.106   5.007  1.5502  0.9033 -0.3307
13149TIP3    H260939   0.709   0.018   4.936  0.8976  0.5332 -0.8045
13150TIP3   OH260940   6.117   1.570  12.107 -0.0258  0.0111  0.1870
13150TIP3    H160941   6.157   1.524  12.181  2.4943  0.0062 -1.1439
13150TIP3    H260942   6.186   1.628  12.074 -1.3181  0.4823 -1.7747
13151TIP3   OH260943   3.761   4.433   3.503 -0.2780  0.4513 -0.5256
13151TIP3    H160944   3.738   4.367   3.568 -0.3411 -1.3314 -2.3116
13151TIP3    H260945   3.680   4.451   3.456  0.6089 -1.4829 -2.9242
13152TIP3   OH260946   4.786   5.870  15.482  0.4085 -0.5311 -0.1881
13152TIP3    H160947   4.876   5.888  15.509  0.9833 -1.1139 -1.6924
13152TIP3    H260948   4.784   5.888  15.388 -1.1896 -0.0081 -0.0890
13153TIP3   OH260949   3.171   4.832  15.059  0.5540 -0.2665 -0.6829
13153TIP3    H160950   3.197   4.914  15.102  1.6186 -0.5844 -0.7064
13153TIP3    H260951   3.235   4.821  14.988 -1.1361  0.2034 -2.2980
13154TIP3   OH260952   2.020   4.735  16.153 -0.1738  0.2356  0.0448
13154TIP3    H160953   1.970   4.809  16.119  1.3676  1.7587  1.0067
13154TIP3    H260954   1.959   4.689  16.210 -1.4510  0.1789 -1.3426
13155TIP3   OH260955   0.933   2.651  14.435  0.4836  0.3555  0.1715
13155TIP3    H160956   0.999   2.719  14.449  0.0967  1.4143 -2.8692
13155TIP3    H260957   0.911   2.621  14.523  1.6145  3.2632  1.5096
13156TIP3   OH260958   0.233   6.422  12.100  0.2965  0.1234 -0.0850
13156TIP3    H160959   0.179   6.455  12.172 -0.2511 -0.2155 -0.3395
13156TIP3    H260960   0.321   6.418  12.137  0.1013  0.4140  0.4200
13157TIP3   OH260961   5.576   4.578  15.510 -0.4399 -0.0230  0.2631
13157TIP3    H160962   5.599   4.505  15.567  0.0962 -0.5615 -0.6246
13157TIP3    H260963   5.518   4.633  15.562 -0.3222 -0.7506  1.1578
13158TIP3   OH260964   0.366   5.377  16.969 -0.6066  0.1951 -0.0594
13158TIP3    H160965   0.285   5.389  16.919 -0.5429 -0.5874 -0.3516
13158TIP3    H260966   0.426   5.442  16.931 -0.9455  0.4542 -0.1617
13159TIP3   OH260967   2.636   4.041  15.816  0.2256  0.0633 -0.3866
13159TIP3    H160968   2.600   3.952  15.811  2.9060 -0.9826 -2.8173
13159TIP3    H260969   2.730   4.027  15.830  0.5796  2.5565 -0.0383
13160TIP3   OH260970   2.568   6.573   0.098  0.5726  0.0891  0.6130
13160TIP3    H160971   2.510   6.497   0.106  0.1574  0.2990 -0.3521
13160TIP3    H260972   2.604   6.566   0.010 -1.3183  2.3163 -0.3878
13161TIP3   OH260973   6.022   4.506  10.648  0.2172 -0.1613 -0.1204
13161TIP3    H160974   5.928   4.523  10.647  0.5327  1.6841 -1.2558
13161TIP3    H260975   6.029   4.411  10.636 -1.5124 -0.4621  1.0587
13162TIP3   OH260976   2.311   2.657  15.273  0.4059 -0.3146 -0.3221
13162TIP3    H160977   2.224   2.685  15.300 -0.0128 -0.5716 -1.3857
13162TIP3    H260978   2.341   2.599  15.343  0.2051  0.7059  0.6152
13163TIP3   OH260979   0.371   0.811   3.423 -0.4972  0.1836 -0.2501
13163TIP3    H160980   0.376   0.896   3.379  0.4400 -0.0304 -0.5857
13163TIP3    H260981   0.398   0.748   3.356 -0.6374 -0.3174  0.1633
13164TIP3   OH260982   0.992   4.610  12.596 -0.0472 -0.2882 -0.0389
13164TIP3    H160983   1.054   4.638  12.663  1.0009 -0.5828 -0.8712
13164TIP3    H260984   0.924   4.563  12.644  2.0273 -2.7991  0.5630
13165TIP3   OH260985   1.686   4.431   4.351  0.2826  0.0868  0.1807
13165TIP3    H160986   1.675   4.343   4.386 -0.8489  0.8361  1.7601
13165TIP3    H260987   1.711   4.484   4.426 -1.0427  1.5016 -0.3582
13166TIP3   OH260988   3.242   5.496   1.498  0.4329  0.2713 -0.0840
13166TIP3    H160989   3.193   5.538   1.428  2.9597 -0.6063 -2.4529
13166TIP3    H260990   3.250   5.564   1.565 -0.8834  1.5410 -1.1583
13167TIP3   OH260991   4.061   0.603   6.864 -0.0903  0.0197  0.6518
13167TIP3    H160992   3.971   0.637   6.866 -0.4920 -1.0381  1.0186
13167TIP3    H260993   4.116   0.680   6.876 -0.8855  0.9571 -1.3983
13168TIP3   OH260994   1.128   4.398   5.475  0.2199  0.5005  0.3829
13168TIP3    H160995   1.042   4.356   5.478 -0.6404  2.2575  0.9366
13168TIP3    H260996   1.132   4.441   5.389  0.6001  0.3053  0.2995
13169TIP3   OH260997   2.372   4.642  15.808  0.2045 -0.6434 -0.7667
13169TIP3    H160998   2.326   4.559  15.810 -0.5291 -0.2475 -1.1561
13169TIP3    H260999   2.310   4.706  15.843  1.0015 -0.3691  0.1648
13170TIP3   OH261000   2.819   6.177   3.450  0.7213  0.4956  0.0171
13170TIP3    H161001   2.746   6.130   3.410  0.1238  1.7368 -0.3623
13170TIP3    H261002   2.889   6.174   3.384  1.4742 -1.7740  0.8686
13171TIP3   OH261003   2.568   1.258  16.097  0.0154 -0.2613 -0.5654
13171TIP3    H161004   2.500   1.251  16.165  0.0239  0.2143 -0.5072
13171TIP3    H261005   2.523   1.296  16.022  0.6826  1.9425  0.1365
13172TIP3   OH261006   2.859   2.419   2.491  0.5193  0.0628 -0.5775
13172TIP3    H161007   2.904   2.359   2.431  0.3024 -0.4477 -0.2366
13172TIP3    H261008   2.907   2.410   2.574  0.9151  0.8788 -0.7093
13173TIP3   OH261009   3.004   6.323  14.696 -0.4667 -0.4855 -0.9803
13173TIP3    H161010   3.075   6.263  14.716  0.1908 -0.1812 -2.3293
13173TIP3    H261011   3.023   6.353  14.607 -1.2174  1.0891 -0.6247
13174TIP3   OH261012   4.277   0.881   4.418  0.3000 -0.3838 -0.2218
13174TIP3    H161013   4.241   0.884   4.506  0.0215  0.2790 -0.3551
13174TIP3    H261014   4.312   0.793   4.409  0.6380 -0.3474  0.6731
13175TIP3   OH261015   3.846   4.693  13.003  0.2279  0.3136 -1.0521
13175TIP3    H161016   3.786   4.726  13.070  0.8357 -0.1381 -0.2858
13175TIP3    H261017   3.932   4.725  13.030  0.7776 -1.5745 -0.4973
13176TIP3   OH261018   2.041   4.037   3.723 -0.0402 -0.1412  0.4184
13176TIP3    H161019   2.100   4.109   3.745  0.5337 -0.2024 -0.8713
13176TIP3    H261020   2.086   3.959   3.753 -1.0294  0.0840  2.5592
13177TIP3   OH261021   3.293   3.005  11.842  0.4915  0.1415  0.0296
13177TIP3    H161022   3.343   2.927  11.864  1.3016  0.6514  0.0101
13177TIP3    H261023   3.310   3.020  11.749  0.7175  0.6153  0.1458
13178TIP3   OH261024   2.418   4.974  12.856  0.0411  0.6419 -0.2821
13178TIP3    H161025   2.445   5.042  12.917  0.2545  1.3873 -1.1852
13178TIP3    H261026   2.489   4.969  12.792 -0.5189  0.4118 -0.8983
13179TIP3   OH261027   4.029   1.445  15.090  0.8571  0.1109 -0.4705
13179TIP3    H161028   3.958   1.494  15.048 -0.1507 -1.0059 -0.1179
13179TIP3    H261029   3.988   1.364  15.119  2.3025 -0.5729 -0.2827
13180TIP3   OH261030   3.154   5.000   2.593  0.0680 -0.1308  0.4108
13180TIP3    H161031   3.125   5.043   2.673  0.4070  0.4945  0.1984
13180TIP3    H261032   3.082   5.014   2.530  0.6120  1.0087  0.0301
13181TIP3   OH261033   5.122   0.976   2.694  0.1617 -0.0747 -0.4318
13181TIP3    H161034   5.196   0.915   2.693 -0.4388 -0.8509  0.8054
13181TIP3    H261035   5.146   1.044   2.631  1.6878 -0.5913 -0.4292
13182TIP3   OH261036   3.064   6.123  11.702 -0.4927 -0.2270  0.0969
13182TIP3    H161037   3.004   6.195  11.684 -1.1664 -1.0122 -0.8308
13182TIP3    H261038   3.124   6.122  11.627 -1.5314 -1.6903 -0.7332
13183TIP3   OH261039   1.669   4.094  13.807  0.0135 -0.2988  0.0217
13183TIP3    H161040   1.642   4.003  13.813  0.3957 -0.3840  0.4599
13183TIP3    H261041   1.636   4.124  13.722 -3.8926  0.4024  1.6901
13184TIP3   OH261042   2.699   2.051   3.242  0.2339 -0.5260  0.2772
13184TIP3    H161043   2.763   2.122   3.252  1.1714 -1.3665  0.3020
13184TIP3    H261044   2.715   1.994   3.316  1.5839 -2.3988 -1.4035
13185TIP3   OH261045   5.013   3.981  14.227  0.0516  0.6918 -0.2513
13185TIP3    H161046   4.968   4.021  14.301 -3.3092 -1.3029 -1.1385
13185TIP3    H261047   4.989   4.034  14.151 -1.2641 -0.6772 -0.8116
13186TIP3   OH261048   1.971   1.543  17.185  0.1584 -0.4170  0.6339
13186TIP3    H161049   1.908   1.563  17.254  0.4536 -0.3277  0.8770
13186TIP3    H261050   2.030   1.618  17.184 -0.8235  0.3622 -0.8274
13187TIP3   OH261051   0.877   0.698  11.742  0.2088 -0.0482  0.1082
13187TIP3    H161052   0.936   0.668  11.673 -1.5789  1.6269 -2.2358
13187TIP3    H261053   0.933   0.748  11.801  1.7246 -1.2878 -0.2519
13188TIP3   OH261054   1.189   5.581  11.762 -0.0833 -0.9246 -0.6940
13188TIP3    H161055   1.194   5.569  11.667 -1.4638  1.5035 -1.1068
13188TIP3    H261056   1.231   5.666  11.778 -2.3896  0.0187  0.5281
13189TIP3   OH261057   3.543   4.073  13.246 -0.8413  0.0374 -0.4437
13189TIP3    H161058   3.542   4.141  13.313  0.6349 -2.2386  1.9985
13189TIP3    H261059   3.636   4.063  13.224 -1.0610 -1.0776 -0.8757
13190TIP3   OH261060   0.128   2.709   2.126  0.3614  0.4952  0.2220
13190TIP3    H161061   0.200   2.650   2.148  0.3219  0.5873  0.5993
13190TIP3    H261062   0.111   2.758   2.207 -2.7282 -2.2448  1.3690
13191TIP3   OH261063   0.663   2.179  13.002 -0.5246 -0.0185  0.5287
13191TIP3    H161064   0.723   2.149  13.070  0.4069  0.4711 -0.0681
13191TIP3    H261065   0.646   2.100  12.950  1.3407  0.2864 -0.5966
13192TIP3   OH261066   3.701   4.819  11.750 -0.1883 -0.6087 -0.4261
13192TIP3    H161067   3.664   4.875  11.683  0.3800 -0.4291 -0.5908
13192TIP3    H261068   3.760   4.876  11.800 -0.9267 -0.6396  0.4887
13193TIP3   OH261069   1.631   5.073   4.658  0.2194 -0.4913  0.5348
13193TIP3    H161070   1.665   5.162   4.667 -0.8522 -0.1878  1.7091
13193TIP3    H261071   1.551   5.072   4.711 -0.6911 -1.6748 -0.8352
13194TIP3   OH261072   0.390   0.550   2.672 -0.2967 -0.2572 -0.9402
13194TIP3    H161073   0.429   0.619   2.618 -0.0590  0.3683  0.0174
13194TIP3    H261074   0.423   0.568   2.760 -2.5773  0.1668 -0.1507
13195TIP3   OH261075   3.661   5.618  12.362 -0.2879  0.1547  0.6614
13195TIP3    H161076   3.732   5.623  12.426 -0.1417  1.3695  0.4210
13195TIP3    H261077   3.626   5.530  12.372  0.6943 -0.1686  1.3847
13196TIP3   OH261078   0.262   1.800  12.669  0.4434  0.0834 -0.5519
13196TIP3    H161079   0.353   1.771  12.675  0.3866  0.1609  0.7963
13196TIP3    H261080   0.211   1.722  12.690  0.1998  0.1610 -0.8558
13197TIP3   OH261081   0.365   4.975  14.525 -0.2627  0.1963 -0.1360
13197TIP3    H161082   0.279   4.988  14.485 -0.3846  0.1119  0.0986
13197TIP3    H261083   0.372   5.043  14.591 -0.7816 -0.7181  0.8892
13198TIP3   OH261084   2.990   5.596   0.936 -0.4792  0.2545  0.1207
13198TIP3    H161085   2.924   5.664   0.924 -0.4659  0.1785 -0.4187
13198TIP3    H261086   3.070   5.634   0.899 -0.9018 -0.7487 -1.9012
13199TIP3   OH261087   0.421   6.613  10.648  0.2923 -0.6027 -0.9223
13199TIP3    H161088   0.334   6.627  10.685  0.0793 -2.0094 -0.8405
13199TIP3    H261089   0.426   6.518  10.635  2.3328 -0.7154  0.3811
13200TIP3   OH261090   5.276   3.266  12.899 -0.2942  0.1065 -0.4957
13200TIP3    H161091   5.192   3.299  12.932 -0.2001 -0.8966  0.8112
13200TIP3    H261092   5.253   3.214  12.822 -0.4521  3.0909 -2.5279
13201TIP3   OH261093   5.207   0.762   3.909  0.1781  0.0987  0.3251
13201TIP3    H161094   5.139   0.695   3.901 -0.5553  0.9215 -0.5145
13201TIP3    H261095   5.172   0.824   3.973 -1.5027  2.4180 -2.7365
13202TIP3   OH261096   0.549   5.356   0.431  0.5352  0.3033 -0.5730
13202TIP3    H161097   0.502   5.285   0.474  2.8571 -0.0148  1.6116
13202TIP3    H261098   0.490   5.431   0.438 -0.0352 -0.2757  1.3508
13203TIP3   OH261099   0.352   1.710   4.147 -0.2564  0.0484 -0.2783
13203TIP3    H161100   0.293   1.737   4.077 -1.5145  2.4460  1.5866
13203TIP3    H261101   0.429   1.765   4.136 -0.0296 -0.2912 -0.3852
13204TIP3   OH261102   5.070   5.301  14.200 -0.1806 -0.1729  0.2725
13204TIP3    H161103   5.056   5.386  14.159  0.1633  0.0073  0.5208
13204TIP3    H261104   5.005   5.243  14.159  0.8739 -0.2673 -1.3029
13205TIP3   OH261105   6.231   4.055   3.817 -0.0594 -0.2466  0.0280
13205TIP3    H161106   6.218   3.963   3.795 -1.1347 -0.5942  1.9685
13205TIP3    H261107   6.239   4.056   3.912 -0.1902  1.6819  0.0452
13206TIP3   OH261108   5.990   4.868  11.394  0.7010 -0.3782 -0.2773
13206TIP3    H161109   5.912   4.922  11.406  0.4881 -0.5539 -0.8483
13206TIP3    H261110   6.033   4.905  11.317  0.5902 -0.9793 -0.6312
13207TIP3   OH261111   5.369   1.147  13.190 -0.1668  0.2002  0.7838
13207TIP3    H161112   5.422   1.124  13.114 -2.4333  0.1262 -0.8463
13207TIP3    H261113   5.396   1.235  13.213  0.3780  0.3167 -0.2841
13208TIP3   OH261114   1.337   4.134  10.632 -0.2352  0.7697  0.5928
13208TIP3    H161115   1.251   4.176  10.636 -1.1668 -0.8858 -1.0795
13208TIP3    H261116   1.383   4.179  10.562  0.6034  2.1974  2.0205
13209TIP3   OH261117   5.965   1.380  15.379  0.2249  0.4101 -0.1860
13209TIP3    H161118   6.017   1.318  15.431 -0.4929  0.3325  0.4547
13209TIP3    H261119   5.893   1.404  15.437  0.9978  2.5736 -0.0760
13210TIP3   OH261120   6.671   0.325  11.623 -0.7830 -0.4623 -0.0869
13210TIP3    H161121   6.702   0.246  11.668 -2.2331 -1.2675 -0.4834
13210TIP3    H261122   6.605   0.293  11.562 -1.6234  1.1118 -0.0125
13211TIP3   OH261123   1.789   4.715   1.035  0.0313  0.8944 -0.4050
13211TIP3    H161124   1.785   4.697   1.129 -0.9546  1.7192 -0.2822
13211TIP3    H261125   1.700   4.741   1.012 -0.2209 -1.2135 -1.9661
13212TIP3   OH261126   2.903   4.062   2.015 -0.5866  0.0721 -0.0060
13212TIP3    H161127   2.947   4.062   1.930 -0.8571  1.8626 -0.1621
13212TIP3    H261128   2.870   3.973   2.025  0.6951 -0.5484 -1.1208
13213TIP3   OH261129   5.166   3.162   3.535  0.2090 -0.0739 -0.1889
13213TIP3    H161130   5.245   3.211   3.511  1.6038 -0.9012  2.5319
13213TIP3    H261131   5.159   3.094   3.468  3.2041 -1.4603  0.8301
13214TIP3   OH261132   5.038   5.428  16.293  0.2080 -0.3107  0.1065
13214TIP3    H161133   4.999   5.513  16.274  0.4577 -0.5195 -1.3750
13214TIP3    H261134   5.131   5.440  16.278  0.2549 -0.8329 -0.0395
13215TIP3   OH261135   4.739   5.207   3.484  0.5669 -0.5288 -0.1851
13215TIP3    H161136   4.811   5.263   3.454  0.1887 -0.3852 -0.8439
13215TIP3    H261137   4.753   5.198   3.578  1.2828 -0.2656 -0.2605
13216TIP3   OH261138   3.035   2.430  16.278 -0.3043  0.2361 -0.0746
13216TIP3    H161139   3.130   2.421  16.270  0.0094  2.2290  1.0478
13216TIP3    H261140   3.016   2.514  16.236 -1.4166  0.3450  0.6402
13217TIP3   OH261141   0.020   6.418  13.292  0.4299  0.1753 -0.3142
13217TIP3    H161142   0.006   6.491  13.353  1.3732 -1.1521  1.5299
13217TIP3    H261143  -0.065   6.376  13.286  0.3978  0.1320  0.3445
13218TIP3   OH261144   6.598   1.047  10.825 -0.0678  0.5393  0.0093
13218TIP3    H161145   6.592   0.952  10.814 -1.8219  0.6280  0.1567
13218TIP3    H261146   6.648   1.077  10.748 -0.5972 -0.3499 -0.6843
13219TIP3   OH261147   3.009   3.930   1.805 -0.9221 -0.2457  0.3570
13219TIP3    H161148   2.960   3.867   1.857 -0.3141 -1.2942 -0.3165
13219TIP3    H261149   2.972   3.923   1.717 -1.2096  0.7285  0.3942
13220TIP3   OH261150   4.842   1.906  16.379 -0.0309  0.2268 -0.0322
13220TIP3    H161151   4.890   1.970  16.327 -1.7747  2.0482  0.5089
13220TIP3    H261152   4.789   1.858  16.316  1.4095 -0.8440 -0.4641
13221TIP3   OH261153   0.089   2.879  14.369  0.0097 -0.3077 -0.3146
13221TIP3    H161154   0.076   2.853  14.460 -1.3657 -2.2531 -1.0393
13221TIP3    H261155   0.184   2.895  14.363  0.2715 -1.1320  1.2148
13222TIP3   OH261156   6.016   3.020   5.395 -0.1255 -0.3620  0.1027
13222TIP3    H161157   5.967   3.027   5.477 -1.1921 -4.0859 -0.1355
13222TIP3    H261158   5.965   3.072   5.333 -0.8731  0.1307  1.1022
13223TIP3   OH261159   2.037   4.672  16.473  0.5654  0.1382 -0.0911
13223TIP3    H161160   2.080   4.680  16.559 -0.4844  0.3670  0.4170
13223TIP3    H261161   2.104   4.701  16.411  0.7372  1.7247  0.7974
13224TIP3   OH261162   6.088   0.976  12.862  0.2753  0.1176  0.1324
13224TIP3    H161163   6.107   0.977  12.956 -2.0500 -2.0193  0.6630
13224TIP3    H261164   6.040   1.058  12.848 -1.4714 -0.6783  1.2950
13225TIP3   OH261165   0.661   2.050  16.730  0.1959  0.1410 -0.4014
13225TIP3    H161166   0.757   2.050  16.724  0.4117 -0.6016  2.2866
13225TIP3    H261167   0.633   1.982  16.669  1.5721 -1.7001  0.9897
13226TIP3   OH261168   1.908   1.758  11.791  0.2667 -0.3807  0.2653
13226TIP3    H161169   1.880   1.849  11.795  1.5191  0.1323 -1.6589
13226TIP3    H261170   1.994   1.757  11.834  0.4046 -0.5765 -0.0100
13227TIP3   OH261171   5.387   6.239   1.998 -0.2163  0.0698 -0.4772
13227TIP3    H161172   5.347   6.228   1.912 -0.1508 -0.2476 -0.4684
13227TIP3    H261173   5.480   6.256   1.980 -0.4577  1.4242 -0.5232
13228TIP3   OH261174   2.748   0.786   1.295 -0.4786 -0.1000  0.1435
13228TIP3    H161175   2.759   0.807   1.202 -1.1800 -0.7071 -0.0755
13228TIP3    H261176   2.687   0.712   1.296  0.9522 -1.3055  0.9777
13229TIP3   OH261177   4.114   5.329  15.905 -0.2435 -1.1444  0.2533
13229TIP3    H161178   4.111   5.351  15.811  0.9295 -0.4224  0.3717
13229TIP3    H261179   4.033   5.281  15.921 -0.5747 -1.0523 -1.0838
13230TIP3   OH261180   1.600   3.847  14.151 -0.3639  0.5676 -0.5044
13230TIP3    H161181   1.691   3.826  14.171 -0.4839  1.6583  1.2911
13230TIP3    H261182   1.580   3.796  14.072  1.5947 -0.1702 -0.5442
13231TIP3   OH261183   1.688   6.054  13.083  0.0987 -0.2399 -0.2208
13231TIP3    H161184   1.672   6.023  12.994  2.3267  1.9783 -1.4511
13231TIP3    H261185   1.615   6.113  13.102 -1.2758 -2.0038  0.1017
13232TIP3   OH261186   3.131   5.139   2.868  0.2539  0.3536  0.4288
13232TIP3    H161187   3.121   5.190   2.948 -1.2710  1.7317 -0.6079
13232TIP3    H261188   3.069   5.067   2.876 -1.1806  1.4877 -0.2572
13233TIP3   OH261189   2.112   6.204  14.819  0.0034 -0.0212  0.2047
13233TIP3    H161190   2.057   6.159  14.883 -0.1507  0.2419  0.2619
13233TIP3    H261191   2.065   6.193  14.736 -0.4855  0.7759  0.3668
13234TIP3   OH261192   1.305   2.940   4.558 -0.1242 -0.6900  0.3851
13234TIP3    H161193   1.377   2.977   4.509  1.5690 -2.5166  1.4048
13234TIP3    H261194   1.330   2.950   4.650 -1.5395 -0.6404  0.7873
13235TIP3   OH261195   3.976   5.805   0.809 -0.1480  0.1452  0.4112
13235TIP3    H161196   3.914   5.772   0.744 -1.1295  0.9997  0.8997
13235TIP3    H261197   3.985   5.898   0.789 -0.6480  0.4676  1.6371
13236TIP3   OH261198   1.897   4.666  15.075  0.2924 -0.9729 -0.0558
13236TIP3    H161199   1.920   4.732  15.140 -1.2954  0.6834 -1.0973
13236TIP3    H261200   1.970   4.667  15.013 -0.9460  1.9659 -1.6259
13237TIP3   OH261201   0.678   1.226   2.503  0.3319 -0.4978 -0.0239
13237TIP3    H161202   0.715   1.191   2.585  0.3346 -0.9715 -0.2274
13237TIP3    H261203   0.630   1.304   2.530  1.9388  0.4503  0.1846
13238TIP3   OH261204   2.148   0.576  16.326 -0.3881  0.0988  0.2709
13238TIP3    H161205   2.194   0.503  16.367 -0.6518 -1.0948 -1.4881
13238TIP3    H261206   2.094   0.613  16.396 -0.3406 -1.4679  1.1651
13239TIP3   OH261207   6.560   1.427  16.926 -0.4941 -0.2819  0.1958
13239TIP3    H161208   6.489   1.397  16.983 -0.5840  0.6835  0.6121
13239TIP3    H261209   6.613   1.483  16.983 -1.7638  2.4160 -1.1896
13240TIP3   OH261210   0.832   1.679   2.221  0.4484  0.1978  0.3657
13240TIP3    H161211   0.849   1.587   2.242 -0.4980  0.0801  0.6490
13240TIP3    H261212   0.754   1.677   2.165  1.5727  0.6863 -1.2451
13241TIP3   OH261213   0.956   1.065  17.262 -0.0233  0.1767  0.2830
13241TIP3    H161214   1.018   0.992  17.259 -0.2332 -0.0562  1.2641
13241TIP3    H261215   0.878   1.028  17.304 -0.6724  0.5802 -0.5524
13242TIP3   OH261216   4.531   3.328  11.854 -0.2996 -0.0805 -0.3012
13242TIP3    H161217   4.444   3.312  11.819  0.0694  0.1447 -1.3504
13242TIP3    H261218   4.589   3.324  11.778  0.2989  2.1851 -0.0186
13243TIP3   OH261219   0.290   0.363   2.910 -0.2199  0.0219 -0.1511
13243TIP3    H161220   0.292   0.345   2.816 -2.0619 -0.2893 -0.1342
13243TIP3    H261221   0.204   0.401   2.926  0.1816  0.3395  1.3792
13244TIP3   OH261222   1.475   0.207   5.752  0.2984  0.6734 -0.1438
13244TIP3    H161223   1.393   0.157   5.752 -0.6306  2.1660  0.8676
13244TIP3    H261224   1.542   0.143   5.776 -0.1869 -1.1166 -3.2360
13245TIP3   OH261225   2.363   4.817  12.462  0.3889 -0.1098  0.0529
13245TIP3    H161226   2.392   4.727  12.449 -1.0493 -0.6417  0.4452
13245TIP3    H261227   2.282   4.824  12.411 -0.7989  0.2473  1.9312
13246TIP3   OH261228   4.380   2.703   4.987 -0.0858 -0.0415  0.3622
13246TIP3    H161229   4.300   2.728   5.034  0.3270  0.1040  0.9927
13246TIP3    H261230   4.359   2.620   4.946 -1.4937  1.3400 -1.7868
13247TIP3   OH261231   4.334   5.729  13.752  0.1669  0.4351  0.2378
13247TIP3    H161232   4.308   5.821  13.745  0.4008  0.6361  1.9562
13247TIP3    H261233   4.299   5.689  13.672 -0.1336  1.9580 -0.4147
13248TIP3   OH261234   4.296   5.741   0.765  0.2387 -0.0167 -0.3847
13248TIP3    H161235   4.276   5.834   0.757  1.6066  0.4121  0.7694
13248TIP3    H261236   4.392   5.739   0.775  0.1509 -1.4939  0.2233
13249TIP3   OH261237   2.481   4.047  17.090 -0.5084  0.1740  0.3318
13249TIP3    H161238   2.497   4.134  17.055  2.5086  0.3183  1.8424
13249TIP3    H261239   2.532   3.988  17.034 -0.3359 -0.2728  0.9465
13250TIP3   OH261240   1.326   0.684  14.980 -0.1480 -0.0503  0.5185
13250TIP3    H161241   1.242   0.717  14.949 -0.5575 -0.6525  1.0055
13250TIP3    H261242   1.367   0.759  15.023 -0.6423  0.0995  0.7215
13251TIP3   OH261243   1.416   3.263  16.373 -0.0767  0.0564 -0.0253
13251TIP3    H161244   1.368   3.207  16.312  0.6557  0.4285 -0.9595
13251TIP3    H261245   1.478   3.204  16.416  2.2813  0.5314 -2.6641
13252TIP3   OH261246   0.880   6.765  17.006 -0.2889 -0.4048 -0.2014
13252TIP3    H161247   0.937   6.809  16.944  0.4680  1.6373  1.8683
13252TIP3    H261248   0.891   6.672  16.988 -0.0351  0.1461 -3.0268
13253TIP3   OH261249   5.127   3.848  14.673  0.2191 -0.1632  0.2140
13253TIP3    H161250   5.185   3.895  14.614 -0.1960  0.9839  0.7154
13253TIP3    H261251   5.060   3.912  14.698  0.5364 -0.5541  2.1233
13254TIP3   OH261252   0.886   1.403  15.396  0.0514 -0.1153  0.1162
13254TIP3    H161253   0.884   1.383  15.302  0.7229  0.2589  0.0216
13254TIP3    H261254   0.931   1.328  15.435  1.0796  0.4092 -0.0410
13255TIP3   OH261255   1.051   1.940   6.030  0.2029 -0.0211  0.1152
13255TIP3    H161256   1.079   1.974   6.116  1.7760  0.2591 -0.4881
13255TIP3    H261257   1.128   1.892   5.998 -1.0426 -1.7846 -0.2945
13256TIP3   OH261258   5.879   4.958  16.964  0.2685 -1.1724 -0.1866
13256TIP3    H161259   5.956   4.996  17.007  0.1144  0.8928 -1.6869
13256TIP3    H261260   5.914   4.882  16.917  1.3027 -0.5599 -0.4366
13257TIP3   OH261261   4.392   1.744  16.456 -0.4174  0.0919 -0.1486
13257TIP3    H161262   4.333   1.697  16.515  0.0263  0.9230  0.9773
13257TIP3    H261263   4.416   1.680  16.389  0.7025 -1.4974  1.7258
13258TIP3   OH261264   6.310   1.634   1.086 -0.4334  0.3976  0.0398
13258TIP3    H161265   6.316   1.661   1.178 -0.6606  0.4431  0.0417
13258TIP3    H261266   6.391   1.586   1.070 -0.0673  1.0045  0.0629
13259TIP3   OH261267   5.220   5.880   4.834  0.2503  0.8060  0.0784
13259TIP3    H161268   5.195   5.966   4.800  0.7388  1.2960  0.9515
13259TIP3    H261269   5.269   5.899   4.914 -0.3654 -0.3280  0.7237
13260TIP3   OH261270   1.865   2.485  14.817  0.2133 -0.0424 -0.5807
13260TIP3    H161271   1.777   2.522  14.821  1.2236  2.4112  0.4565
13260TIP3    H261272   1.877   2.459  14.726 -1.5847 -0.4025 -0.7145
13261TIP3   OH261273   4.404   3.597   4.752 -0.2527 -0.1339 -0.7054
13261TIP3    H161274   4.458   3.518   4.749  0.1350  0.0687  0.7951
13261TIP3    H261275   4.460   3.666   4.716  0.6529  0.1617  1.2425
13262TIP3   OH261276   3.465   6.350  16.807  0.4154  0.6029 -0.8586
13262TIP3    H161277   3.560   6.344  16.809  0.4610  0.9943 -1.7481
13262TIP3    H261278   3.440   6.362  16.899  1.5565  4.8468 -1.0027
13263TIP3   OH261279   6.012   6.671  13.501  0.4467 -0.2808 -0.3621
13263TIP3    H161280   6.008   6.668  13.406  0.8169  0.8064 -0.4157
13263TIP3    H261281   6.068   6.747  13.521 -1.9818  1.2887  0.7478
13264TIP3   OH261282   1.189   5.742  10.930  0.3148  0.7366 -0.0173
13264TIP3    H161283   1.278   5.711  10.916 -0.1147 -0.5878  0.1111
13264TIP3    H261284   1.199   5.826  10.974  1.4733 -0.0272  1.2121
13265TIP3   OH261285   2.594   0.225   6.049  0.0822 -0.4917 -0.1788
13265TIP3    H161286   2.668   0.269   6.092 -0.7684  0.9462 -0.1550
13265TIP3    H261287   2.516   0.265   6.088 -0.7843 -3.8401  1.7361
13266TIP3   OH261288   5.916   6.182  13.119 -0.3530  0.1018  0.1625
13266TIP3    H161289   5.973   6.233  13.062  1.0019 -1.5426  0.0154
13266TIP3    H261290   5.863   6.247  13.166  0.3161  1.5530 -1.0865
13267TIP3   OH261291   0.405   5.764   3.991  0.2000  0.0461 -0.1721
13267TIP3    H161292   0.328   5.773   4.048 -0.4179 -1.5803 -0.7270
13267TIP3    H261293   0.479   5.761   4.051 -0.1792  1.3007  0.3837
13268TIP3   OH261294   3.314   5.029  11.968 -0.2483 -0.1656  0.1869
13268TIP3    H161295   3.272   5.002  12.049 -1.6151 -2.2660 -1.2001
13268TIP3    H261296   3.303   5.124  11.967 -1.0142 -0.2065  2.0109
13269TIP3   OH261297   3.204   5.284   1.164  0.0111 -0.7404  0.3304
13269TIP3    H161298   3.205   5.279   1.069  0.0571 -0.5950  0.3230
13269TIP3    H261299   3.280   5.232   1.192  1.0615  0.6963  0.2168
13270TIP3   OH261300   4.902   1.585  11.361 -0.0001 -0.0522 -0.3932
13270TIP3    H161301   4.868   1.502  11.327  0.3627 -1.1034  1.7469
13270TIP3    H261302   4.844   1.607  11.434  2.2705 -0.4743  1.5707
13271TIP3   OH261303   2.795   2.610   1.632 -0.0789  0.0283  0.5931
13271TIP3    H161304   2.704   2.636   1.622  0.0164  1.0393  2.2193
13271TIP3    H261305   2.794   2.549   1.706  0.6689  0.6208  1.0958
13272TIP3   OH261306   2.063   0.526  11.600 -0.4045 -0.2462  0.3140
13272TIP3    H161307   2.115   0.606  11.606 -1.0493  0.3740 -2.0801
13272TIP3    H261308   2.065   0.502  11.508 -2.1972 -1.6605  0.6023
13273TIP3   OH261309   5.053   1.386  14.731  0.6916  0.0545 -0.3245
13273TIP3    H161310   5.081   1.415  14.817 -1.7217 -2.3230  1.3631
13273TIP3    H261311   5.116   1.318  14.706  1.1193  0.4192 -0.2425
13274TIP3   OH261312   0.036   6.811  14.445 -0.3689 -0.0477 -0.3339
13274TIP3    H161313  -0.031   6.863  14.491  0.5589 -0.6637  1.7885
13274TIP3    H261314   0.017   6.825  14.352 -1.3053  2.5644  0.1920
13275TIP3   OH261315   2.835   6.273  12.998  0.4889  0.0675 -0.0759
13275TIP3    H161316   2.895   6.348  12.993 -0.9186  1.1353 -1.9244
13275TIP3    H261317   2.886   6.199  12.968  1.2590  0.7212 -0.4019
13276TIP3   OH261318   6.141   3.256  17.193  0.5675 -0.2576  0.4131
13276TIP3    H161319   6.212   3.192  17.202  0.9400  0.3115  1.5778
13276TIP3    H261320   6.175   3.336  17.232 -1.2159 -0.3664  2.3118
13277TIP3   OH261321   2.639   4.861   4.030 -0.0182  0.1920 -0.0809
13277TIP3    H161322   2.587   4.884   3.953  0.4549  0.1470 -0.4238
13277TIP3    H261323   2.706   4.930   4.035  0.5423 -0.3322 -0.2830
13278TIP3   OH261324   4.426   2.405   3.756 -0.3256 -0.4861 -0.2415
13278TIP3    H161325   4.454   2.483   3.805  0.0106 -0.6071 -0.2445
13278TIP3    H261326   4.427   2.434   3.664 -1.5880 -0.0604 -0.1330
13279TIP3   OH261327   4.647   0.793  15.163 -0.4738 -0.0764 -0.2079
13279TIP3    H161328   4.571   0.777  15.219 -0.8704  0.6379 -0.5463
13279TIP3    H261329   4.691   0.868  15.203  1.4368 -1.9899  1.4223
13280TIP3   OH261330   4.965   2.275   4.527 -0.1267  0.0962  0.2568
13280TIP3    H161331   5.028   2.326   4.476 -2.0085  1.7179 -0.4756
13280TIP3    H261332   5.005   2.269   4.614  0.9446  1.2673 -0.1321
13281TIP3   OH261333   1.328   3.948  12.175  0.3251 -0.0652 -0.0771
13281TIP3    H161334   1.307   3.888  12.246 -0.0259  1.4445  1.1204
13281TIP3    H261335   1.283   3.912  12.099 -1.2519 -0.4404  1.0026
13282TIP3   OH261336   1.366   1.079   0.195 -0.0480 -0.8977 -0.0263
13282TIP3    H161337   1.436   1.088   0.261 -0.1346  0.3778 -0.1016
13282TIP3    H261338   1.346   0.985   0.195 -0.4406 -0.8564  2.1761
13283TIP3   OH261339   2.452   1.640   5.172 -0.0666 -0.5898  0.3557
13283TIP3    H161340   2.400   1.589   5.234 -0.3203  1.3577  1.8060
13283TIP3    H261341   2.449   1.729   5.207  1.3010  0.2018 -1.4924
13284TIP3   OH261342   2.412   3.674  15.492  0.5152  0.0249  0.6502
13284TIP3    H161343   2.317   3.687  15.486  0.4047 -1.2914 -0.8522
13284TIP3    H261344   2.422   3.583  15.521  1.3143  0.5163  1.9431
13285TIP3   OH261345   1.352   2.562   0.249 -1.0697  0.1590 -0.0963
13285TIP3    H161346   1.259   2.557   0.271 -0.6834  1.9474  2.1775
13285TIP3    H261347   1.354   2.586   0.157 -2.8396 -1.5489 -0.5946
13286TIP3   OH261348   1.815   1.980  10.676  0.1865  0.0868 -0.5538
13286TIP3    H161349   1.851   2.037  10.608  1.1226  0.7198  0.4550
13286TIP3    H261350   1.841   2.021  10.758  1.8490 -2.4096  0.2058
13287TIP3   OH261351   3.268   3.974  13.666  0.5179 -0.2196 -0.2031
13287TIP3    H161352   3.287   3.928  13.747  0.1995  0.6530  0.3774
13287TIP3    H261353   3.296   3.914  13.597 -0.6445 -1.6258  0.5129
13288TIP3   OH261354   4.418   4.700  12.696  0.2246  0.1991  0.1094
13288TIP3    H161355   4.350   4.704  12.628  0.3519  2.0584  0.0774
13288TIP3    H261356   4.480   4.768  12.672  0.8497  0.1293  1.4993
13289TIP3   OH261357   0.385   0.818   5.552 -0.5000  0.8261  0.7172
13289TIP3    H161358   0.380   0.797   5.459  0.4085 -0.6910  0.9875
13289TIP3    H261359   0.451   0.887   5.558  0.9055 -0.4614  0.4233
13290TIP3   OH261360   4.994   2.511   3.668 -0.3976 -0.0537 -0.4724
13290TIP3    H161361   5.067   2.452   3.649  0.2663  0.5895  0.0906
13290TIP3    H261362   4.999   2.526   3.763 -0.3943  1.1299 -0.6502
13291TIP3   OH261363   3.938   4.810  15.067  0.2661 -0.3620 -0.1063
13291TIP3    H161364   3.858   4.786  15.021 -1.1017  1.6996  1.1306
13291TIP3    H261365   3.929   4.903  15.085  2.4728 -0.3169  0.9688
13292TIP3   OH261366   0.079   1.891  11.146  0.0742  0.5549  0.7912
13292TIP3    H161367   0.032   1.824  11.196 -1.9765  1.6596  0.4255
13292TIP3    H261368   0.136   1.933  11.210  0.3089 -0.5919  1.3410
13293TIP3   OH261369   0.489   6.311   3.659  0.0102  0.3936 -0.8705
13293TIP3    H161370   0.461   6.271   3.576 -0.3486  0.0751 -0.5989
13293TIP3    H261371   0.567   6.261   3.684  0.5555  0.9711 -1.3854
13294TIP3   OH261372   3.630   6.599  13.386  0.6109 -0.6677  0.2845
13294TIP3    H161373   3.585   6.578  13.468  2.6006 -0.2146  1.5138
13294TIP3    H261374   3.562   6.591  13.319 -1.3581  0.2094  2.1171
13295TIP3   OH261375   1.080   3.537   5.342 -0.0727  0.1310  0.4845
13295TIP3    H161376   1.090   3.619   5.294 -2.9107  1.2835  1.7757
13295TIP3    H261377   1.046   3.475   5.278  0.9531  0.2524 -0.1954
13296TIP3   OH261378   5.417   5.864   5.847 -0.2334  0.1765 -0.2861
13296TIP3    H161379   5.407   5.769   5.849 -1.0134  0.2567 -0.4407
13296TIP3    H261380   5.349   5.897   5.906  1.4049  0.5389  1.4921
13297TIP3   OH261381   4.569   1.094  13.926  0.5256  0.2096 -0.1838
13297TIP3    H161382   4.537   1.159  13.863  0.2994 -0.8884 -1.2335
13297TIP3    H261383   4.490   1.065  13.973  0.5648  0.3828 -0.0108
13298TIP3   OH261384   4.600   5.474  16.309  0.3269 -0.7993  0.4258
13298TIP3    H161385   4.553   5.428  16.379  0.4034 -1.3483  0.1212
13298TIP3    H261386   4.613   5.562  16.343 -0.9512 -0.6311  0.4921
13299TIP3   OH261387   6.224   5.450  16.558  0.7674  0.2604 -0.0640
13299TIP3    H161388   6.244   5.386  16.627 -1.0367 -0.0636  0.1641
13299TIP3    H261389   6.208   5.397  16.480  1.1442  0.5421 -0.3343
13300TIP3   OH261390   3.786   5.009  13.860  0.3060  0.0768  0.6635
13300TIP3    H161391   3.847   5.016  13.787 -0.8409  0.3831 -0.2864
13300TIP3    H261392   3.821   5.067  13.927  0.9037  0.4605  0.0249
13301TIP3   OH261393   0.309   5.182  13.283 -0.7417  0.2884 -0.0258
13301TIP3    H161394   0.363   5.126  13.227 -0.7465  1.8434 -1.6346
13301TIP3    H261395   0.260   5.121  13.338 -0.5961 -1.2974 -1.5992
13302TIP3   OH261396   4.847   5.759  17.106  0.0743 -0.2422  0.2345
13302TIP3    H161397   4.911   5.689  17.096  0.7156  0.4451 -0.5519
13302TIP3    H261398   4.825   5.786  17.017 -0.3919  0.3606  0.5204
13303TIP3   OH261399   3.389   5.090   1.317  0.2279 -0.4186 -0.1372
13303TIP3    H161400   3.309   5.078   1.368  1.8094 -0.2517  2.4812
13303TIP3    H261401   3.411   5.003   1.286 -0.3162 -0.6706  0.1834
13304TIP3   OH261402   5.737   5.417   4.403 -0.1136 -0.3607 -0.2583
13304TIP3    H161403   5.685   5.458   4.472  0.2194  0.0804 -0.2608
13304TIP3    H261404   5.673   5.381   4.342 -0.4429  1.0428 -0.7737
13305TIP3   OH261405   0.130   3.691  16.790  0.9786  0.2532  0.4396
13305TIP3    H161406   0.137   3.685  16.886 -0.3736  0.8356  0.5785
13305TIP3    H261407   0.106   3.782  16.774  0.5324 -0.0150 -0.4247
13306TIP3   OH261408   0.134   5.601   4.818  0.3610  0.3230  0.0349
13306TIP3    H161409   0.116   5.694   4.834  1.5668  0.5646  0.0428
13306TIP3    H261410   0.099   5.585   4.730  0.2470  0.8168 -0.0129
13307TIP3   OH261411   5.480   3.031   0.487 -0.2649 -0.3276  0.3234
13307TIP3    H161412   5.506   2.947   0.525  0.0905 -0.4030 -0.0834
13307TIP3    H261413   5.554   3.055   0.431 -0.5569  0.0444  0.1013
13308TIP3   OH261414   0.807   3.769  17.127 -0.1021 -0.7355 -0.3399
13308TIP3    H161415   0.873   3.726  17.073  1.4900  1.4543 -0.1934
13308TIP3    H261416   0.751   3.814  17.065 -0.0163 -0.6117 -0.3266
13309TIP3   OH261417   0.870   0.406   4.964  0.2392 -0.0113  0.6314
13309TIP3    H161418   0.808   0.465   4.922 -1.1530 -1.9833 -0.1484
13309TIP3    H261419   0.846   0.407   5.056 -0.4711 -0.1712  0.4498
13310TIP3   OH261420   1.620   3.278   1.195  0.6826  0.5949 -0.3720
13310TIP3    H161421   1.574   3.352   1.156 -1.1797 -0.6487 -0.6120
13310TIP3    H261422   1.701   3.271   1.145  0.4929  1.9366 -0.8920
13311TIP3   OH261423   6.180   1.888  14.219 -0.6478 -0.6099  0.4749
13311TIP3    H161424   6.164   1.947  14.293 -0.5848  0.8542 -0.6557
13311TIP3    H261425   6.249   1.931  14.168  0.6181 -2.5184  0.5424
13312TIP3   OH261426   4.186   0.564  11.605  0.3359  0.0278  0.4330
13312TIP3    H161427   4.146   0.651  11.606  0.3817  0.0559  2.8786
13312TIP3    H261428   4.114   0.504  11.623  0.9404 -0.0978  2.6226
13313TIP3   OH261429   6.033   3.419  16.964 -0.2484  0.4438 -0.3704
13313TIP3    H161430   6.019   3.379  17.050  0.9130 -0.0942 -0.4243
13313TIP3    H261431   6.035   3.345  16.903  0.9694  0.6369 -0.5854
13314TIP3   OH261432   4.998   6.014  14.947  0.1730 -0.5496 -0.4901
13314TIP3    H161433   5.046   6.057  14.877  2.2975 -0.9248  0.6957
13314TIP3    H261434   4.914   6.061  14.951  0.9909  1.0406 -1.6459
13315TIP3   OH261435   3.608   1.017   2.103 -0.5834 -0.4239  0.2602
13315TIP3    H161436   3.613   1.084   2.035  1.6609  1.3273  2.0536
13315TIP3    H261437   3.526   1.037   2.150  0.2687  1.3757  1.0449
13316TIP3   OH261438   3.525   5.950   3.096 -0.2239  0.6275 -0.2004
13316TIP3    H161439   3.574   6.021   3.053 -0.4910  0.0341 -1.5131
13316TIP3    H261440   3.555   5.952   3.187  1.9675  0.5137 -0.8848
13317TIP3   OH261441   5.867   0.849   1.903 -0.7124 -0.2298 -0.9096
13317TIP3    H161442   5.938   0.905   1.870  0.0531  0.4824  1.7959
13317TIP3    H261443   5.788   0.900   1.888 -0.3010  0.3953 -0.9969
13318TIP3   OH261444   1.772   3.730   1.545 -0.3301  0.1489 -0.2613
13318TIP3    H161445   1.704   3.754   1.482 -0.1927 -1.6312 -1.1118
13318TIP3    H261446   1.727   3.678   1.611  0.1732 -0.9541 -0.7762
13319TIP3   OH261447   6.365   0.839  11.098  0.2596 -0.3686  0.4901
13319TIP3    H161448   6.302   0.768  11.081 -0.4833 -0.2187  2.5200
13319TIP3    H261449   6.449   0.804  11.067 -0.4215 -1.4229 -0.2103
13320TIP3   OH261450   0.039   6.603  15.110  0.5297 -0.8763 -0.0708
13320TIP3    H161451   0.034   6.697  15.089  0.7681 -1.1577 -1.4856
13320TIP3    H261452   0.100   6.568  15.044  0.5575 -1.9978  0.5464
13321TIP3   OH261453   5.063   5.973  10.900  0.2433 -0.0959 -0.5641
13321TIP3    H161454   5.058   5.922  10.981  2.9354  1.6608  0.7828
13321TIP3    H261455   4.974   5.969  10.864 -0.8142 -1.5696  2.0548
13322TIP3   OH261456   3.636   5.896  13.858  0.0336 -0.2289  0.6229
13322TIP3    H161457   3.652   5.987  13.833 -1.3250 -0.4819 -1.2358
13322TIP3    H261458   3.602   5.901  13.947 -0.2500  1.0977  0.4395
13323TIP3   OH261459   0.697   4.500  13.254 -0.3730  0.2588 -0.0094
13323TIP3    H161460   0.710   4.568  13.188  1.6033 -0.2697 -0.2182
13323TIP3    H261461   0.696   4.547  13.338  0.9668  0.5654 -0.1513
13324TIP3   OH261462   3.089   2.481   3.066 -0.0979  0.3595  0.1908
13324TIP3    H161463   3.055   2.480   3.156 -1.2051 -0.3663 -0.2204
13324TIP3    H261464   3.148   2.406   3.062  0.6611  0.9356  0.5764
13325TIP3   OH261465   1.181   1.929  11.827 -0.1505  0.2929 -0.0235
13325TIP3    H161466   1.216   2.016  11.810 -0.5628  0.2318 -1.2150
13325TIP3    H261467   1.256   1.871  11.822 -0.2894  0.2366 -1.9924
13326TIP3   OH261468   5.387   1.869  16.481 -0.2117 -0.1456  0.2679
13326TIP3    H161469   5.425   1.789  16.446  1.3553  0.2840  0.9606
13326TIP3    H261470   5.432   1.940  16.435 -0.3423  0.3678  0.9212
13327TIP3   OH261471   0.650   2.821  16.361  0.0426 -0.4125 -0.5506
13327TIP3    H161472   0.679   2.839  16.450 -2.0506 -0.2607  0.1215
13327TIP3    H261473   0.564   2.782  16.371  0.4034 -1.7753 -2.4495
13328TIP3   OH261474   6.246   4.018  13.586  0.2852  0.3285  0.6681
13328TIP3    H161475   6.296   4.084  13.538  0.4475 -0.5727 -0.4337
13328TIP3    H261476   6.155   4.038  13.567  0.3766 -0.9718 -1.3821
13329TIP3   OH261477   3.586   4.964  12.010  0.1046 -0.5147  0.4101
13329TIP3    H161478   3.495   4.976  11.984 -0.2888 -2.1719  0.9478
13329TIP3    H261479   3.625   5.052  12.004 -1.0516 -0.1115 -1.5279
13330TIP3   OH261480   1.757   1.479   6.019 -0.2037 -0.0165  0.3876
13330TIP3    H161481   1.756   1.430   5.937 -2.8054 -0.4109  0.6217
13330TIP3    H261482   1.823   1.435   6.072 -0.3215 -1.3639 -0.5457
13331TIP3   OH261483   1.733   4.937  11.367  0.0669 -0.2006  0.1659
13331TIP3    H161484   1.697   4.885  11.439  1.6143 -3.9621 -1.6690
13331TIP3    H261485   1.704   4.893  11.288  1.1388  1.9756 -1.4960
13332TIP3   OH261486   6.756   5.379   0.105  0.4250  0.3481  0.1862
13332TIP3    H161487   6.782   5.464   0.141 -0.4636  0.8312 -0.2958
13332TIP3    H261488   6.798   5.375   0.020  2.9403 -1.0114  1.4351
13333TIP3   OH261489   0.199   0.467   1.459 -0.6102 -0.9140  0.0969
13333TIP3    H161490   0.228   0.447   1.548 -0.1358 -0.6344  0.0068
13333TIP3    H261491   0.183   0.561   1.460 -1.8257 -1.1131  0.2305
13334TIP3   OH261492   1.777   0.768  16.567 -0.0262  0.3122 -0.7882
13334TIP3    H161493   1.699   0.735  16.522 -1.0903  0.1416  1.1234
13334TIP3    H261494   1.767   0.863  16.565 -0.6509  0.2664  0.0841
13335TIP3   OH261495   2.801   0.913  16.698  0.1439  0.1127 -0.0997
13335TIP3    H161496   2.873   0.857  16.669 -0.2454 -0.3724 -0.1324
13335TIP3    H261497   2.753   0.933  16.617 -1.1872 -1.5847  0.2522
13336TIP3   OH261498   3.465   2.901  14.359  0.0439 -0.5032 -0.2060
13336TIP3    H161499   3.452   2.957  14.282 -0.7218  0.7545  0.8332
13336TIP3    H261500   3.547   2.855  14.341  0.1856  0.2345 -1.4980
13337TIP3   OH261501   2.372   6.290   5.222 -0.1823  0.1462  0.9110
13337TIP3    H161502   2.396   6.370   5.269  2.2371  0.3957 -0.6166
13337TIP3    H261503   2.282   6.272   5.249 -0.4804  2.8974  1.9613
13338TIP3   OH261504   5.419   5.559  14.013 -0.0283 -0.1527  0.3648
13338TIP3    H161505   5.404   5.467  13.990  0.0504 -0.3565  1.1210
13338TIP3    H261506   5.511   5.575  13.990  0.0913 -0.3963  0.6709
13339TIP3   OH261507   4.482   2.455  15.968  0.4692 -0.1056  0.1525
13339TIP3    H161508   4.489   2.538  15.921  2.1932  0.1607  0.8475
13339TIP3    H261509   4.503   2.389  15.903 -2.9611 -0.2113 -0.9688
13340TIP3   OH261510   2.718   2.655  14.070  0.0890 -0.2384 -0.5929
13340TIP3    H161511   2.749   2.582  14.124 -0.0798 -1.0095 -1.5435
13340TIP3    H261512   2.652   2.616  14.012  1.2202  0.3223 -2.2792
13341TIP3   OH261513   6.412   3.373   1.087 -0.2992 -0.2692  0.2734
13341TIP3    H161514   6.441   3.358   0.997 -3.0255  2.0937 -1.0559
13341TIP3    H261515   6.351   3.301   1.104 -1.0446  0.2129 -0.3498
13342TIP3   OH261516   3.709   3.192   4.095 -0.2652 -0.2155  0.2554
13342TIP3    H161517   3.765   3.123   4.131 -1.0349  0.3703  2.7166
13342TIP3    H261518   3.770   3.248   4.046  0.9968 -0.6625  1.2625
13343TIP3   OH261519   5.924   3.961   5.637  0.6747  0.4183  0.5908
13343TIP3    H161520   6.004   3.910   5.649  0.3118 -0.6078 -1.0752
13343TIP3    H261521   5.879   3.955   5.721  0.6548 -2.0355  0.4505
13344TIP3   OH261522   2.987   3.037   2.309 -0.3015  0.8322  0.2222
13344TIP3    H161523   2.935   3.040   2.389 -1.9882 -0.0988 -0.7994
13344TIP3    H261524   2.936   2.980   2.250  1.6607  0.2666 -0.9662
13345TIP3   OH261525   3.905   1.156  12.682 -0.0496 -0.1822  0.3056
13345TIP3    H161526   3.993   1.122  12.665  0.0924  1.7270 -3.1352
13345TIP3    H261527   3.918   1.245  12.714 -0.7724  0.4783 -1.2229
13346TIP3   OH261528   0.711   1.055   0.861 -0.4901 -0.5949 -0.5300
13346TIP3    H161529   0.655   1.047   0.784 -0.1430 -0.5412 -0.7876
13346TIP3    H261530   0.774   0.983   0.853  1.4222  1.1482 -1.8509
13347TIP3   OH261531   0.967   3.176   7.037 -0.1522 -0.5840  0.0994
13347TIP3    H161532   1.003   3.264   7.022 -1.3292 -0.3447 -1.4517
13347TIP3    H261533   0.878   3.191   7.069 -0.7439 -1.2038 -1.2170
13348TIP3   OH261534   5.015   5.256  15.832 -0.0282  0.3553 -0.0465
13348TIP3    H161535   5.020   5.265  15.927 -1.5013 -0.2599  0.1063
13348TIP3    H261536   5.082   5.190  15.811 -0.0289  0.1344  0.6182
13349TIP3   OH261537   5.887   3.067   5.624  0.6611  0.4342  0.8889
13349TIP3    H161538   5.911   3.154   5.657  1.1231  0.6298  0.0405
13349TIP3    H261539   5.795   3.058   5.647  0.8512  0.7485  1.8414
13350TIP3   OH261540   6.149   2.418   1.844 -0.7909 -0.1219  0.4373
13350TIP3    H161541   6.058   2.402   1.868 -0.9745 -0.0344 -0.1813
13350TIP3    H261542   6.199   2.391   1.920 -1.3702  0.3229  0.9833
13351TIP3   OH261543   4.320   5.175  12.877  0.0909  0.0592 -0.8989
13351TIP3    H161544   4.349   5.116  12.808 -1.4001 -3.8679  1.6258
13351TIP3    H261545   4.396   5.187  12.934 -0.2955 -1.7754  0.0619
13352TIP3   OH261546   3.225   4.023   4.949 -0.1328 -0.5366  0.2814
13352TIP3    H161547   3.286   3.976   5.005  1.1516  0.1390 -0.5316
13352TIP3    H261548   3.177   3.955   4.902 -0.4227 -1.0764  1.3464
13353TIP3   OH261549   6.086   6.376  12.924  0.1488  0.5186  0.2504
13353TIP3    H161550   6.089   6.281  12.913 -0.1937  0.6824 -1.4267
13353TIP3    H261551   6.045   6.408  12.843  1.5166  2.1857  0.1816
13354TIP3   OH261552   6.033   6.686  11.466  0.1547  0.0411  0.0509
13354TIP3    H161553   5.999   6.774  11.478  3.1892  1.3425 -0.6054
13354TIP3    H261554   5.970   6.643  11.408 -0.8763  2.0431 -0.3274
13355TIP3   OH261555   3.412   6.672  15.784 -0.1935  0.5000  0.0125
13355TIP3    H161556   3.322   6.641  15.791  0.4692 -1.1566  1.6609
13355TIP3    H261557   3.405   6.767  15.781 -1.9629  0.4092  0.7345
13356TIP3   OH261558   5.708   6.110  12.071 -0.2863  0.8496 -0.2283
13356TIP3    H161559   5.779   6.173  12.079  0.4835 -0.2040  1.6288
13356TIP3    H261560   5.714   6.078  11.981  1.3390  1.0587 -0.1941
13357TIP3   OH261561   1.207   0.655  12.338  0.1886  0.2225 -0.0686
13357TIP3    H161562   1.285   0.605  12.363  0.2059  0.2720 -0.0235
13357TIP3    H261563   1.191   0.713  12.412  1.4367  1.8082 -1.0057
13358TIP3   OH261564   2.570   3.917  16.858  0.1551  0.1075  0.5049
13358TIP3    H161565   2.617   3.835  16.871  1.1343  0.5063 -0.4415
13358TIP3    H261566   2.604   3.951  16.775 -1.7754  0.4171 -0.1946
13359TIP3   OH261567   2.850   0.387   5.213 -0.7226 -0.0851 -0.4585
13359TIP3    H161568   2.869   0.388   5.119 -1.2315 -0.8003 -0.5719
13359TIP3    H261569   2.823   0.297   5.232 -1.3561  0.2344  0.2199
13360TIP3   OH261570   4.102   3.453  14.456  0.2145  0.4579  0.1296
13360TIP3    H161571   4.030   3.483  14.513  0.1023  0.0519  0.2039
13360TIP3    H261572   4.079   3.487  14.370  0.3078  0.9509  0.2925
13361TIP3   OH261573   2.836   2.476  11.234  0.4207  0.2020 -0.2012
13361TIP3    H161574   2.835   2.409  11.303  3.0663  1.7449  1.3868
13361TIP3    H261575   2.751   2.519  11.242  0.0212 -0.7581  0.9478
13362TIP3   OH261576   3.674   2.856   3.400 -0.1069 -0.4964  0.0705
13362TIP3    H161577   3.644   2.772   3.365 -0.9877 -0.1840  0.0425
13362TIP3    H261578   3.746   2.834   3.459  1.2853 -1.0542 -1.7953
13363TIP3   OH261579   1.150   3.465   3.555 -0.4135  0.1006  0.2786
13363TIP3    H161580   1.197   3.382   3.560 -2.1712 -0.9932 -0.7674
13363TIP3    H261581   1.197   3.515   3.488  0.6767 -0.0291  0.9429
13364TIP3   OH261582   5.126   1.469   4.737  0.0969  0.1901 -0.0657
13364TIP3    H161583   5.161   1.463   4.648  0.6432 -2.5483  0.2842
13364TIP3    H261584   5.188   1.526   4.783  0.5324  0.5635 -1.0886
13365TIP3   OH261585   5.500   0.990   4.838  0.1249 -0.3692  0.0295
13365TIP3    H161586   5.457   0.988   4.924  3.1436  0.2726  1.6371
13365TIP3    H261587   5.524   0.899   4.821 -1.1253 -0.6063 -0.4868
13366TIP3   OH261588   1.464   0.760  12.643  0.6731 -0.0259 -0.2588
13366TIP3    H161589   1.550   0.765  12.603  0.7560  1.9525  0.1545
13366TIP3    H261590   1.479   0.723  12.730  1.0483  0.0024 -0.3143
13367TIP3   OH261591   4.670   1.955  13.101 -0.0742 -0.4037 -0.7473
13367TIP3    H161592   4.701   1.944  13.012 -0.3713 -0.5504 -0.8337
13367TIP3    H261593   4.639   2.045  13.105  1.1648  0.0112 -0.4103
13368TIP3   OH261594   4.229   1.393   2.205  0.1697 -0.1050  0.3171
13368TIP3    H161595   4.309   1.404   2.257 -0.2628  2.1010  0.5721
13368TIP3    H261596   4.158   1.400   2.269 -0.2590 -1.5075  0.0124
13369TIP3   OH261597   5.486   5.917  17.170  0.8390 -0.0614 -0.1829
13369TIP3    H161598   5.493   6.012  17.159 -1.5523  0.1280 -0.2537
13369TIP3    H261599   5.501   5.902  17.263 -0.3879  0.5511  0.1175
13370TIP3   OH261600   1.724   5.829   6.317  0.4328  0.0698 -0.3073
13370TIP3    H161601   1.796   5.892   6.311  0.6812 -0.2095 -0.2593
13370TIP3    H261602   1.760   5.748   6.282 -0.7621  0.7021 -3.2649
13371TIP3   OH261603   6.134   1.359   2.272 -0.2127  0.4469  0.3111
13371TIP3    H161604   6.186   1.326   2.345 -0.6826 -0.5475  0.2149
13371TIP3    H261605   6.198   1.372   2.202 -0.1567 -1.4696 -0.0423
13372TIP3   OH261606   4.374   5.235  11.649 -0.2152  0.3439  0.1763
13372TIP3    H161607   4.395   5.230  11.743 -1.0728  1.1937  0.4223
13372TIP3    H261608   4.325   5.317  11.640 -0.1793  0.2411 -1.0125
13373TIP3   OH261609   3.486   4.936  16.840 -0.3110  0.1260  0.1317
13373TIP3    H161610   3.448   5.018  16.806 -0.1458 -0.4541 -1.4733
13373TIP3    H261611   3.532   4.898  16.765 -1.3661 -2.0202  0.5428
13374TIP3   OH261612   5.151   2.361  14.581 -0.3961  0.5301  0.3121
13374TIP3    H161613   5.101   2.339  14.659 -0.8239 -1.5812 -0.4969
13374TIP3    H261614   5.097   2.328  14.509  1.6565 -0.8652 -0.6336
13375TIP3   OH261615   3.915   5.303   5.244  0.6448  0.1945  0.7323
13375TIP3    H161616   3.885   5.297   5.335  1.8021 -0.8227  1.0643
13375TIP3    H261617   3.993   5.247   5.241  1.7175  1.7242 -0.4343
13376TIP3   OH261618   5.513   4.526   1.779 -0.4626  0.2883 -0.0496
13376TIP3    H161619   5.457   4.543   1.704  1.1455 -0.9851 -1.5916
13376TIP3    H261620   5.553   4.441   1.759 -0.2306 -0.2039  2.3877
13377TIP3   OH261621   4.077   5.642   3.077  0.1505 -0.2165 -0.4063
13377TIP3    H161622   4.099   5.721   3.127  1.7893 -0.2755 -0.9934
13377TIP3    H261623   4.078   5.572   3.142 -0.6266  0.1386 -0.0048
13378TIP3   OH261624   1.160   5.770  17.224  0.4288  0.3869 -0.2906
13378TIP3    H161625   1.212   5.712  17.168  1.7024 -0.2213  1.4616
13378TIP3    H261626   1.222   5.838  17.252 -0.1005  0.5053  0.6199
13379TIP3   OH261627   2.713   1.533  14.184  0.3591 -0.0859 -0.3487
13379TIP3    H161628   2.695   1.525  14.091  0.0204 -0.6772 -0.2389
13379TIP3    H261629   2.673   1.615  14.211  0.2054 -0.0580 -0.6692
13380TIP3   OH261630   2.935   1.609  12.665  0.3241  0.2048  0.6635
13380TIP3    H161631   2.909   1.695  12.630 -1.1208  0.0234  1.2620
13380TIP3    H261632   2.920   1.548  12.592 -0.7804  0.1290  0.9453
13381TIP3   OH261633   0.476   5.019   0.045 -0.0954  0.4295  0.4084
13381TIP3    H161634   0.508   5.078  -0.023 -0.4091  0.3873  0.2238
13381TIP3    H261635   0.397   4.980   0.008 -0.0969  0.1736  0.6767
13382TIP3   OH261636   5.444   0.078  13.387  0.4552  0.2404  0.4414
13382TIP3    H161637   5.496   0.001  13.407 -1.5632 -1.7435 -1.7249
13382TIP3    H261638   5.374   0.078  13.453  0.3948  0.1823  0.3764
13383TIP3   OH261639   5.402   0.442   1.640 -0.1163  0.5794  0.1975
13383TIP3    H161640   5.349   0.490   1.704  0.1633  1.8529 -0.5193
13383TIP3    H261641   5.382   0.482   1.556  0.4668 -0.2572 -0.3538
13384TIP3   OH261642   1.855   6.386   2.578 -0.0073  0.2050  0.7249
13384TIP3    H161643   1.950   6.379   2.579 -0.0423 -0.2597  0.6874
13384TIP3    H261644   1.834   6.412   2.488 -0.1318 -2.7307 -0.1329
13385TIP3   OH261645   2.580   4.487  16.833  0.0898 -0.3376  0.0480
13385TIP3    H161646   2.655   4.543  16.854 -0.0983  0.1002 -0.4145
13385TIP3    H261647   2.511   4.549  16.809 -0.9644 -0.6656  2.1789
13386TIP3   OH261648   1.658   2.275   2.158 -0.1452  0.2151 -0.3631
13386TIP3    H161649   1.614   2.210   2.103 -0.7239 -0.0952  0.4578
13386TIP3    H261650   1.746   2.282   2.121  0.3665 -2.0371  0.3710
13387TIP3   OH261651   2.283   2.461   2.629 -0.0369  0.1509 -0.5711
13387TIP3    H161652   2.308   2.552   2.615  0.3527  0.1600  0.1874
13387TIP3    H261653   2.198   2.467   2.674  0.5091  0.1538  0.4739
13388TIP3   OH261654   3.564   1.396  16.242 -0.0946  0.2619  0.6079
13388TIP3    H161655   3.572   1.305  16.213 -1.1470  0.4124 -0.2294
13388TIP3    H261656   3.619   1.402  16.320  1.0846 -0.7294 -0.1338
13389TIP3   OH261657   4.823   3.721   3.668  0.1835 -0.5150 -0.5241
13389TIP3    H161658   4.823   3.765   3.753  0.0666 -0.3843 -0.5921
13389TIP3    H261659   4.892   3.655   3.675 -0.2792 -0.9620 -0.0846
13390TIP3   OH261660   3.442   0.520   5.569  0.3412  0.2288 -0.0031
13390TIP3    H161661   3.435   0.466   5.648  1.3770 -1.3296 -0.9427
13390TIP3    H261662   3.534   0.544   5.564  0.2671  0.3862 -0.6833
13391TIP3   OH261663   4.487   3.611  11.816 -0.0929  0.4916  0.2675
13391TIP3    H161664   4.428   3.609  11.741  1.7142 -0.4372 -1.1474
13391TIP3    H261665   4.491   3.521  11.847  1.3984  0.3468 -0.3048
13392TIP3   OH261666   5.138   3.183  12.466  0.1163 -0.1262  0.0175
13392TIP3    H161667   5.119   3.164  12.374  0.0857  1.4203 -0.3075
13392TIP3    H261668   5.055   3.216  12.501  0.4349  0.3862  0.2939
13393TIP3   OH261669   2.367   0.612   4.672  0.2297  0.7939 -0.2474
13393TIP3    H161670   2.288   0.667   4.677  1.5779  2.7535  0.3025
13393TIP3    H261671   2.428   0.653   4.734  1.6028 -0.8118 -0.5158
13394TIP3   OH261672   3.514   1.679  11.720 -0.4677 -0.1655  0.2191
13394TIP3    H161673   3.516   1.702  11.813  1.9997 -1.1262  0.4488
13394TIP3    H261674   3.439   1.727  11.685 -1.9141 -0.3925  2.8550
13395TIP3   OH261675   2.787   6.253  12.302 -0.5231  0.5379 -0.6188
13395TIP3    H161676   2.726   6.195  12.257 -2.2133  0.6918  1.4364
13395TIP3    H261677   2.762   6.249  12.394  3.9420 -1.0940  0.6312
13396TIP3   OH261678   3.177   0.618   0.634  0.1466  0.1560 -0.3715
13396TIP3    H161679   3.120   0.689   0.605 -0.2684 -0.1627 -0.3474
13396TIP3    H261680   3.239   0.660   0.694 -1.0215  0.2468  0.8104
13397TIP3   OH261681   6.393   4.714  16.003 -0.6703 -0.1744 -0.2266
13397TIP3    H161682   6.404   4.632  15.956 -1.1313  1.1053 -2.6632
13397TIP3    H261683   6.471   4.765  15.980 -1.6745  1.0743 -0.9202
13398TIP3   OH261684   6.761   1.738  14.926  1.0250  0.5604 -0.6942
13398TIP3    H161685   6.716   1.765  14.846  1.2481  2.8236 -0.1128
13398TIP3    H261686   6.826   1.807  14.940  0.7631  0.3617  1.6068
13399TIP3   OH261687   3.111   6.788  13.033 -0.6677  0.2150 -0.2768
13399TIP3    H161688   3.093   6.841  12.956 -1.9987  0.4003  0.1419
13399TIP3    H261689   3.128   6.851  13.102 -0.3878  0.0638 -0.2066
13400TIP3   OH261690   2.669   1.287  14.553 -0.7043  0.0063 -0.4375
13400TIP3    H161691   2.641   1.326  14.636 -0.2142 -2.9805  1.1821
13400TIP3    H261692   2.762   1.310  14.546 -1.0857  1.5081 -0.9483
13401TIP3   OH261693   0.371   4.956   6.317  0.9791  0.2318 -0.3713
13401TIP3    H161694   0.332   4.875   6.347 -1.0498  0.2539 -2.7582
13401TIP3    H261695   0.313   5.025   6.350  0.6839  0.4614 -1.3423
13402TIP3   OH261696   0.439   1.464   1.640 -0.6935  1.1613 -0.0383
13402TIP3    H161697   0.379   1.476   1.567 -1.5315 -0.1081  0.4061
13402TIP3    H261698   0.487   1.384   1.619 -0.1315  1.4162  0.2576
13403TIP3   OH261699   1.520   3.941   1.112 -0.2608  0.3473 -0.6744
13403TIP3    H161700   1.558   4.026   1.090 -0.1232  0.7573  1.0912
13403TIP3    H261701   1.432   3.961   1.142 -1.2072 -0.4164 -2.8555
13404TIP3   OH261702   4.115   4.529   3.807 -0.4085 -0.5666 -0.5391
13404TIP3    H161703   4.021   4.532   3.825 -0.3083  0.9397 -0.1906
13404TIP3    H261704   4.153   4.491   3.886 -0.5978  0.0380 -0.1567
13405TIP3   OH261705   5.459   5.558  14.478  0.8002 -0.1065  0.4568
13405TIP3    H161706   5.492   5.530  14.393  0.1206  0.3514  0.0385
13405TIP3    H261707   5.366   5.535  14.478  0.7626  0.0135  1.0209
13406TIP3   OH261708   3.605   1.382  11.430  0.3922  0.1064 -0.0408
13406TIP3    H161709   3.654   1.321  11.485 -0.7828 -1.0722 -0.2590
13406TIP3    H261710   3.516   1.347  11.429  0.5394 -0.3881 -3.3415
13407TIP3   OH261711   5.909   1.368   5.539 -0.2240  0.0551 -0.1739
13407TIP3    H161712   5.937   1.432   5.474  1.2283 -1.3946 -1.0187
13407TIP3    H261713   5.815   1.383   5.549 -0.1978  1.2140 -1.5942
13408TIP3   OH261714   6.003   5.274   4.967 -0.1443  0.7753 -0.5188
13408TIP3    H161715   6.062   5.318   5.028  1.6995  0.3017 -1.9271
13408TIP3    H261716   5.992   5.186   5.003  0.0525  0.8423 -0.2957
13409TIP3   OH261717   2.003   4.529   0.760  0.0104  0.5022 -0.9376
13409TIP3    H161718   1.913   4.498   0.747 -0.8086  1.6338  1.7613
13409TIP3    H261719   1.995   4.603   0.820  2.8142  0.0281  0.1130
13410TIP3   OH261720   2.114   5.966  12.638 -0.3807 -0.5219  0.1467
13410TIP3    H161721   2.210   5.964  12.643 -0.4627 -2.0479  1.6264
13410TIP3    H261722   2.094   6.048  12.594  1.6467 -0.6660 -1.1228
13411TIP3   OH261723   1.092   4.362   6.129 -0.2005 -0.3798 -0.3015
13411TIP3    H161724   1.040   4.429   6.174 -0.7118 -0.2520 -1.0604
13411TIP3    H261725   1.164   4.411   6.089  0.6986 -0.6017  1.0245
13412TIP3   OH261726   1.223   3.929   2.023 -0.1497  0.2811 -0.2926
13412TIP3    H161727   1.215   3.839   2.053  1.0051  0.1338 -0.3948
13412TIP3    H261728   1.239   3.922   1.929 -1.3614  0.6498 -0.5336
13413TIP3   OH261729   1.123   0.157   6.487 -0.0600 -0.0125 -0.3280
13413TIP3    H161730   1.139   0.083   6.544 -1.2511 -0.2190 -0.2490
13413TIP3    H261731   1.200   0.214   6.498  0.4128 -0.7748  0.3170
13414TIP3   OH261732   4.885   2.855  15.327 -0.1622 -1.3596 -0.3437
13414TIP3    H161733   4.873   2.935  15.275  1.4100  0.2453  1.7027
13414TIP3    H261734   4.954   2.807  15.281  2.9808  1.2071  1.4361
13415TIP3   OH261735   3.453   3.332  12.085 -0.3767 -0.0496  0.3214
13415TIP3    H161736   3.411   3.413  12.116 -0.5019  0.7424 -1.7820
13415TIP3    H261737   3.383   3.286  12.039  0.1971 -0.3853 -0.2181
13416TIP3   OH261738   3.275   5.983  11.472  0.8588  0.0076 -0.1763
13416TIP3    H161739   3.305   5.950  11.387  0.6856  0.4660 -0.4173
13416TIP3    H261740   3.279   5.907  11.530 -0.3464 -0.6509 -0.9315
13417TIP3   OH261741   1.175   3.562  13.067 -0.2084  0.0567 -0.2061
13417TIP3    H161742   1.204   3.472  13.052  0.6414  0.0765  1.2267
13417TIP3    H261743   1.114   3.556  13.140  1.3526  0.8648  1.2228
13418TIP3   OH261744   5.889   2.947  12.485 -0.0523 -0.1751 -0.3102
13418TIP3    H161745   5.949   2.946  12.559 -0.5843 -0.1587  0.1222
13418TIP3    H261746   5.804   2.927  12.523 -0.3962  0.2520 -0.8551
13419TIP3   OH261747   2.311   3.029   0.927  0.3253 -0.1565  0.2779
13419TIP3    H161748   2.369   2.982   0.987 -0.6171  0.1515  1.4462
13419TIP3    H261749   2.307   2.974   0.850  1.7858 -0.4218  0.3800
13420TIP3   OH261750   4.562   1.849   0.831 -0.2772  0.5486 -0.1665
13420TIP3    H161751   4.519   1.817   0.751  1.0039  1.1640 -1.1196
13420TIP3    H261752   4.586   1.939   0.810 -0.7939  1.0314  1.2764
13421TIP3   OH261753   0.932   2.971  16.251  0.1110  0.1084  0.6342
13421TIP3    H161754   0.979   2.940  16.174  1.7585  1.2097  1.1789
13421TIP3    H261755   0.911   2.891  16.300  0.0838 -0.5001 -0.3559
13422TIP3   OH261756   6.600   4.928   1.909  0.2259 -0.5412  0.2950
13422TIP3    H161757   6.594   4.886   1.995  1.1574 -0.5282  0.3703
13422TIP3    H261758   6.680   4.980   1.913 -0.1387  0.0823 -0.3104
13423TIP3   OH261759   0.057   4.086  14.116  0.6386 -0.2974 -0.3897
13423TIP3    H161760   0.091   4.140  14.187 -0.9702  0.8364 -0.4370
13423TIP3    H261761   0.066   3.996  14.148  1.2969  0.1175  0.6229
13424TIP3   OH261762   5.303   3.429   5.784 -0.3257  0.0864  0.3909
13424TIP3    H161763   5.375   3.492   5.774  0.0139 -0.1393  1.4039
13424TIP3    H261764   5.301   3.383   5.701  1.9221 -1.1795  1.0066
13425TIP3   OH261765   3.884   3.578   5.453  0.3840 -0.0036  0.0545
13425TIP3    H161766   3.821   3.649   5.440  0.7308  0.3781  0.4350
13425TIP3    H261767   3.831   3.503   5.479  0.0324  0.1643 -0.1775
13426TIP3   OH261768   2.302   5.807  13.411 -0.5386  0.0942  0.1362
13426TIP3    H161769   2.333   5.717  13.420  1.2366  0.4713 -1.8730
13426TIP3    H261770   2.207   5.801  13.421 -0.5118 -2.1232 -0.7917
13427TIP3   OH261771   6.290   3.799  12.730 -0.4141  0.0850  0.2618
13427TIP3    H161772   6.269   3.706  12.731  1.5339 -0.3691  0.2837
13427TIP3    H261773   6.244   3.833  12.652 -0.3308 -1.0717 -0.2979
13428TIP3   OH261774   2.371   4.881  16.562 -0.5227  0.1417  0.0030
13428TIP3    H161775   2.358   4.806  16.620  0.3912 -0.5287 -0.6561
13428TIP3    H261776   2.338   4.852  16.477 -0.1134  0.4692 -0.2666
13429TIP3   OH261777   5.338   4.699  16.808  0.3596  0.3995  0.5974
13429TIP3    H161778   5.301   4.704  16.896  2.5569 -0.8478  1.6545
13429TIP3    H261779   5.418   4.752  16.812  1.4567 -1.1520 -0.0790
13430TIP3   OH261780   0.886   6.754   4.939 -0.3022 -0.0249 -0.5404
13430TIP3    H161781   0.975   6.770   4.907 -0.0223 -0.9251 -0.2117
13430TIP3    H261782   0.897   6.699   5.016 -0.9689  2.3682  1.3182
13431TIP3   OH261783   1.954   2.986   5.528 -0.2510  0.3917 -0.2311
13431TIP3    H161784   1.992   3.074   5.527 -1.2511  0.8289 -0.2303
13431TIP3    H261785   1.909   2.979   5.612 -2.2503  0.8040 -1.2173
13432TIP3   OH261786   3.058   1.748   4.819 -0.5277  0.1921 -1.1928
13432TIP3    H161787   3.010   1.715   4.743  0.1355 -1.9642 -0.6949
13432TIP3    H261788   3.089   1.670   4.864 -0.2745  1.4706  0.9048
13433TIP3   OH261789   0.586   1.806   3.607 -0.0832  0.3762  0.1996
13433TIP3    H161790   0.495   1.799   3.633  0.1232  0.1224  0.8613
13433TIP3    H261791   0.621   1.879   3.659 -0.2622  1.3863 -1.0755
13434TIP3   OH261792   4.521   6.630  12.302  0.5455  0.3909 -0.0520
13434TIP3    H161793   4.609   6.666  12.289  0.5579  0.0543 -0.9323
13434TIP3    H261794   4.479   6.637  12.217  0.6857 -2.0042 -0.3707
13435TIP3   OH261795   2.663   4.621   1.314 -0.1994 -0.5169  0.6891
13435TIP3    H161796   2.582   4.624   1.365  1.0681  1.7051  2.7107
13435TIP3    H261797   2.732   4.632   1.380  1.6709 -0.9535 -1.1641
13436TIP3   OH261798   3.950   2.680  15.476 -0.0166  0.2203 -0.2073
13436TIP3    H161799   3.860   2.685  15.443  0.2998  0.2885 -1.0768
13436TIP3    H261800   3.942   2.695  15.570 -0.8904  0.4659 -0.3152
13437TIP3   OH261801   0.634   6.578  16.201 -0.1107  0.1075 -0.0949
13437TIP3    H161802   0.558   6.523  16.217  0.7806 -0.7723  1.1165
13437TIP3    H261803   0.619   6.656  16.255  0.0098 -0.2133  0.4035
13438TIP3   OH261804   4.776   5.236  16.691 -0.4463 -0.5542  0.0747
13438TIP3    H161805   4.710   5.229  16.622  0.9088 -0.8771 -1.2328
13438TIP3    H261806   4.784   5.329  16.708 -1.5059 -0.5386  0.5268
13439TIP3   OH261807   1.652   6.401  16.051  0.2953  0.0968  0.6879
13439TIP3    H161808   1.684   6.389  15.962  0.0970  0.7236  0.5298
13439TIP3    H261809   1.556   6.402  16.042  0.2621 -0.5023  0.9927
13440TIP3   OH261810   4.905   6.395   3.899 -0.3743 -0.3723 -0.0176
13440TIP3    H161811   4.982   6.446   3.875 -0.4482 -0.3808 -0.2780
13440TIP3    H261812   4.937   6.305   3.903 -0.2681 -0.3210  0.3326
13441TIP3   OH261813   1.952   0.881  13.856 -0.3760 -0.5184 -0.0195
13441TIP3    H161814   1.894   0.876  13.932  0.4052 -0.0479  0.6134
13441TIP3    H261815   2.004   0.801  13.861 -0.5026 -0.6130 -0.2090
13442TIP3   OH261816   0.336   6.608  13.110 -0.3311 -0.5987 -0.7661
13442TIP3    H161817   0.248   6.639  13.086 -0.0747  0.3869 -0.4218
13442TIP3    H261818   0.336   6.516  13.082 -1.2707 -0.4507 -1.3069
13443TIP3   OH261819   3.706   4.776  12.146  0.1525 -0.4421  0.1156
13443TIP3    H161820   3.657   4.833  12.087  1.8118  1.2915  0.3860
13443TIP3    H261821   3.713   4.825  12.228  1.6138 -1.0152  0.3511
13444TIP3   OH261822   0.151   5.380  16.770  0.5086  0.2994  0.1538
13444TIP3    H161823   0.056   5.379  16.765  0.5253  0.6081 -0.2714
13444TIP3    H261824   0.178   5.301  16.723  0.4376 -0.1964  0.9344
13445TIP3   OH261825   3.664   4.320   5.257  0.2219 -0.1587 -0.1358
13445TIP3    H161826   3.663   4.227   5.276  2.7204 -0.6082 -2.0041
13445TIP3    H261827   3.617   4.328   5.173  1.1192  0.0958 -0.6171
13446TIP3   OH261828   6.548   5.547   5.224  0.2658  0.0867  0.0531
13446TIP3    H161829   6.620   5.576   5.281 -0.0002 -0.7715  0.8274
13446TIP3    H261830   6.556   5.452   5.221 -0.0747  0.0840 -0.8866
13447TIP3   OH261831   3.113   1.985   2.258  0.1201  0.2066 -0.5240
13447TIP3    H161832   3.102   2.062   2.315  0.8838 -0.0738  0.0213
13447TIP3    H261833   3.204   1.959   2.271  0.5315  0.6241 -2.5189
13448TIP3   OH261834   5.876   6.741   0.565  0.8057 -0.2020  0.6573
13448TIP3    H161835   5.926   6.776   0.638 -0.0961  0.6955  0.8493
13448TIP3    H261836   5.890   6.804   0.494  0.0179  0.0062  0.6866
13449TIP3   OH261837   5.743   2.688   4.023 -0.1996 -0.3837 -0.2261
13449TIP3    H161838   5.716   2.699   4.114  0.9285  0.3183  0.0347
13449TIP3    H261839   5.742   2.593   4.010  0.4730 -0.5448  0.7915
13450TIP3   OH261840   0.203   2.778  11.171 -0.0490  0.0923 -0.8715
13450TIP3    H161841   0.192   2.695  11.125 -2.1318 -1.0595  1.6018
13450TIP3    H261842   0.188   2.844  11.104  0.9308 -1.4851 -2.7243
13451TIP3   OH261843   0.660   0.476  12.761  0.1088 -0.5047 -0.2680
13451TIP3    H161844   0.579   0.472  12.712  0.3998 -0.3445 -0.7658
13451TIP3    H261845   0.729   0.466  12.695  0.4834 -1.1116  0.1972
13452TIP3   OH261846   6.149   5.273  16.338 -0.1381 -0.0373 -0.3920
13452TIP3    H161847   6.173   5.182  16.357  2.0719  0.8025  0.9196
13452TIP3    H261848   6.093   5.266  16.260 -0.4825 -2.5575  0.0142
13453TIP3   OH261849   6.622   2.987   4.097  0.3480 -0.2954 -0.2864
13453TIP3    H161850   6.631   2.905   4.145 -1.0750 -2.3930 -3.4401
13453TIP3    H261851   6.712   3.013   4.075  0.8142 -0.8894  0.9053
13454TIP3   OH261852   0.899   3.958  11.491 -0.5086 -0.0636  0.3487
13454TIP3    H161853   0.960   3.976  11.419 -0.2699  1.5226  0.9225
13454TIP3    H261854   0.823   4.013  11.472 -1.1339 -0.8973  0.4331
13455TIP3   OH261855   6.490   2.524   2.828  0.1040 -0.1880  0.1383
13455TIP3    H161856   6.506   2.572   2.909 -0.3670  0.2216 -0.0148
13455TIP3    H261857   6.396   2.504   2.830  0.4963 -2.1469  0.7854
13456TIP3   OH261858   6.759   2.681   4.156 -0.0805  0.3076  0.3058
13456TIP3    H161859   6.795   2.595   4.177 -0.0804 -0.3852 -2.2739
13456TIP3    H261860   6.667   2.665   4.137 -0.1388  0.9137  0.0519
13457TIP3   OH261861   3.192   0.508  17.091 -0.6687 -0.2097 -0.7693
13457TIP3    H161862   3.102   0.498  17.123 -0.3154 -1.0126  0.0020
13457TIP3    H261863   3.183   0.513  16.995 -1.3896 -2.1138 -0.8189
13458TIP3   OH261864   3.196   1.718  12.618 -0.0884  0.0919  0.0117
13458TIP3    H161865   3.214   1.635  12.574  0.3733 -1.1124  2.4148
13458TIP3    H261866   3.102   1.715  12.636 -0.1244  0.2324 -0.1476
13459TIP3   OH261867   5.127   6.163  14.728  0.2251  0.8175  0.2788
13459TIP3    H161868   5.079   6.193  14.651  2.2137  3.7089  0.0561
13459TIP3    H261869   5.212   6.136  14.693  0.0724 -0.7670  1.1045
13460TIP3   OH261870   3.377   2.920  15.170 -0.0651 -0.4790  0.1717
13460TIP3    H161871   3.462   2.909  15.127 -0.2909 -2.0864  0.1036
13460TIP3    H261872   3.397   2.970  15.249  1.1568 -1.9421  0.8127
13461TIP3   OH261873   6.492   4.453  13.642 -0.3661  0.2916 -0.3480
13461TIP3    H161874   6.477   4.519  13.574  2.6349 -1.3178 -2.7325
13461TIP3    H261875   6.571   4.484  13.687  0.1499 -0.8527 -0.4657
13462TIP3   OH261876   5.239   4.354  12.759  0.2379  0.5973 -0.1064
13462TIP3    H161877   5.277   4.284  12.706 -2.3957 -0.0685 -1.1705
13462TIP3    H261878   5.267   4.434  12.715 -0.1678  0.1007 -1.3043
13463TIP3   OH261879   6.556   3.074   5.886  0.2531  0.0896  0.4043
13463TIP3    H161880   6.581   3.161   5.856 -2.0417  1.2627  1.7228
13463TIP3    H261881   6.598   3.066   5.972  0.3490 -0.0221  0.3462
13464TIP3   OH261882   3.840   0.733  12.530  0.0639 -0.1369  0.8926
13464TIP3    H161883   3.835   0.661  12.468  0.5800 -0.6466  1.4451
13464TIP3    H261884   3.762   0.786  12.511  1.3320  0.9159 -1.6499
13465TIP3   OH261885   2.959   2.632   0.563  0.6414 -0.9341  0.0013
13465TIP3    H161886   2.902   2.558   0.544  0.0792 -0.0786 -1.7683
13465TIP3    H261887   3.040   2.613   0.516 -0.1952  0.4596 -2.0660
13466TIP3   OH261888   3.707   0.758   5.227 -0.0744  0.1036 -0.0106
13466TIP3    H161889   3.665   0.797   5.304  0.3913 -1.9649  1.3112
13466TIP3    H261890   3.647   0.688   5.199 -0.7897  1.5236 -2.2365
13467TIP3   OH261891   0.535   5.464   3.001  0.4213 -0.3353  0.0196
13467TIP3    H161892   0.624   5.483   2.971  1.0574 -1.8875  0.8770
13467TIP3    H261893   0.547   5.415   3.083 -1.2290  0.0305  0.4947
13468TIP3   OH261894   5.383   3.851  13.930 -0.8131  0.3219  0.3437
13468TIP3    H161895   5.416   3.809  14.009 -0.8031  1.2126  0.8232
13468TIP3    H261896   5.412   3.942  13.938 -0.7422  0.3987 -0.7250
13469TIP3   OH261897   6.223   4.731  16.512  0.0755  0.3958  0.5014
13469TIP3    H161898   6.228   4.641  16.545 -0.8747  0.1807  0.0767
13469TIP3    H261899   6.132   4.741  16.483  0.6670  0.8550 -1.2706
13470TIP3   OH261900   1.522   4.016  15.148  0.0026 -0.1355 -0.1483
13470TIP3    H161901   1.579   4.075  15.196 -1.5222  0.4789  0.9443
13470TIP3    H261902   1.560   4.012  15.060  1.8278  0.0865  0.6102
13471TIP3   OH261903   5.220   5.303  16.619  0.5275  0.0988 -0.2606
13471TIP3    H161904   5.262   5.388  16.636 -0.1338  0.3196  0.3179
13471TIP3    H261905   5.284   5.239  16.648 -0.6122  0.4760  3.3512
13472TIP3   OH261906   3.706   0.331  11.937 -0.1577 -0.2877  0.5182
13472TIP3    H161907   3.776   0.386  11.971 -0.6399  0.4242  0.3650
13472TIP3    H261908   3.672   0.285  12.014 -0.9530  0.9854  0.9293
13473TIP3   OH261909   3.633   1.389  16.798 -0.2568  0.3882 -0.0340
13473TIP3    H161910   3.687   1.467  16.786 -0.2358  0.2851 -0.6503
13473TIP3    H261911   3.689   1.329  16.848 -0.5328  1.0236  1.0655
13474TIP3   OH261912   5.848   0.944   1.107 -0.3945 -0.0594  0.5188
13474TIP3    H161913   5.826   0.968   1.017  0.3850  1.6569  0.7708
13474TIP3    H261914   5.855   1.028   1.153 -0.7072 -0.9186  2.1635
13475TIP3   OH261915   3.388   2.489   2.648 -0.4119 -0.1520 -0.0703
13475TIP3    H161916   3.302   2.454   2.673 -0.4507  0.0951  0.1430
13475TIP3    H261917   3.369   2.556   2.582 -0.2130 -1.7983 -1.8414
13476TIP3   OH261918   4.813   1.155  17.154 -0.2788 -0.1367  0.2043
13476TIP3    H161919   4.765   1.098  17.215 -1.8561  0.8294 -0.0881
13476TIP3    H261920   4.904   1.147  17.180 -0.9633  0.6174  3.0167
13477TIP3   OH261921   3.887   2.763  15.130  0.5043  0.3431  0.0205
13477TIP3    H161922   3.828   2.688  15.121  1.2649 -0.2564 -0.0369
13477TIP3    H261923   3.836   2.828  15.178  0.1164 -0.5122  0.7767
13478TIP3   OH261924   1.848   5.147  15.856 -0.0295 -0.3796  0.0148
13478TIP3    H161925   1.851   5.220  15.794 -0.2515 -0.4533 -0.0826
13478TIP3    H261926   1.790   5.083  15.815  0.7755 -0.9391 -0.2573
13479TIP3   OH261927   6.674   0.291  13.995  0.0793  0.3897  0.2024
13479TIP3    H161928   6.700   0.258  13.909  1.3912  1.2792  0.2401
13479TIP3    H261929   6.579   0.277  13.998  0.0928 -0.1099 -1.1873
13480TIP3   OH261930   6.730   6.454   1.878 -0.0829 -0.3285  0.4196
13480TIP3    H161931   6.777   6.379   1.914  1.6830 -1.0069 -3.1331
13480TIP3    H261932   6.677   6.418   1.808  0.0573  1.5930 -0.7141
13481TIP3   OH261933   1.365   3.020   0.295  0.0940 -0.3948  0.3177
13481TIP3    H161934   1.289   3.005   0.239  0.5278  1.4929 -0.7937
13481TIP3    H261935   1.342   2.977   0.378 -1.9390 -0.3049 -0.1711
13482TIP3   OH261936   0.733   6.551  12.348 -0.5542  0.0174  0.0514
13482TIP3    H161937   0.820   6.553  12.389 -1.4071  1.0352  1.8304
13482TIP3    H261938   0.751   6.526  12.257  1.3994 -1.9544  0.9280
13483TIP3   OH261939   2.040   3.337  15.263 -0.4322 -0.0544  0.5157
13483TIP3    H161940   2.096   3.322  15.339  0.4363  0.9252  0.0867
13483TIP3    H261941   2.025   3.250  15.227  1.1950 -0.3138  0.3958
13484TIP3   OH261942   2.645   3.821   2.383  0.2034 -0.2200  0.0226
13484TIP3    H161943   2.618   3.866   2.463 -1.5020 -0.1668 -0.5713
13484TIP3    H261944   2.566   3.777   2.352  1.1930 -1.3828 -0.8894
13485TIP3   OH261945   2.822   3.381   3.318 -0.4670 -0.0588  0.1828
13485TIP3    H161946   2.798   3.432   3.241  0.6079  0.8259  0.4079
13485TIP3    H261947   2.754   3.315   3.326 -0.3431 -0.4486 -1.7961
13486TIP3   OH261948   1.833   2.899  14.498  0.1144  0.1237 -0.0614
13486TIP3    H161949   1.923   2.932  14.500 -0.1150  0.7648 -0.2078
13486TIP3    H261950   1.779   2.977  14.498 -0.4992 -0.2803  2.2367
13487TIP3   OH261951   1.285   5.463   0.235  0.3216  0.4098 -0.0379
13487TIP3    H161952   1.333   5.518   0.174 -0.4724  0.3638 -0.7200
13487TIP3    H261953   1.224   5.522   0.279 -0.3798  0.1276 -0.6144
13488TIP3   OH261954   2.047   4.777  12.532  0.2259 -0.6412 -0.2039
13488TIP3    H161955   2.028   4.692  12.495 -1.5385 -0.9532  1.3447
13488TIP3    H261956   1.963   4.809  12.566  0.3504  2.7309 -2.7477
13489TIP3   OH261957   6.798   0.037   2.150 -0.2204  0.4994 -0.4381
13489TIP3    H161958   6.771   0.024   2.241 -0.2964  0.8744 -0.4101
13489TIP3    H261959   6.833   0.126   2.147 -0.0719  0.4323 -0.7417
13490TIP3   OH261960   2.033   5.615  13.245  0.1075  0.1745 -0.1282
13490TIP3    H161961   2.104   5.669  13.210  0.0946 -0.3071 -0.9069
13490TIP3    H261962   2.074   5.531  13.263 -0.0243  0.2334  0.4577
13491TIP3   OH261963   4.618   2.560   4.154  0.8539  0.6668  0.1514
13491TIP3    H161964   4.564   2.520   4.085  0.4090 -1.4445  1.6894
13491TIP3    H261965   4.596   2.653   4.150 -0.7954  0.2488 -1.1297
13492TIP3   OH261966   6.161   5.478   5.065 -0.3332 -0.2457 -0.4474
13492TIP3    H161967   6.191   5.457   5.154  0.4128 -1.2578 -0.9429
13492TIP3    H261968   6.227   5.441   5.007 -0.7390  0.5581 -1.4297
13493TIP3   OH261969   3.090   0.011   0.460  0.0801  0.2314 -0.2266
13493TIP3    H161970   3.159   0.025   0.525  0.6558  0.9227 -0.9766
13493TIP3    H261971   3.010   0.005   0.511  0.6167  0.0780  0.6068
13494TIP3   OH261972   6.543   3.639  16.767 -0.2257 -0.3584  0.4040
13494TIP3    H161973   6.473   3.595  16.816 -0.7795 -0.9693 -0.9326
13494TIP3    H261974   6.517   3.731  16.765 -1.5809 -0.7599 -1.0786
13495TIP3   OH261975   3.021   0.334   6.393 -0.0867  0.5042 -0.1039
13495TIP3    H161976   3.115   0.331   6.413  0.0429  0.5733 -0.6877
13495TIP3    H261977   2.993   0.420   6.425 -0.1959  0.0361  1.0964
13496TIP3   OH261978   0.793   0.495  16.127 -0.1754 -0.2307 -0.5065
13496TIP3    H161979   0.787   0.400  16.136  0.4138 -0.3200 -1.0154
13496TIP3    H261980   0.725   0.518  16.064 -1.0188 -0.1901  0.4204
13497TIP3   OH261981   4.070   5.737  14.451 -0.0872 -0.3980  0.2647
13497TIP3    H161982   4.072   5.816  14.504 -0.0196 -0.6147  0.5812
13497TIP3    H261983   4.093   5.767  14.362 -0.6213  0.0249  0.2726
13498TIP3   OH261984   0.707   0.788   3.981 -0.5418  0.3288 -0.2373
13498TIP3    H161985   0.755   0.805   4.062  0.8283 -0.4282 -0.8689
13498TIP3    H261986   0.615   0.783   4.008  0.0496 -1.6134  1.5513
13499TIP3   OH261987   2.008   0.895  12.818 -0.9045 -0.0925  0.9056
13499TIP3    H161988   2.051   0.978  12.839 -0.9045  0.5918 -1.6422
13499TIP3    H261989   1.915   0.917  12.814 -0.7903  0.0721 -1.0237
13500TIP3   OH261990   2.177   1.455   5.699 -0.4221  0.6578 -0.3780
13500TIP3    H161991   2.165   1.406   5.780  0.3303 -0.5249 -0.9749
13500TIP3    H261992   2.125   1.534   5.711 -0.1140  0.6159  1.3672
13501TIP3   OH261993   5.457   3.531   1.474 -0.2850  0.2600 -0.0961
13501TIP3    H161994   5.414   3.448   1.495 -0.0407  0.7184  2.3097
13501TIP3    H261995   5.407   3.566   1.401 -1.5264 -1.1248  0.0666
13502TIP3   OH261996   5.497   4.561   3.974 -0.0952 -0.2166  0.0701
13502TIP3    H161997   5.524   4.484   4.024 -0.1079 -0.4566 -0.2883
13502TIP3    H261998   5.512   4.635   4.033  2.2941 -0.2367 -0.4623
13503TIP3   OH261999   5.458   0.637  12.285  0.2930  0.3192 -0.0843
13503TIP3    H162000   5.394   0.620  12.216  0.1876 -2.2423  0.6023
13503TIP3    H262001   5.541   0.604  12.250  0.4209 -0.1225  0.6217
13504TIP3   OH262002   6.469   2.961  15.354 -0.5245 -0.0867  0.0154
13504TIP3    H162003   6.509   3.030  15.300 -1.4356  0.9130  0.6034
13504TIP3    H262004   6.429   3.008  15.428  0.5571 -1.4106  1.4898
13505TIP3   OH262005   1.961   6.365   1.505  0.0686  0.3341 -0.3093
13505TIP3    H162006   1.914   6.291   1.468  2.5979 -0.1992 -2.5627
13505TIP3    H262007   1.988   6.417   1.430  1.4841  1.6091  1.0417
13506TIP3   OH262008   0.179   4.428  11.688  0.4308  0.1075  0.2715
13506TIP3    H162009   0.180   4.336  11.663 -1.2779  0.2033 -0.2432
13506TIP3    H262010   0.171   4.427  11.783  0.9895 -0.2721  0.3150
13507TIP3   OH262011   0.089   0.909   2.077 -0.0332  0.5862  0.1062
13507TIP3    H162012   0.109   0.816   2.061 -1.8337  0.2268 -0.1296
13507TIP3    H262013   0.175   0.950   2.086  0.7791 -1.5199  2.6420
13508TIP3   OH262014   6.509   6.293   4.982 -0.8196 -0.0263 -0.0792
13508TIP3    H162015   6.517   6.199   4.966 -3.6267 -0.4209  0.4664
13508TIP3    H262016   6.442   6.300   5.050  1.3199  2.2593  1.8924
13509TIP3   OH262017   5.892   3.914  10.301  0.2836 -0.2422 -0.2451
13509TIP3    H162018   5.813   3.962  10.276 -0.1003  0.1477  1.5930
13509TIP3    H262019   5.873   3.883  10.390  1.7212 -1.1887 -0.2593
13510TIP3   OH262020   3.916   1.390  10.648 -0.0158  0.5227  0.3979
13510TIP3    H162021   3.872   1.442  10.715 -1.7365  0.7758 -0.8803
13510TIP3    H262022   3.900   1.299  10.674 -0.4784  0.6188  0.4522
13511TIP3   OH262023   0.522   5.445  16.692 -0.7449  0.0352 -0.1160
13511TIP3    H162024   0.455   5.500  16.733 -1.2805 -1.9244  1.7135
13511TIP3    H262025   0.475   5.366  16.666  0.8145 -1.3549  1.1665
13512TIP3   OH262026   4.897   1.926  12.121  0.4669 -0.0296  0.1614
13512TIP3    H162027   4.869   1.834  12.120 -0.4453  0.2335 -0.9302
13512TIP3    H262028   4.951   1.934  12.199  1.0937 -1.6530 -0.0765
13513TIP3   OH262029   5.040   2.391   1.349 -0.4001  0.4998  0.4036
13513TIP3    H162030   5.037   2.487   1.352  1.2979  0.5905 -0.2930
13513TIP3    H262031   4.959   2.366   1.304 -0.1445  1.6928 -0.7563
13514TIP3   OH262032   6.410   2.419   3.652 -0.0626  0.3165 -0.5750
13514TIP3    H162033   6.480   2.462   3.701 -1.4061  2.0551 -0.1641
13514TIP3    H262034   6.376   2.353   3.713  1.7203 -1.1275 -1.0680
13515TIP3   OH262035   4.394   1.113  11.521 -0.0178 -0.3033  0.5403
13515TIP3    H162036   4.419   1.177  11.589 -1.2020  0.8320 -0.0671
13515TIP3    H262037   4.469   1.108  11.463 -0.2221  1.1731  0.1388
13516TIP3   OH262038   1.886   5.452   4.443 -0.2393  0.0296  0.1649
13516TIP3    H162039   1.815   5.516   4.436 -0.1271  0.0941 -0.3797
13516TIP3    H262040   1.902   5.424   4.353  1.3365  1.0058  0.1309
13517TIP3   OH262041   3.955   3.068   2.177  0.1191 -0.3658  0.0921
13517TIP3    H162042   3.960   3.163   2.183 -1.3502 -0.0893 -2.2365
13517TIP3    H262043   4.020   3.045   2.110 -1.4819 -0.6869 -1.3886
13518TIP3   OH262044   4.483   2.491   2.179  0.1712 -0.1895  0.0765
13518TIP3    H162045   4.532   2.464   2.102 -0.5310 -1.8078  0.1655
13518TIP3    H262046   4.392   2.467   2.160  0.1677 -1.7806  1.8768
13519TIP3   OH262047   0.874   3.126   4.416 -0.5027  0.2915 -0.2413
13519TIP3    H162048   0.851   3.067   4.487 -0.5576 -0.0219 -0.5173
13519TIP3    H262049   0.950   3.086   4.374 -0.6861  0.2904 -0.5777
13520TIP3   OH262050   0.662   2.584  15.009 -0.1446 -0.0721 -0.5227
13520TIP3    H162051   0.640   2.597  14.917 -0.0952 -1.0265 -0.6721
13520TIP3    H262052   0.629   2.663  15.053 -0.5587  0.1841 -1.2927
13521TIP3   OH262053   5.313   5.292   3.754 -0.7419  0.7328  0.5417
13521TIP3    H162054   5.222   5.273   3.729 -0.4733 -0.3021  0.3194
13521TIP3    H262055   5.362   5.280   3.673  0.3912 -4.3441  1.7854
13522TIP3   OH262056   2.219   2.824   4.543 -0.3822 -0.5112  0.2878
13522TIP3    H162057   2.126   2.837   4.529 -0.3543  0.3611  0.8889
13522TIP3    H262058   2.262   2.886   4.484 -0.2284  0.7967  1.7303
13523TIP3   OH262059   1.597   1.510  13.433  0.2026  0.2084  0.4993
13523TIP3    H162060   1.546   1.580  13.394 -0.1225 -0.3172 -0.0263
13523TIP3    H262061   1.540   1.433  13.428  1.6557 -0.7657 -1.6096
13524TIP3   OH262062   2.000   6.321   3.818 -0.0860  0.7253  0.2437
13524TIP3    H162063   2.053   6.244   3.794  0.6188  1.3458 -0.1992
13524TIP3    H262064   1.911   6.297   3.796  0.3008  0.5277 -1.1087
13525TIP3   OH262065   6.099   6.503   4.859 -0.1135 -0.3890  0.1304
13525TIP3    H162066   6.009   6.470   4.865 -0.9715  1.8527 -0.1453
13525TIP3    H262067   6.131   6.502   4.949 -0.5561 -0.7543  0.2855
13526TIP3   OH262068   0.798   5.021  11.600 -0.1066 -0.0625  0.4373
13526TIP3    H162069   0.791   5.007  11.695  1.9675 -3.6470  0.1550
13526TIP3    H262070   0.891   5.038  11.585 -0.5666  1.3744 -0.8812
13527TIP3   OH262071   2.967   4.970  15.755 -0.9061 -0.1233  0.3887
13527TIP3    H162072   2.986   4.932  15.670 -2.3192  0.8201 -0.3660
13527TIP3    H262073   2.892   4.920  15.787 -2.0143  1.2032 -0.0810
13528TIP3   OH262074   6.655   6.480   1.002  0.1605 -0.5925  0.0212
13528TIP3    H162075   6.641   6.405   1.059  2.4497  0.1473  1.6285
13528TIP3    H262076   6.745   6.472   0.972 -0.0945  0.6353 -1.1355
13529TIP3   OH262077   4.836   5.049   6.529  0.0069  0.0649  0.4003
13529TIP3    H162078   4.870   5.137   6.542  0.8590 -0.2543  0.3218
13529TIP3    H262079   4.847   5.005   6.614 -0.3815  0.0191  0.4295
13530TIP3   OH262080   5.919   6.231  14.898  0.3145  0.2708 -0.3171
13530TIP3    H162081   5.844   6.220  14.957  1.0027  0.3092  0.5756
13530TIP3    H262082   5.951   6.319  14.917  1.1337 -0.0851 -0.0658
13531TIP3   OH262083   5.849   6.014  14.327 -0.0673 -0.3320 -0.4336
13531TIP3    H162084   5.784   6.078  14.298 -0.7571 -0.1544  1.4546
13531TIP3    H262085   5.934   6.055  14.308 -0.4895 -0.0013 -1.6644
13532TIP3   OH262086   5.998   2.953  12.767 -0.0826 -0.2538 -0.2988
13532TIP3    H162087   6.039   2.866  12.772  2.0079  0.8049  1.9107
13532TIP3    H262088   5.950   2.961  12.849 -1.7816 -0.0169 -1.3019
13533TIP3   OH262089   2.058   0.698  17.089 -0.2606  0.5168 -0.2629
13533TIP3    H162090   2.129   0.635  17.071  1.6370  1.4263  3.6148
13533TIP3    H262091   1.989   0.645  17.128  0.3948  0.4231  0.7999
13534TIP3   OH262092   5.243   3.976   2.145  0.2132 -0.1533 -0.3320
13534TIP3    H162093   5.175   3.909   2.143 -0.6549  0.7413 -1.9106
13534TIP3    H262094   5.241   4.010   2.235  0.4421 -1.9708  0.3884
13535TIP3   OH262095   3.593   0.434   0.650  0.1212  0.3699  0.2348
13535TIP3    H162096   3.600   0.505   0.713  0.8323  2.0145 -1.6276
13535TIP3    H262097   3.503   0.442   0.616 -0.2605 -0.5087  1.0236
13536TIP3   OH262098   2.404   0.774   2.763  0.3497 -0.0802 -0.3949
13536TIP3    H162099   2.454   0.700   2.731  0.6334  0.2209 -0.6509
13536TIP3    H262100   2.327   0.735   2.805  0.5461 -0.5182 -0.4432
13537TIP3   OH262101   5.768   4.652  12.172  0.0703  0.0813 -0.2685
13537TIP3    H162102   5.809   4.694  12.097  2.1254 -2.1248 -0.4526
13537TIP3    H262103   5.822   4.678  12.247 -0.8861  0.7994  0.1816
13538TIP3   OH262104   1.090   4.995  16.166 -0.4597  0.2279  0.0125
13538TIP3    H162105   1.081   4.917  16.110  2.2255  0.7415 -1.1997
13538TIP3    H262106   1.084   5.069  16.104  0.3976  0.8720  0.6927
13539TIP3   OH262107   6.817   5.394   0.434  0.1647 -0.5032 -0.0202
13539TIP3    H162108   6.728   5.361   0.446 -0.0995  0.1829 -0.0699
13539TIP3    H262109   6.805   5.481   0.395  0.7410  0.9428  2.9161
13540TIP3   OH262110   6.034   2.098   5.981 -0.2763 -0.1214  0.3889
13540TIP3    H162111   6.105   2.035   5.969 -0.2595 -0.3863  1.7939
13540TIP3    H262112   6.050   2.136   6.068 -2.1052 -0.5155  0.9154
13541TIP3   OH262113   1.443   4.040  13.095 -0.3421  0.1076 -0.2039
13541TIP3    H162114   1.528   4.003  13.072 -0.3611  0.4617 -0.8325
13541TIP3    H262115   1.462   4.105  13.162 -0.0199  0.8328 -0.9995
13542TIP3   OH262116   5.923   2.325   3.352  0.5944  0.5257  0.7771
13542TIP3    H162117   5.880   2.270   3.418 -0.3709  0.9244  0.4823
13542TIP3    H262118   6.011   2.288   3.345 -0.8931 -2.8936 -1.5651
13543TIP3   OH262119   1.808   1.198  14.102 -0.5926 -0.0893 -0.0703
13543TIP3    H162120   1.894   1.198  14.061 -0.5617 -0.5323 -0.0034
13543TIP3    H262121   1.820   1.156  14.186 -0.7215  0.5505  0.2734
13544TIP3   OH262122   1.526   4.895   3.288  0.3079 -0.4214 -0.1471
13544TIP3    H162123   1.473   4.848   3.353  0.7257 -0.5982  0.0710
13544TIP3    H262124   1.568   4.966   3.338 -1.0905  0.8042 -0.6723
13545TIP3   OH262125   1.881   4.671  13.592 -0.4051 -0.2926  0.4958
13545TIP3    H162126   1.925   4.756  13.593 -1.6356  0.3725 -0.7630
13545TIP3    H262127   1.887   4.641  13.683  0.4961  0.8849  0.8472
13546TIP3   OH262128   2.589   1.853   5.492  0.0411 -0.3939 -0.2233
13546TIP3    H162129   2.616   1.788   5.428 -0.7183  0.3284 -1.3024
13546TIP3    H262130   2.637   1.932   5.467 -0.3110 -0.0896  0.0571
13547TIP3   OH262131   6.539   3.590  10.762  0.4271  0.0631 -0.0476
13547TIP3    H162132   6.533   3.684  10.782  2.6006  0.5854 -1.6175
13547TIP3    H262133   6.630   3.578  10.735  0.5243 -2.7864  1.4817
13548TIP3   OH262134   6.338   2.499  15.791 -0.0283 -0.4667 -0.2714
13548TIP3    H162135   6.252   2.539  15.785 -0.0381 -0.5796 -0.8517
13548TIP3    H262136   6.387   2.557  15.849 -0.3712 -0.1930 -0.2551
13549TIP3   OH262137   5.922   0.850  13.214 -0.2271 -0.0423  0.3214
13549TIP3    H162138   5.857   0.783  13.233  0.2709 -1.0358 -1.3365
13549TIP3    H262139   6.006   0.809  13.237 -0.0611  0.7301  1.1403
13550TIP3   OH262140   4.895   0.864   6.769 -0.2419 -0.7955  0.1419
13550TIP3    H162141   4.911   0.783   6.817 -0.2140 -1.2175 -0.5642
13550TIP3    H262142   4.875   0.929   6.836  1.4642 -0.9629  0.8469
13551TIP3   OH262143   4.559   5.994   0.565 -0.3369 -0.5031  0.6072
13551TIP3    H162144   4.545   5.912   0.517 -1.0667 -0.5958  0.9703
13551TIP3    H262145   4.475   6.011   0.608  0.0084  0.1023  1.0470
13552TIP3   OH262146   6.652   2.914  11.355  0.4425  0.8575 -0.2022
13552TIP3    H162147   6.646   2.989  11.415  0.9248  0.9756 -0.3011
13552TIP3    H262148   6.725   2.863  11.388  2.1280  2.0521 -1.9452
13553TIP3   OH262149   4.898   5.226   0.293  0.0188 -0.0797  0.3490
13553TIP3    H162150   4.930   5.316   0.289  0.1341 -0.1782 -3.0754
13553TIP3    H262151   4.942   5.187   0.369  1.1370  2.3080  0.9553
13554TIP3   OH262152   6.603   5.752   5.035 -0.0216  0.4688  0.3787
13554TIP3    H162153   6.514   5.777   5.060  0.1448 -0.2438  1.7214
13554TIP3    H262154   6.610   5.660   5.059  0.4300 -0.0197 -1.5707
13555TIP3   OH262155   2.845   2.642  10.995 -0.5536 -0.1085 -0.0934
13555TIP3    H162156   2.838   2.727  11.038 -1.0095  0.0472 -0.4669
13555TIP3    H262157   2.821   2.578  11.062  0.4648  0.0091  0.3843
13556TIP3   OH262158   1.546   3.341   1.465 -0.1981 -0.0972 -0.2524
13556TIP3    H162159   1.491   3.413   1.433  0.8984  0.9800  0.2588
13556TIP3    H262160   1.588   3.306   1.387 -1.2838 -0.6614 -0.5957
13557TIP3   OH262161   1.345   4.030  16.923 -0.3763 -0.0809  0.6323
13557TIP3    H162162   1.345   4.081  16.841  0.4854 -1.4384 -0.2408
13557TIP3    H262163   1.435   4.037  16.954  0.0963 -2.1708 -0.2137
13558TIP3   OH262164   3.815   3.184  10.723 -0.1078 -0.3855  0.2580
13558TIP3    H162165   3.886   3.229  10.675 -0.2539 -0.4315 -0.0037
13558TIP3    H262166   3.735   3.220  10.685 -0.2461 -2.2389 -1.2950
13559TIP3   OH262167   5.038   1.703   1.993 -0.4220  0.0725 -0.5747
13559TIP3    H162168   5.040   1.754   2.074  1.5677  0.1592 -0.6631
13559TIP3    H262169   5.021   1.768   1.925  0.3569  0.3635 -0.4954
13560TIP3   OH262170   5.269   4.347   2.895 -0.0953 -0.3868 -0.0290
13560TIP3    H162171   5.365   4.342   2.896 -0.0516  0.4115 -0.0048
13560TIP3    H262172   5.247   4.405   2.968 -0.7107 -2.1478  1.2236
13561TIP3   OH262173   2.130   6.130   2.687 -0.0859  0.0634  0.1945
13561TIP3    H162174   2.072   6.077   2.742 -1.7167  2.4690  0.8945
13561TIP3    H262175   2.207   6.076   2.673 -0.4561 -1.3405  3.3072
13562TIP3   OH262176   5.390   6.502   3.310  0.0147  0.0264 -0.2380
13562TIP3    H162177   5.483   6.514   3.290  0.9176 -2.3559  2.2489
13562TIP3    H262178   5.382   6.528   3.402 -1.8393  0.4903 -0.5224
13563TIP3   OH262179   4.065   1.672  15.516  0.6010  0.3103 -0.0949
13563TIP3    H162180   4.136   1.701  15.573  1.3090  0.2240 -0.9216
13563TIP3    H262181   4.106   1.607  15.459 -0.1084  0.3628 -0.6669
13564TIP3   OH262182   0.081   6.457  14.330 -0.1398  0.1854 -0.7728
13564TIP3    H162183  -0.000   6.409  14.346  0.1575 -0.4763 -1.1974
13564TIP3    H262184   0.080   6.529  14.393 -0.9401  0.0406 -0.6158
13565TIP3   OH262185   1.183   6.694   2.547 -0.3604 -0.4353 -0.7091
13565TIP3    H162186   1.196   6.629   2.616 -0.6505  1.2466  0.9808
13565TIP3    H262187   1.088   6.703   2.540 -0.3418 -0.8834 -1.6199
13566TIP3   OH262188   3.628   0.977   3.365 -0.6372 -0.0742 -0.4156
13566TIP3    H162189   3.623   1.051   3.425  1.7721 -1.0681  1.0486
13566TIP3    H262190   3.582   1.007   3.286 -1.4518  2.2252  0.8951
13567TIP3   OH262191   1.972   2.897   6.161 -0.7874 -0.5371  0.2952
13567TIP3    H162192   2.000   2.967   6.102  1.5965 -0.0566  1.8670
13567TIP3    H262193   1.943   2.943   6.240  1.7588 -1.2468  1.7347
13568TIP3   OH262194   1.877   5.908  14.666 -0.2922 -0.1810  0.0243
13568TIP3    H162195   1.852   5.949  14.748  4.2638  1.4587  0.7205
13568TIP3    H262196   1.912   5.822  14.692  0.5764  0.0900 -0.2283
13569TIP3   OH262197   0.199   4.706  14.403 -0.2125 -0.4335  0.1697
13569TIP3    H162198   0.280   4.733  14.445 -0.1395  1.5984 -1.1770
13569TIP3    H262199   0.227   4.655  14.327 -0.2889 -2.0084  1.1718
13570TIP3   OH262200   4.035   3.795  10.823  0.2544 -0.0445  0.2323
13570TIP3    H162201   4.030   3.880  10.867 -0.1534  0.2447 -0.3635
13570TIP3    H262202   3.948   3.783  10.785  0.6754 -0.1621 -0.7104
13571TIP3   OH262203   3.079   6.699   0.214  0.6556  0.0357 -0.6246
13571TIP3    H162204   3.140   6.726   0.283 -0.0846 -1.2783  0.5589
13571TIP3    H262205   3.131   6.641   0.158  0.0933 -2.3279  1.2524
13572TIP3   OH262206   5.801   3.214   1.235 -0.1965  0.2203 -0.2332
13572TIP3    H162207   5.810   3.277   1.164  0.4497 -0.0013 -0.3590
13572TIP3    H262208   5.817   3.129   1.194 -2.4858 -0.1670 -0.3445
13573TIP3   OH262209   2.864   2.118  14.366  0.0870 -0.0506 -0.1855
13573TIP3    H162210   2.790   2.061  14.346  0.3993 -0.2839 -0.6519
13573TIP3    H262211   2.843   2.153  14.453  0.2491 -1.4301  0.4178
13574TIP3   OH262212   3.365   4.024  12.768  0.5409 -0.3062  0.4058
13574TIP3    H162213   3.457   4.012  12.791  0.5024  0.5072  1.0335
13574TIP3    H262214   3.332   4.087  12.833 -0.4441 -0.5564  0.1631
13575TIP3   OH262215   2.722   3.191  12.690  0.3890 -0.1453  0.5639
13575TIP3    H162216   2.660   3.145  12.746  1.3674 -1.0567  0.8997
13575TIP3    H262217   2.800   3.202  12.744  0.7471  0.4378 -0.0636
13576TIP3   OH262218   1.157   3.870  15.513 -0.0475 -0.5380 -0.1026
13576TIP3    H162219   1.207   3.791  15.533  0.3844  0.3466  2.4220
13576TIP3    H262220   1.219   3.927  15.468  0.4437 -0.4958  0.6315
13577TIP3   OH262221   6.337   1.563  15.649 -0.4706  0.4449 -0.1317
13577TIP3    H162222   6.345   1.468  15.641 -1.2736  0.3722 -0.0566
13577TIP3    H262223   6.320   1.594  15.560 -1.0247  0.4424 -0.0243
13578TIP3   OH262224   0.539   3.198  11.264 -0.2941  0.1816 -0.5174
13578TIP3    H162225   0.454   3.235  11.289  0.2190 -0.4672  2.3164
13578TIP3    H262226   0.529   3.104  11.279  1.0254  0.1444  0.1642
13579TIP3   OH262227   4.708   0.198  11.427  0.1921 -0.0242 -0.8370
13579TIP3    H162228   4.771   0.197  11.499  0.9254  2.4530 -1.3883
13579TIP3    H262229   4.742   0.263  11.366 -2.4143  0.7406 -1.5594
13580TIP3   OH262230   4.936   0.857  13.938  0.1064 -0.3491 -0.1027
13580TIP3    H162231   5.007   0.900  13.889 -0.8278  0.3692 -0.8383
13580TIP3    H262232   4.873   0.927  13.954 -1.3871 -1.4026 -1.2108
13581TIP3   OH262233   1.820   1.240  14.428 -0.0504  0.3912 -0.1335
13581TIP3    H162234   1.746   1.300  14.437  0.3611  0.8645  0.1010
13581TIP3    H262235   1.784   1.164  14.382 -0.8139  0.3820  0.4719
13582TIP3   OH262236   2.212   0.589   5.556  0.1200  0.0110 -0.2857
13582TIP3    H162237   2.291   0.632   5.525 -1.2438  1.3599 -1.9616
13582TIP3    H262238   2.181   0.645   5.627 -0.4137  0.5781 -0.9598
13583TIP3   OH262239   6.590   1.962   2.739 -0.2777 -0.2032  0.4678
13583TIP3    H162240   6.568   2.055   2.745  1.0489  0.1741 -0.1901
13583TIP3    H262241   6.506   1.917   2.731 -0.8675  1.0483 -0.4657
13584TIP3   OH262242   2.792   5.838   5.504  0.6290 -0.2188 -0.2414
13584TIP3    H162243   2.839   5.910   5.462  0.2579  1.3089  1.9305
13584TIP3    H262244   2.715   5.825   5.449  0.8575  0.8061 -0.8175
13585TIP3   OH262245   6.097   1.862   1.119 -0.5296 -0.2571  0.2676
13585TIP3    H162246   6.156   1.800   1.161  0.1123  0.5101  0.5238
13585TIP3    H262247   6.043   1.809   1.061  0.3879 -0.9748  0.0605
13586TIP3   OH262248   3.636   6.766  16.189  0.2644  0.0519 -0.3666
13586TIP3    H162249   3.628   6.831  16.258  1.3467  0.9559 -1.0856
13586TIP3    H262250   3.593   6.806  16.113  0.5601 -0.2547 -0.6950
13587TIP3   OH262251   5.972   3.075  14.575  0.4374  0.1937 -0.3614
13587TIP3    H162252   6.066   3.072  14.561  0.8239  0.9926  1.8458
13587TIP3    H262253   5.960   3.133  14.651 -1.8019 -0.1192 -0.4193
13588TIP3   OH262254   6.302   5.771  13.477 -0.4470 -0.4790  0.4806
13588TIP3    H162255   6.228   5.776  13.417  0.8637 -1.0163 -1.2498
13588TIP3    H262256   6.299   5.852  13.527 -1.3856  0.1544 -0.5799
13589TIP3   OH262257   1.382   1.380  13.106 -0.3486  0.2929 -0.6280
13589TIP3    H162258   1.465   1.412  13.143  0.3374  0.2498 -2.1111
13589TIP3    H262259   1.316   1.442  13.139  0.4343  0.9906 -0.3526
13590TIP3   OH262260   4.240   0.322  15.103  0.7668  0.3272 -0.3024
13590TIP3    H162261   4.265   0.232  15.126  0.1045  0.2347  0.0692
13590TIP3    H262262   4.300   0.377  15.153  0.0965  0.1072  0.7655
13591TIP3   OH262263   1.066   4.416   5.784 -0.1136 -0.1697 -0.1063
13591TIP3    H162264   1.126   4.342   5.795 -0.3644 -0.1003  1.8594
13591TIP3    H262265   1.112   4.476   5.725  0.9996 -0.9043  0.0048
13592TIP3   OH262266   0.262   2.612  12.010 -0.2214 -0.5311 -0.3445
13592TIP3    H162267   0.183   2.562  11.992  2.2431 -4.1953 -1.5446
13592TIP3    H262268   0.312   2.559  12.072  2.7321  0.1132 -2.0540
13593TIP3   OH262269   3.953   0.489   1.887  0.1389 -0.0309 -0.6017
13593TIP3    H162270   3.983   0.538   1.963 -0.1223 -2.4241  1.1071
13593TIP3    H262271   4.009   0.411   1.885 -2.1003 -1.6935 -0.7981
13594TIP3   OH262272   2.622   5.311   4.770  0.2306  0.1461 -0.1097
13594TIP3    H162273   2.635   5.282   4.680  1.8790 -0.2448  0.2387
13594TIP3    H262274   2.641   5.405   4.768 -1.3039  0.4646 -0.4694
13595TIP3   OH262275   3.202   4.688   1.712 -0.5600  0.1048 -0.6658
13595TIP3    H162276   3.278   4.712   1.658 -0.8004  0.5218 -0.8198
13595TIP3    H262277   3.160   4.771   1.733 -0.1097 -0.0026  0.7058
13596TIP3   OH262278   3.743   3.375   5.584 -0.7715  0.0859 -0.0251
13596TIP3    H162279   3.727   3.446   5.647 -2.5398 -0.3765  0.0807
13596TIP3    H262280   3.812   3.322   5.623 -0.9527  0.5341  0.9001
13597TIP3   OH262281   2.912   3.264   5.503  0.2664 -0.4990  0.4533
13597TIP3    H162282   2.925   3.172   5.524  0.9435 -0.2992  0.9476
13597TIP3    H262283   2.922   3.268   5.408  2.3982 -0.6158  0.6489
13598TIP3   OH262284   1.244   2.208  13.994 -0.6187 -0.0179 -0.1830
13598TIP3    H162285   1.246   2.232  13.902 -0.7953  0.1700 -0.1377
13598TIP3    H262286   1.187   2.131  13.997  1.5207 -1.6661 -0.6038
13599TIP3   OH262287   2.388   0.950   5.094 -0.1484  0.2093  0.3182
13599TIP3    H162288   2.480   0.969   5.113 -0.1444  0.6645 -0.1432
13599TIP3    H262289   2.359   1.025   5.043 -0.7125 -0.0501  0.2648
13600TIP3   OH262290   4.500   2.055   0.334 -0.3063  0.0301  0.0208
13600TIP3    H162291   4.550   2.098   0.265  0.0252  1.4010  1.1089
13600TIP3    H262292   4.557   1.985   0.365 -0.7722 -1.1104 -1.6247
13601TIP3   OH262293   1.817   3.947   1.720 -0.0660 -0.3078  0.3229
13601TIP3    H162294   1.797   3.898   1.640  2.0522 -0.9914  0.1827
13601TIP3    H262295   1.865   3.885   1.775  0.7788  0.9685  1.0480
13602TIP3   OH262296   3.465   2.462   1.862 -0.2269 -0.4389 -0.0759
13602TIP3    H162297   3.438   2.516   1.937  0.6979 -1.3841  0.9672
13602TIP3    H262298   3.385   2.417   1.836 -0.1216 -1.7886  1.7848
13603TIP3   OH262299   2.220   5.711  16.761 -0.0671 -0.1362  0.7065
13603TIP3    H162300   2.266   5.736  16.681 -0.2719 -1.0838  0.2838
13603TIP3    H262301   2.262   5.763  16.830  1.5226 -0.8634  0.3037
13604TIP3   OH262302   4.822   3.654   3.403 -0.2868 -0.7782  0.1355
13604TIP3    H162303   4.799   3.687   3.490  0.4855  0.8341 -0.2509
13604TIP3    H262304   4.918   3.663   3.399 -0.4338  0.3827 -1.3415
13605TIP3   OH262305   3.282   3.905   2.929 -1.0911  0.1162 -0.0664
13605TIP3    H162306   3.314   3.990   2.959  1.9784 -0.6452 -0.9996
13605TIP3    H262307   3.257   3.920   2.838  0.4945 -0.2367 -0.5596
13606TIP3   OH262308   0.705   6.145   3.445  0.4893  0.2712 -0.0850
13606TIP3    H162309   0.770   6.088   3.404 -1.6229 -1.1147 -1.6736
13606TIP3    H262310   0.641   6.162   3.375 -0.5388  2.0815  1.2489
13607TIP3   OH262311   1.783   6.002  12.816 -0.1203  0.0824 -0.0371
13607TIP3    H162312   1.725   5.939  12.774 -0.4524 -1.8885  3.1912
13607TIP3    H262313   1.757   6.087  12.781 -1.6720 -1.2620 -2.2426
13608TIP3   OH262314   2.671   2.339   3.886 -0.1166  0.1198  0.2266
13608TIP3    H162315   2.607   2.405   3.860  1.0360  1.0213 -0.3697
13608TIP3    H262316   2.755   2.372   3.853  0.2524 -2.5260 -1.6767
13609TIP3   OH262317   3.732   3.028   2.877  0.3576 -0.4153  0.6365
13609TIP3    H162318   3.683   3.060   2.953 -0.5511 -1.5280  0.5229
13609TIP3    H262319   3.681   2.954   2.845 -0.1623  1.0358 -2.0788
13610TIP3   OH262320   3.946   2.935  14.828  0.5973 -0.2909  0.2692
13610TIP3    H162321   3.878   2.962  14.891  1.3362  2.4383 -0.0350
13610TIP3    H262322   3.919   2.975  14.745  2.7320  1.1552  0.2296
13611TIP3   OH262323   2.171   4.203   3.293 -0.0206  0.4737  0.7552
13611TIP3    H162324   2.233   4.196   3.221 -0.7375  0.0514  0.1783
13611TIP3    H262325   2.153   4.297   3.300  0.7520  0.6065  0.9877
13612TIP3   OH262326   1.385   2.968   3.631 -0.1343 -0.3348  0.6724
13612TIP3    H162327   1.345   2.910   3.566 -1.0645  0.0969  0.8509
13612TIP3    H262328   1.445   2.912   3.679 -1.7369 -1.3888  1.4759
13613TIP3   OH262329   1.125   3.594  14.624 -0.2458 -0.4308  0.5179
13613TIP3    H162330   1.063   3.641  14.680 -0.3033 -0.6490  0.6416
13613TIP3    H262331   1.179   3.662  14.585  0.2928 -0.3233  1.4346
13614TIP3   OH262332   2.942   1.830  16.831 -0.4903 -0.0737  0.4257
13614TIP3    H162333   3.011   1.882  16.790  0.0037 -0.9671  0.1015
13614TIP3    H262334   2.989   1.756  16.871 -1.1526 -0.1317  1.0974
13615TIP3   OH262335   0.326   0.339  14.967  0.0488 -0.0608  0.1748
13615TIP3    H162336   0.399   0.401  14.967  0.8843 -0.9627 -2.8650
13615TIP3    H262337   0.248   0.395  14.955  0.5888  0.5764 -0.3982
13616TIP3   OH262338   4.124   6.513  15.437  0.6480 -0.3329 -0.1842
13616TIP3    H162339   4.188   6.493  15.369  1.4250 -2.9596  1.2330
13616TIP3    H262340   4.155   6.595  15.476  1.0039  0.4218 -1.9866
13617TIP3   OH262341   2.231   1.721   1.385 -0.0245  0.0623  0.5067
13617TIP3    H162342   2.324   1.742   1.393 -0.3039  1.2890  0.6444
13617TIP3    H262343   2.204   1.701   1.475 -0.0633  0.4465  0.5813
13618TIP3   OH262344   1.312   0.566   1.621  0.6424  0.0910  0.4420
13618TIP3    H162345   1.272   0.650   1.599 -0.2785 -0.4110  0.1821
13618TIP3    H262346   1.400   0.589   1.651  0.7361  1.0648 -0.5487
13619TIP3   OH262347   0.824   6.564   1.514  0.1591 -0.0714 -0.2068
13619TIP3    H162348   0.903   6.529   1.556  0.5353  0.6044 -0.3457
13619TIP3    H262349   0.847   6.568   1.421 -0.3745 -0.7593 -0.3734
13620TIP3   OH262350   3.940   0.128   3.303 -0.5349 -0.4908  0.5978
13620TIP3    H162351   3.873   0.085   3.250  0.3351 -2.7688  1.3118
13620TIP3    H262352   4.023   0.102   3.263 -0.0142  2.7736 -0.6336
13621TIP3   OH262353   1.346   2.286   1.877 -0.2170  0.4200 -0.1356
13621TIP3    H162354   1.338   2.282   1.973  0.6728  0.1777 -0.0632
13621TIP3    H262355   1.294   2.211   1.846  0.0391  0.0985  0.1939
13622TIP3   OH262356   1.492   2.384   5.730 -0.1615 -0.0411 -0.2940
13622TIP3    H162357   1.414   2.349   5.772  0.4187 -1.5427 -0.4180
13622TIP3    H262358   1.537   2.433   5.799 -1.0515  0.5705 -0.1418
13623TIP3   OH262359   2.215   1.091  12.893 -0.5414  0.0631 -0.3126
13623TIP3    H162360   2.262   1.035  12.831 -1.3388  1.0395 -1.8302
13623TIP3    H262361   2.258   1.176  12.886 -1.4807  0.5270 -0.5015
13624TIP3   OH262362   4.534   2.887  16.756  1.0114 -0.8707 -0.3342
13624TIP3    H162363   4.494   2.844  16.681  1.7577 -1.1780 -0.5627
13624TIP3    H262364   4.462   2.933  16.799  0.4686 -1.2050 -0.8827
13625TIP3   OH262365   4.406   0.628   3.255 -0.0852 -0.0677 -0.4998
13625TIP3    H162366   4.347   0.678   3.311  1.0246 -0.1431  0.7553
13625TIP3    H262367   4.474   0.691   3.229 -0.5782 -0.0339 -1.7781
13626TIP3   OH262368   2.519   4.177   3.220  0.7371  0.6759 -0.5941
13626TIP3    H162369   2.588   4.137   3.167 -1.0651 -2.9629 -0.3567
13626TIP3    H262370   2.456   4.211   3.156  0.8872  0.5674 -0.7992
13627TIP3   OH262371   1.760   3.722  17.097  1.0146  0.7754  0.2711
13627TIP3    H162372   1.813   3.643  17.088 -1.4339 -0.8008 -0.6868
13627TIP3    H262373   1.755   3.737  17.191  1.0107 -0.5710  0.4978
13628TIP3   OH262374   4.627   4.344  17.065  0.1155 -0.8700 -0.2897
13628TIP3    H162375   4.638   4.425  17.016  0.3704 -0.3635  0.5954
13628TIP3    H262376   4.603   4.373  17.153 -1.9541 -1.7880 -0.5119
13629TIP3   OH262377   3.451   6.133  14.429  0.3832  0.2750 -0.2257
13629TIP3    H162378   3.420   6.179  14.508  1.9275 -0.6286  0.9499
13629TIP3    H262379   3.436   6.041  14.448  0.2017  0.0905 -1.2669
13630TIP3   OH262380   2.460   3.357   3.797  0.4995 -0.0655  0.4406
13630TIP3    H162381   2.484   3.425   3.734  1.4944 -0.1356  0.7357
13630TIP3    H262382   2.445   3.405   3.879  0.5534 -0.1253  0.4854
13631TIP3   OH262383   4.939   4.791   4.199  0.3199 -0.3539 -0.1475
13631TIP3    H162384   5.034   4.796   4.210  0.1328 -2.8156  3.2473
13631TIP3    H262385   4.925   4.712   4.148  0.0687  0.3317 -1.1718
13632TIP3   OH262386   4.548   1.302  12.889  0.2095  0.1169 -0.2410
13632TIP3    H162387   4.616   1.358  12.852  0.0360 -0.2951 -1.1997
13632TIP3    H262388   4.592   1.220  12.909 -0.0866 -0.3367 -1.3482
13633TIP3   OH262389   2.986   6.336   0.920 -0.2202 -0.2029  0.3161
13633TIP3    H162390   2.952   6.346   0.831  0.0870  0.5886  0.2832
13633TIP3    H262391   2.983   6.424   0.957 -0.7152 -0.5926  1.2342
13634TIP3   OH262392   2.910   3.081  14.207 -0.0792 -0.6263 -0.3957
13634TIP3    H162393   2.990   3.124  14.238 -0.4752  0.2839 -0.6045
13634TIP3    H262394   2.890   3.017  14.275  0.7566 -0.7699 -0.2782
13635TIP3   OH262395   0.978   1.451  12.447 -0.1451 -0.3779  0.2064
13635TIP3    H162396   0.891   1.455  12.406  0.6289 -0.2307 -1.4902
13635TIP3    H262397   0.980   1.367  12.492 -1.7428  0.3130  1.5964
13636TIP3   OH262398   6.472   5.305   0.816  0.8802 -0.1877  0.3657
13636TIP3    H162399   6.475   5.297   0.912  0.8917  1.6765  0.5470
13636TIP3    H262400   6.411   5.236   0.788 -0.0751  0.0318  1.8265
13637TIP3   OH262401   5.568   1.914   3.742  0.2247 -0.2286  0.1003
13637TIP3    H162402   5.591   1.841   3.685  0.7887 -1.1088  1.4004
13637TIP3    H262403   5.631   1.908   3.815 -0.0623  1.2299  0.4972
13638TIP3   OH262404   5.187   6.042  14.043  0.2452 -0.0799 -0.8641
13638TIP3    H162405   5.217   5.960  14.006  0.0136 -0.9529  0.8397
13638TIP3    H262406   5.092   6.042  14.027 -0.0999 -1.1777  1.0461
13639TIP3   OH262407   4.746   5.047  13.614  0.0804  0.4466  0.2572
13639TIP3    H162408   4.768   4.997  13.536  1.1926 -0.4733  1.1608
13639TIP3    H262409   4.735   5.137  13.582  0.5468  0.0816 -0.9457
13640TIP3   OH262410   5.639   6.795   4.874 -0.3234  0.1391  0.0089
13640TIP3    H162411   5.552   6.788   4.835  0.0995  0.8721 -1.0788
13640TIP3    H262412   5.698   6.753   4.812 -0.0766 -1.8082  1.4874
13641TIP3   OH262413   4.341   2.037  17.050  0.1530  0.3254  0.1836
13641TIP3    H162414   4.292   2.050  16.969 -0.5999 -1.1264  0.3929
13641TIP3    H262415   4.352   1.942  17.057  0.0775  0.4254  1.8483
13642TIP3   OH262416   2.467   5.305  11.882 -0.4717  0.3608  0.7142
13642TIP3    H162417   2.421   5.386  11.863  0.8302  1.0266  0.2942
13642TIP3    H262418   2.412   5.236  11.847 -1.6148  1.0650  1.1109
13643TIP3   OH262419   0.477   5.147   1.025  0.3791 -0.4550  0.0532
13643TIP3    H162420   0.405   5.146   0.962  0.3909  0.0228  0.0234
13643TIP3    H262421   0.442   5.104   1.103  0.6530 -1.8443 -0.5801
13644TIP3   OH262422   1.684   4.029   2.214 -0.3560 -0.4413 -0.1812
13644TIP3    H162423   1.688   4.101   2.151 -1.8869  2.4595  2.8911
13644TIP3    H262424   1.594   3.997   2.208 -0.2913 -0.6561 -0.0087
13645TIP3   OH262425   3.160   2.648  11.643  0.3629  0.3028  0.4790
13645TIP3    H162426   3.174   2.734  11.681 -0.2465  0.8952 -0.6062
13645TIP3    H262427   3.117   2.666  11.559  1.7512 -0.9480 -0.5251
13646TIP3   OH262428   0.622   4.651   0.997 -0.5191  0.1001 -0.1306
13646TIP3    H162429   0.699   4.627   1.049 -0.5129  1.8575  0.7180
13646TIP3    H262430   0.549   4.612   1.045 -0.2509 -0.9543 -0.5448
13647TIP3   OH262431   1.492   2.472  16.011  0.2025  0.0292 -0.0824
13647TIP3    H162432   1.529   2.544  15.960  0.6694  0.6042  1.0482
13647TIP3    H262433   1.543   2.396  15.985  0.4906  0.3355 -0.4188
13648TIP3   OH262434   1.953   5.292   2.612  0.2530  0.9201  0.3566
13648TIP3    H162435   2.030   5.334   2.575 -0.5053  1.2451 -0.8814
13648TIP3    H262436   1.892   5.364   2.629 -0.5770  0.4623 -0.6234
13649TIP3   OH262437   6.577   1.541   5.340  0.1785 -0.3381 -0.3326
13649TIP3    H162438   6.663   1.545   5.298  2.0085 -1.2353  3.1199
13649TIP3    H262439   6.570   1.451   5.370 -0.5365  0.5375  2.2399
13650TIP3   OH262440   4.507   6.396  17.044  0.2589  0.8539 -0.0516
13650TIP3    H162441   4.568   6.412  17.117  0.2729  0.8341 -0.0599
13650TIP3    H262442   4.491   6.302  17.047 -1.3560  1.1466  1.2121
13651TIP3   OH262443   0.197   5.332   0.939  0.3863  0.2926  0.2027
13651TIP3    H162444   0.221   5.386   0.864  0.7861  0.2871  0.3265
13651TIP3    H262445   0.196   5.242   0.906  0.3250  0.3134  0.1476
13652TIP3   OH262446   3.704   3.342  16.734 -0.5178 -0.1719 -0.4684
13652TIP3    H162447   3.768   3.401  16.695 -0.7830  0.7097  0.4036
13652TIP3    H262448   3.636   3.333  16.667 -0.6880  0.8724 -0.4518
13653TIP3   OH262449   0.633   3.279  14.090 -0.4144  0.1494 -0.1427
13653TIP3    H162450   0.548   3.236  14.100  0.1706 -0.8390  0.7364
13653TIP3    H262451   0.688   3.212  14.048  0.5002  0.0516  1.2045
13654TIP3   OH262452   5.564   5.808   5.425 -0.4813 -0.6005  0.0940
13654TIP3    H162453   5.482   5.819   5.377 -0.9760 -0.2836  0.9964
13654TIP3    H262454   5.560   5.872   5.495  1.4043  0.7525 -0.9884
13655TIP3   OH262455   2.360   2.254   4.110  0.6156 -0.1439  0.3931
13655TIP3    H162456   2.291   2.299   4.061  0.3262  0.6730  1.5209
13655TIP3    H262457   2.441   2.276   4.064  0.1737 -0.8432 -0.7510
13656TIP3   OH262458   3.905   2.472  14.517 -0.1839  0.4866 -0.7571
13656TIP3    H162459   3.981   2.491  14.571  0.5839  1.4873 -2.1464
13656TIP3    H262460   3.936   2.406  14.454 -1.4950 -1.8585  0.9585
13657TIP3   OH262461   1.012   4.967   5.571  0.7245  0.1083  0.0310
13657TIP3    H162462   0.933   4.969   5.517  0.7654  0.8813 -0.0031
13657TIP3    H262463   0.980   4.968   5.661  0.6480 -1.4601  0.0350
13658TIP3   OH262464   4.870   3.847   1.945  0.0139 -0.1706 -0.2307
13658TIP3    H162465   4.779   3.871   1.927  0.0724 -0.1642 -0.5147
13658TIP3    H262466   4.912   3.845   1.859  0.2893 -0.1478 -0.0967
13659TIP3   OH262467   4.554   4.107   0.141 -0.2011  0.4672  0.1868
13659TIP3    H162468   4.546   4.094   0.236  0.9768 -0.3769  0.1776
13659TIP3    H262469   4.640   4.146   0.130  0.5719 -1.4521 -0.7174
13660TIP3   OH262470   1.626   0.126  15.521 -0.3513 -0.4479 -0.4703
13660TIP3    H162471   1.622   0.032  15.505  1.8069 -0.6958  0.2684
13660TIP3    H262472   1.683   0.160  15.453  3.3642 -0.5324  2.4256
13661TIP3   OH262473   6.137   0.167  16.977  0.0757 -0.1176 -0.4225
13661TIP3    H162474   6.113   0.244  16.926  1.2861 -0.3911 -1.4243
13661TIP3    H262475   6.218   0.136  16.937  2.0545  0.6790  2.7156
13662TIP3   OH262476   1.742   4.077  15.932 -0.2943  0.3388 -0.1574
13662TIP3    H162477   1.749   4.142  15.862  0.5215 -1.4389 -1.7917
13662TIP3    H262478   1.661   4.029  15.911  0.1500 -0.4361 -0.1173
13663TIP3   OH262479   3.611   3.951   3.722 -0.3428 -0.4741 -0.1575
13663TIP3    H162480   3.641   3.877   3.668  1.2832 -0.2955  0.4607
13663TIP3    H262481   3.658   3.940   3.804 -1.1041  0.5224  0.4127
13664TIP3   OH262482   3.075   5.511  15.434  0.4844 -0.4715 -0.1583
13664TIP3    H162483   3.159   5.477  15.404  0.9341  0.2476  0.2788
13664TIP3    H262484   3.020   5.510  15.355  0.1060 -3.3132  0.1073
13665TIP3   OH262485   2.404   3.669   4.540  0.3710  0.0321  0.4946
13665TIP3    H162486   2.438   3.754   4.512  0.8416 -0.0848  0.7043
13665TIP3    H262487   2.426   3.664   4.633  0.9309 -0.5974  0.3337
13666TIP3   OH262488   6.647   6.695   1.965 -0.1205  0.2385 -0.4274
13666TIP3    H162489   6.688   6.610   1.947  0.0406  0.6681 -2.1751
13666TIP3    H262490   6.714   6.744   2.013 -0.0136 -0.4173  0.1091
13667TIP3   OH262491   0.519   3.905   1.040 -0.4438 -0.0986 -0.5032
13667TIP3    H162492   0.458   3.916   0.968 -0.7518  0.3057 -0.1833
13667TIP3    H262493   0.508   3.984   1.093  1.0166  0.4221 -0.9390
13668TIP3   OH262494   5.383   3.453   4.688 -0.5281  0.3376 -0.0117
13668TIP3    H162495   5.412   3.362   4.702 -0.3633  0.3914  0.0039
13668TIP3    H262496   5.325   3.471   4.762  0.7060  0.7722  0.8680
13669TIP3   OH262497   5.025   0.822   0.334 -0.0945 -0.8348  0.0800
13669TIP3    H162498   4.998   0.842   0.244 -1.7523  1.3299  1.0144
13669TIP3    H262499   5.079   0.898   0.359 -2.2199  0.1033  1.9494
13670TIP3   OH262500   4.247   3.144  11.556 -0.0069 -0.5292  0.6150
13670TIP3    H162501   4.171   3.097  11.590 -0.1329  0.3368  1.5388
13670TIP3    H262502   4.254   3.115  11.465 -2.3574  0.5241  0.0652
13671TIP3   OH262503   6.127   5.627  11.644 -0.3450  0.3426 -0.1133
13671TIP3    H162504   6.183   5.574  11.588 -0.2918 -2.0511  2.0807
13671TIP3    H262505   6.171   5.627  11.729 -1.6665  1.7725  0.6158
13672TIP3   OH262506   3.213   4.488   0.986 -0.2801  1.0757  0.3149
13672TIP3    H162507   3.121   4.472   0.965 -0.5169  1.1032  1.2854
13672TIP3    H262508   3.254   4.506   0.902 -0.8702 -0.3841 -0.3086
13673TIP3   OH262509   3.277   3.941  11.598 -0.2245  0.4121  0.2223
13673TIP3    H162510   3.182   3.956  11.593 -0.5615 -0.7416  2.1857
13673TIP3    H262511   3.285   3.848  11.620  1.4099  0.2283 -1.0997
13674TIP3   OH262512   1.504   5.253  10.820  0.9618  0.4764  0.3421
13674TIP3    H162513   1.474   5.243  10.730  1.5866  0.6299  0.1208
13674TIP3    H262514   1.493   5.166  10.859  2.7202 -0.1331 -0.4890
13675TIP3   OH262515   3.902   1.250   6.125 -0.3373  0.0263 -0.5486
13675TIP3    H162516   3.864   1.307   6.192 -1.0335  1.1887 -1.9056
13675TIP3    H262517   3.839   1.178   6.117 -1.1164  0.7578 -1.1381
13676TIP3   OH262518   2.986   4.836  11.196  0.0512  0.1328 -0.0541
13676TIP3    H162519   3.068   4.847  11.245  0.4913  0.1561 -0.7908
13676TIP3    H262520   3.013   4.797  11.113 -0.9283 -1.8929  0.5427
13677TIP3   OH262521   6.611   0.250   0.599  0.5893 -0.0332  0.7725
13677TIP3    H162522   6.695   0.202   0.596  0.2572 -0.6658  1.3469
13677TIP3    H262523   6.601   0.274   0.691 -0.4642 -1.0465  0.9271
13678TIP3   OH262524   3.768   3.807   5.276  0.2272  0.1617 -0.1732
13678TIP3    H162525   3.782   3.769   5.189  1.3261 -1.1822  0.5677
13678TIP3    H262526   3.853   3.844   5.300  0.2784 -0.5754  0.8298
13679TIP3   OH262527   2.264   3.500   3.066 -0.1483  0.5278  0.3676
13679TIP3    H162528   2.187   3.483   3.011  0.0673 -1.6778  0.7213
13679TIP3    H262529   2.255   3.440   3.140  2.0218  0.0959  0.3058
13680TIP3   OH262530   3.164   6.345  11.969  0.1685  0.7721  0.5225
13680TIP3    H162531   3.246   6.353  11.921 -0.4933  2.2644 -0.4252
13680TIP3    H262532   3.172   6.409  12.040  0.0297  0.5594  0.7291
13681TIP3   OH262533   6.368   0.313  13.724  0.3040 -0.0979  0.0698
13681TIP3    H162534   6.388   0.394  13.677 -0.3665  1.0176  1.6646
13681TIP3    H262535   6.278   0.291  13.699  0.8480 -0.9308 -1.1758
13682TIP3   OH262536   4.271   2.153   4.014  0.5499  0.0445 -0.2359
13682TIP3    H162537   4.204   2.102   4.059  0.7392  1.7950  2.1206
13682TIP3    H262538   4.340   2.165   4.078  1.2460  1.8248 -1.2713
13683TIP3   OH262539   1.458   6.555  14.369 -0.0420 -0.6653  0.6717
13683TIP3    H162540   1.448   6.462  14.349  0.2544 -0.7248  0.8044
13683TIP3    H262541   1.413   6.567  14.453  1.1851 -0.9800  1.3764
13684TIP3   OH262542   3.524   3.956   0.746  0.1599 -0.4157 -0.3282
13684TIP3    H162543   3.440   3.991   0.716 -1.2591 -2.2414  1.3431
13684TIP3    H262544   3.572   3.936   0.666 -0.8357  1.0035 -1.2980
13685TIP3   OH262545   3.722   3.289  16.070 -0.3319 -0.1773 -0.0611
13685TIP3    H162546   3.649   3.294  16.132  0.0981 -0.6058  0.4953
13685TIP3    H262547   3.779   3.220  16.106 -0.0132 -0.3451 -0.8634
13686TIP3   OH262548   0.063   4.727  12.867  0.2998  0.2052  0.3564
13686TIP3    H162549   0.028   4.816  12.857 -0.7288  0.0438  2.3553
13686TIP3    H262550   0.039   4.683  12.786 -0.1325  1.4303 -0.2007
13687TIP3   OH262551   4.928   6.729   2.289 -0.0410 -0.6212  0.3834
13687TIP3    H162552   4.962   6.746   2.377  0.5194  2.7362 -0.3885
13687TIP3    H262553   4.834   6.719   2.301  0.1855 -1.4427  1.5244
13688TIP3   OH262554   2.517   2.969   2.831 -0.7143 -0.2239  0.2568
13688TIP3    H162555   2.603   2.928   2.831 -0.9990 -0.9024 -1.7384
13688TIP3    H262556   2.456   2.896   2.823 -1.3465  0.3994 -0.7534
13689TIP3   OH262557   3.196   4.281   4.631 -0.4410  0.0434  0.1769
13689TIP3    H162558   3.289   4.293   4.652 -0.5455  0.4584  0.4093
13689TIP3    H262559   3.181   4.187   4.641 -0.1073  0.0133  0.4058
13690TIP3   OH262560   1.747   0.303  15.329 -0.1142 -0.0535  0.4721
13690TIP3    H162561   1.736   0.387  15.283 -1.4487 -0.7704 -0.5691
13690TIP3    H262562   1.791   0.247  15.266 -2.1572 -1.1153 -0.0596
13691TIP3   OH262563   2.877   1.274   5.663  0.2995 -0.2104  0.0596
13691TIP3    H162564   2.944   1.270   5.731  0.5198  0.9958 -0.0772
13691TIP3    H262565   2.795   1.255   5.708  0.6312 -0.8905  0.3794
13692TIP3   OH262566   6.485   5.641   3.005 -0.6956  0.3252 -0.2549
13692TIP3    H162567   6.479   5.725   3.050  2.1904  0.8879 -0.8304
13692TIP3    H262568   6.545   5.589   3.057 -1.9895 -1.2009 -0.2351
13693TIP3   OH262569   1.187   0.313  15.403  0.6462 -0.2588 -0.2304
13693TIP3    H162570   1.269   0.352  15.373  0.9425 -0.2448  0.5652
13693TIP3    H262571   1.119   0.366  15.362  1.0391  0.1938 -0.3096
13694TIP3   OH262572   3.697   4.006  14.560  0.7975  0.5117 -0.2476
13694TIP3    H162573   3.721   4.061  14.485 -1.2078  0.3260 -1.0407
13694TIP3    H262574   3.752   3.928  14.550  1.3921  0.9913 -0.8592
13695TIP3   OH262575   3.170   6.371   1.171  0.0036 -0.4817 -0.1777
13695TIP3    H162576   3.132   6.444   1.121 -1.2092 -0.8279  0.2112
13695TIP3    H262577   3.118   6.295   1.144  0.5196 -0.9920  0.2758
13696TIP3   OH262578   5.863   0.992  16.466 -0.0920 -0.6362  0.1816
13696TIP3    H162579   5.780   0.944  16.468 -0.2046 -0.4980 -1.0335
13696TIP3    H262580   5.914   0.954  16.538 -0.6540 -1.6980  0.0319
13697TIP3   OH262581   4.495   4.440   1.423  0.1841  0.0538 -0.2026
13697TIP3    H162582   4.409   4.399   1.420  1.2876 -2.8015  3.2881
13697TIP3    H262583   4.486   4.510   1.488  0.5750 -0.4792  0.4298
13698TIP3   OH262584   0.621   2.333   5.444 -0.0006  0.1010 -0.3248
13698TIP3    H162585   0.690   2.363   5.504  0.3083 -0.9544 -0.1443
13698TIP3    H262586   0.584   2.414   5.408  2.2823  0.6758 -1.4940
13699TIP3   OH262587   2.914   4.955  13.189  0.4091  0.3840 -0.1130
13699TIP3    H162588   2.931   4.934  13.281 -0.8012  1.6587  0.4302
13699TIP3    H262589   2.999   4.977  13.153  1.1001 -1.4692  0.3389
13700TIP3   OH262590   5.314   2.717  10.387  0.2312 -0.5563 -0.2792
13700TIP3    H162591   5.245   2.783  10.394  0.5393 -0.2169 -0.4442
13700TIP3    H262592   5.268   2.633  10.393 -0.4204 -0.3719 -2.3442
13701TIP3   OH262593   6.403   4.283  14.746 -0.0806 -0.7606  0.4303
13701TIP3    H162594   6.345   4.286  14.670  0.7501 -1.2451 -0.2315
13701TIP3    H262595   6.374   4.206  14.795 -1.4598  0.2913  1.2987
13702TIP3   OH262596   6.011   2.580  13.885  0.3464 -0.3312 -0.3768
13702TIP3    H162597   6.072   2.515  13.921  1.2744 -0.2559 -1.7828
13702TIP3    H262598   5.974   2.623  13.962  0.7309 -1.5930  0.5377
13703TIP3   OH262599   5.522   1.091  16.955  0.1358 -0.0804 -0.1182
13703TIP3    H162600   5.534   1.001  16.926 -1.8450 -0.5349  0.4002
13703TIP3    H262601   5.517   1.142  16.874  2.8899 -0.1712 -0.3904
13704TIP3   OH262602   2.797   1.045   0.154 -0.4407 -0.4553 -0.1869
13704TIP3    H162603   2.769   1.136   0.153  1.0706  0.0128 -2.0058
13704TIP3    H262604   2.759   1.007   0.075  0.4038 -0.9409 -0.3665
13705TIP3   OH262605   6.533   4.982   3.888  0.1600 -0.1663  0.4023
13705TIP3    H162606   6.573   5.069   3.894  0.0163 -0.1411  1.0293
13705TIP3    H262607   6.594   4.931   3.833  0.6674  0.0930  0.7200
13706TIP3   OH262608   5.211   2.149  15.985 -0.1807 -0.3932 -0.2146
13706TIP3    H162609   5.240   2.200  16.061  0.5455 -0.5868 -0.3537
13706TIP3    H262610   5.116   2.149  15.991 -0.1208 -0.7263  0.9084
13707TIP3   OH262611   0.476   1.954   1.221 -0.0952  0.4650 -0.0019
13707TIP3    H162612   0.433   1.926   1.301 -0.7124  0.6553 -0.2618
13707TIP3    H262613   0.566   1.974   1.247 -0.3787  0.8385  0.7050
13708TIP3   OH262614   5.641   4.250  11.946 -0.4044 -0.2564  0.5112
13708TIP3    H162615   5.624   4.326  12.002  0.5906 -0.2742  0.8542
13708TIP3    H262616   5.566   4.246  11.887 -1.9648 -0.8014  2.4705
13709TIP3   OH262617   0.271   5.313   4.040  0.1161 -0.4070 -0.1418
13709TIP3    H162618   0.272   5.397   3.996 -2.8605 -0.5104 -0.4538
13709TIP3    H262619   0.363   5.286   4.042  0.8717  1.9579 -1.6825
13710TIP3   OH262620   4.728   3.488  15.980 -0.3755  0.2064  0.0625
13710TIP3    H162621   4.671   3.448  16.045 -0.0235 -1.4006 -0.5859
13710TIP3    H262622   4.719   3.582  15.994 -1.2309 -0.0964  1.6191
13711TIP3   OH262623   6.039   6.739   2.188  0.7897  0.3589 -0.4553
13711TIP3    H162624   6.095   6.749   2.110 -1.1079  0.5076 -1.8230
13711TIP3    H262625   5.982   6.815   2.186 -0.5260 -0.6005  0.0356
13712TIP3   OH262626   4.520   1.707   2.772 -0.3478 -0.3004  0.0065
13712TIP3    H162627   4.578   1.632   2.785 -0.4418 -0.0206  2.2406
13712TIP3    H262628   4.445   1.690   2.828 -0.8305  0.9933 -0.2122
13713TIP3   OH262629   4.177   0.106   6.001  0.4732 -0.0669 -0.2638
13713TIP3    H162630   4.156   0.068   5.916  0.8072 -1.6388  0.3514
13713TIP3    H262631   4.203   0.032   6.055  0.0365  0.8893  1.2875
13714TIP3   OH262632   3.328   5.310  15.062 -0.2263 -0.4088 -0.1158
13714TIP3    H162633   3.309   5.381  15.000  1.5854 -0.3720 -0.6549
13714TIP3    H262634   3.305   5.230  15.014 -1.6275 -0.2266  0.2443
13715TIP3   OH262635   6.563   2.292   5.710 -0.4308  0.2608  0.0044
13715TIP3    H162636   6.500   2.223   5.729  2.1100 -2.0651  0.4136
13715TIP3    H262637   6.583   2.331   5.796  0.0331 -0.2659  0.1429
13716TIP3   OH262638   5.836   2.354  16.060  0.5289  0.1399 -0.5750
13716TIP3    H162639   5.804   2.346  16.150  0.7049  1.8319 -0.3337
13716TIP3    H262640   5.932   2.357  16.069  0.5554  0.0566 -0.8309
13717TIP3   OH262641   2.339   5.229  14.979  0.4148  0.2722 -0.3011
13717TIP3    H162642   2.330   5.141  15.015  1.6329 -0.2212 -1.1737
13717TIP3    H262643   2.320   5.287  15.053  2.2878 -0.7325  1.0113
13718TIP3   OH262644   3.867   6.594   3.045 -0.6802 -0.3886  0.2861
13718TIP3    H162645   3.953   6.563   3.016 -1.8539 -2.6729 -0.8815
13718TIP3    H262646   3.838   6.653   2.976 -0.7267 -0.8749 -0.1144
13719TIP3   OH262647   3.233   1.027  15.464  0.1950  0.1363  0.2071
13719TIP3    H162648   3.188   0.960  15.515 -0.5080  1.7271  1.7145
13719TIP3    H262649   3.184   1.032  15.382 -1.6912  1.0007  1.3545
13720TIP3   OH262650   4.569   5.527   4.278 -0.0325  0.4274  0.3610
13720TIP3    H162651   4.487   5.477   4.274  0.1306  0.1567  0.3965
13720TIP3    H262652   4.638   5.460   4.280  0.1698  0.6479  0.8195
13721TIP3   OH262653   3.950   1.847  12.066  0.2504 -0.2096 -0.1961
13721TIP3    H162654   3.933   1.802  11.983  0.1545 -0.2035 -0.1788
13721TIP3    H262655   3.952   1.777  12.131 -0.9600 -0.0850 -0.0032
13722TIP3   OH262656   5.213   6.610   0.972  0.6164 -0.0862 -0.3484
13722TIP3    H162657   5.213   6.562   0.889 -1.4468 -1.3333  0.3313
13722TIP3    H262658   5.263   6.554   1.032 -1.1278 -1.0656  0.2348
13723TIP3   OH262659   5.383   5.660  13.213 -0.4280 -0.5143 -0.0960
13723TIP3    H162660   5.378   5.734  13.273  0.6304 -0.9542  0.5511
13723TIP3    H262661   5.412   5.697  13.130  2.1937 -0.4745  0.7834
13724TIP3   OH262662   1.134   4.634  15.554  0.0310  0.4693 -0.1307
13724TIP3    H162663   1.201   4.638  15.486 -1.5245 -1.6907 -1.8834
13724TIP3    H262664   1.059   4.680  15.516 -0.7548 -0.4972  0.2157
13725TIP3   OH262665   2.448   5.277   1.698  0.1960 -0.2302 -0.2475
13725TIP3    H162666   2.383   5.320   1.643  1.0084  1.3862  0.0294
13725TIP3    H262667   2.520   5.258   1.638  0.9211  1.1826  0.1684
13726TIP3   OH262668   5.406   4.029  14.843 -0.1424  0.5939 -0.7968
13726TIP3    H162669   5.323   4.077  14.848 -0.6447 -0.2874 -0.6304
13726TIP3    H262670   5.398   3.960  14.909  1.3549  1.4564  0.3052
13727TIP3   OH262671   2.437   5.787   0.182 -0.3259 -0.3836 -0.5648
13727TIP3    H162672   2.433   5.694   0.201 -2.5408 -0.5014 -1.4392
13727TIP3    H262673   2.406   5.795   0.092  2.5422  0.9320 -1.5046
13728TIP3   OH262674   5.631   4.625  12.738 -0.4929  0.0603  0.0274
13728TIP3    H162675   5.651   4.584  12.822  0.0329  1.6287  0.6906
13728TIP3    H262676   5.714   4.663  12.710 -0.4158 -1.3483 -1.7321
13729TIP3   OH262677   4.085   4.065   3.553 -0.0782 -0.4525 -0.4365
13729TIP3    H162678   3.993   4.061   3.527  0.8783  0.8543 -4.3531
13729TIP3    H262679   4.133   4.032   3.477  2.7592 -0.0885  1.1215
13730TIP3   OH262680   6.463   1.168   1.791  0.1958  0.2379  0.0820
13730TIP3    H162681   6.482   1.100   1.725  2.9438  1.0574 -0.0571
13730TIP3    H262682   6.483   1.250   1.747 -1.7050  1.0685  0.7313
13731TIP3   OH262683   2.822   4.375  15.382  0.5491  0.0494 -0.0462
13731TIP3    H162684   2.865   4.295  15.353 -1.0464 -0.4782 -1.0818
13731TIP3    H262685   2.782   4.352  15.466  2.1215  0.4987  0.8442
13732TIP3   OH262686   4.503   1.233  17.091 -0.6306  0.4282 -0.9391
13732TIP3    H162687   4.495   1.152  17.039 -0.9035  0.6217 -1.2079
13732TIP3    H262688   4.420   1.239  17.138  0.5929 -1.0668  1.4754
13733TIP3   OH262689   0.620   5.618  16.505 -0.1980 -0.2222 -0.3635
13733TIP3    H162690   0.705   5.640  16.543  0.1799  0.7456 -1.7460
13733TIP3    H262691   0.572   5.577  16.577  0.4782  1.6342  1.2099
13734TIP3   OH262692   3.593   2.780  11.181 -0.5684  0.1935 -0.0178
13734TIP3    H162693   3.591   2.874  11.166  0.2202  0.0637 -1.0115
13734TIP3    H262694   3.646   2.745  11.109 -0.4928 -0.9618  0.5807
13735TIP3   OH262695   6.445   2.207  11.066  0.7158  0.4015 -0.3193
13735TIP3    H162696   6.519   2.183  11.010  0.3623  1.1021 -1.1185
13735TIP3    H262697   6.368   2.195  11.010  0.3059  0.5305  0.2133
13736TIP3   OH262698   6.182   4.030  11.477  0.5314 -0.1356 -0.3268
13736TIP3    H162699   6.209   4.115  11.443 -0.0243 -0.1198 -0.7248
13736TIP3    H262700   6.191   4.039  11.572  0.5429  0.3415 -0.3720
13737TIP3   OH262701   5.334   0.754   1.269 -0.2016  0.2798  0.2102
13737TIP3    H162702   5.376   0.796   1.344  0.0620  1.2931 -0.4945
13737TIP3    H262703   5.366   0.664   1.271  2.4097  1.1573 -0.5968
13738TIP3   OH262704   4.376   5.500   6.465  0.6047  0.8481  0.0220
13738TIP3    H162705   4.410   5.538   6.545  0.6850  1.9320 -0.5244
13738TIP3    H262706   4.283   5.484   6.483  1.1939 -1.3748  1.2357
13739TIP3   OH262707   5.517   6.718   5.997  0.0995  0.4684 -0.5685
13739TIP3    H162708   5.574   6.657   5.950  0.9287  1.6432 -1.1089
13739TIP3    H262709   5.544   6.710   6.089  0.1218 -0.0658 -0.6194
13740TIP3   OH262710   5.724   4.413  14.869  0.3018 -0.0681  0.0023
13740TIP3    H162711   5.811   4.391  14.835  0.8126  2.5838 -0.5483
13740TIP3    H262712   5.734   4.412  14.964  1.0139  0.4638 -0.0612
13741TIP3   OH262713   5.016   4.591  14.497  0.4880 -0.3741  0.1532
13741TIP3    H162714   5.049   4.659  14.438 -1.9287  1.1137  0.4383
13741TIP3    H262715   5.047   4.509  14.460  2.1407  0.7824 -1.0837
13742TIP3   OH262716   0.323   6.106  11.353  0.3608 -0.0144  0.0113
13742TIP3    H162717   0.312   6.027  11.406  0.5606 -0.6820 -0.9249
13742TIP3    H262718   0.367   6.075  11.273  0.7213  1.0933 -0.2276
13743TIP3   OH262719   3.410   6.236  12.302  0.1219  0.2400 -0.1836
13743TIP3    H162720   3.472   6.220  12.373  0.1847 -1.1936 -0.5525
13743TIP3    H262721   3.424   6.328  12.279  1.7184  0.0868  0.1173
13744TIP3   OH262722   6.702   5.492   1.735 -0.4158  0.2160  0.1674
13744TIP3    H162723   6.628   5.435   1.710 -0.4029 -0.2916  1.2406
13744TIP3    H262724   6.665   5.580   1.736 -0.4893  0.2096 -1.3265
13745TIP3   OH262725   2.822   4.728  11.381  0.5365  0.2970 -0.3557
13745TIP3    H162726   2.839   4.634  11.373  0.8002  0.3820 -0.8173
13745TIP3    H262727   2.885   4.769  11.322 -0.9310  0.6480 -1.7216
13746TIP3   OH262728   0.777   3.381   6.664 -0.4682  0.5533  0.4820
13746TIP3    H162729   0.684   3.402   6.669 -1.0751 -1.2891 -2.0307
13746TIP3    H262730   0.813   3.446   6.604 -0.2075  0.9261  1.0293
13747TIP3   OH262731   3.843   0.250  11.502  0.4799  0.5125 -0.2719
13747TIP3    H162732   3.818   0.159  11.520  0.3509  0.5374 -0.3222
13747TIP3    H262733   3.822   0.263  11.410 -0.2414  0.8356 -0.0637
13748TIP3   OH262734   2.498   2.218   2.801 -0.1877 -0.9448  0.0692
13748TIP3    H162735   2.543   2.154   2.856  2.0750  0.5998  0.0625
13748TIP3    H262736   2.431   2.255   2.858  1.5616  0.0123  1.5573
13749TIP3   OH262737   5.148   2.730   4.694 -0.0194 -0.0360  0.4157
13749TIP3    H162738   5.168   2.746   4.786 -0.5820 -0.2650  0.5814
13749TIP3    H262739   5.132   2.817   4.657  2.5203  0.2793 -0.0313
13750TIP3   OH262740   6.002   0.175  13.896 -0.2024 -0.3694 -0.2789
13750TIP3    H162741   6.081   0.206  13.940 -0.0223 -0.0404 -0.8339
13750TIP3    H262742   5.973   0.250  13.844  0.0792 -1.0457 -1.4228
13751TIP3   OH262743   1.056   2.380  16.963 -0.5197  0.2944 -0.1545
13751TIP3    H162744   0.998   2.326  16.910 -1.9789  2.0681 -0.4051
13751TIP3    H262745   1.061   2.463  16.917  0.3897  0.9338  1.0599
13752TIP3   OH262746   4.958   2.310  13.458 -0.2092 -0.0118 -0.0377
13752TIP3    H162747   4.946   2.384  13.517 -1.7536 -0.8139  0.6673
13752TIP3    H262748   5.043   2.273  13.483 -0.0198  0.7408  0.4540
13753TIP3   OH262749   6.017   5.546   1.073  0.0434 -0.4373  0.1866
13753TIP3    H162750   6.036   5.496   0.994 -1.2641 -1.0307  0.2378
13753TIP3    H262751   6.074   5.508   1.140  0.9519 -0.1171 -0.3941
13754TIP3   OH262752   2.665   1.293   4.660  0.0113  0.1139 -0.0162
13754TIP3    H162753   2.666   1.386   4.685 -0.3320 -0.1244  0.8917
13754TIP3    H262754   2.584   1.283   4.610 -1.2290 -0.2493  2.0346
13755TIP3   OH262755   1.450   6.278   2.869  0.2940 -0.1594 -0.4877
13755TIP3    H162756   1.358   6.269   2.896 -1.0273  1.9185 -4.1089
13755TIP3    H262757   1.474   6.190   2.841 -1.5209 -0.1663 -2.1789
13756TIP3   OH262758   2.000   3.289   5.822  0.0781  0.0819 -0.4242
13756TIP3    H162759   1.944   3.214   5.804  0.6328 -1.0398  2.3201
13756TIP3    H262760   2.006   3.293   5.917  3.5230  0.9849 -0.5961
13757TIP3   OH262761   0.939   6.482   5.759 -0.1165 -0.3531  0.1746
13757TIP3    H162762   0.855   6.448   5.730 -0.3970  0.7447 -0.3002
13757TIP3    H262763   0.974   6.413   5.815 -0.9630 -1.1600 -0.2714
13758TIP3   OH262764   3.221   6.546   6.355  0.0167  0.7170  0.3935
13758TIP3    H162765   3.171   6.490   6.296 -1.1270  1.0632  1.0197
13758TIP3    H262766   3.253   6.488   6.424 -0.4056  0.6718  0.5528
13759TIP3   OH262767   0.750   5.212  13.315 -0.1745  0.2397  0.0277
13759TIP3    H162768   0.710   5.237  13.398  0.5911 -1.0996  0.8113
13759TIP3    H262769   0.777   5.121  13.328  0.1674  0.1015 -1.6073
13760TIP3   OH262770   5.410   5.068  14.778  0.0420  0.1821  0.2939
13760TIP3    H162771   5.492   5.029  14.746 -0.6067  0.0707 -1.2920
13760TIP3    H262772   5.390   5.137  14.714 -2.8854 -2.0632 -1.3406
13761TIP3   OH262773   3.653   6.546  11.854  0.2411  0.6170 -0.4188
13761TIP3    H162774   3.659   6.565  11.760 -1.0673  2.0527 -0.2390
13761TIP3    H262775   3.581   6.484  11.862 -0.0565  0.9783 -0.2986
13762TIP3   OH262776   3.053   4.654  16.529  0.2138  0.3430  0.1578
13762TIP3    H162777   2.986   4.722  16.535 -0.2707 -0.0616 -0.7176
13762TIP3    H262778   3.129   4.698  16.491  0.3271  0.7094  0.8016
13763TIP3   OH262779   2.971   5.780   0.553 -0.3727  0.4950  0.2514
13763TIP3    H162780   3.027   5.756   0.479 -1.4548  2.2958 -1.1900
13763TIP3    H262781   2.904   5.712   0.555  1.7422 -1.6414  1.9468
13764TIP3   OH262782   5.309   6.496  13.024 -0.0657 -0.2944  0.2694
13764TIP3    H162783   5.352   6.431  13.079 -1.6752 -1.1097  0.5870
13764TIP3    H262784   5.276   6.446  12.949 -0.8320  0.2539  0.2387
13765TIP3   OH262785   0.032   1.438   1.478  0.0069 -0.3488 -0.3636
13765TIP3    H162786   0.024   1.515   1.534  0.8635 -1.5683  1.4665
13765TIP3    H262787   0.124   1.439   1.450  0.3406 -1.4050  0.6930
13766TIP3   OH262788   1.847   6.238   2.960  0.3310  0.5725  0.5885
13766TIP3    H162789   1.791   6.229   2.883  2.0263  1.1376 -0.7644
13766TIP3    H262790   1.900   6.158   2.960  0.6643  0.7935  0.8832
13767TIP3   OH262791   5.619   6.445  11.865 -0.3769  0.0724  0.3212
13767TIP3    H162792   5.650   6.456  11.775  0.5595 -0.0907  0.6112
13767TIP3    H262793   5.589   6.354  11.869 -1.3749  0.3789 -0.1028
13768TIP3   OH262794   2.249   3.673  16.961 -0.2783  0.6077  0.6964
13768TIP3    H162795   2.302   3.624  16.899  1.5174  0.8246  2.0352
13768TIP3    H262796   2.224   3.753  16.914  0.1413  0.2687 -0.1039
13769TIP3   OH262797   5.041   5.259  13.682  0.7742  0.0707 -0.6667
13769TIP3    H162798   5.048   5.259  13.587 -2.0665 -2.1380 -0.9585
13769TIP3    H262799   4.962   5.311  13.701 -0.2719 -1.7910  0.2515
13770TIP3   OH262800   0.009   2.812  12.041  0.1585 -0.3992 -0.5452
13770TIP3    H162801   0.100   2.833  12.018  1.1299 -1.4471  2.1172
13770TIP3    H262802   0.015   2.728  12.086 -2.2562 -0.8186 -0.9444
13771TIP3   OH262803   4.373   3.904  10.385  0.2642  0.6651  0.1205
13771TIP3    H162804   4.335   3.897  10.472 -1.7314 -1.2691 -0.8801
13771TIP3    H262805   4.468   3.906  10.400 -0.0579  0.0149  2.3070
13772TIP3   OH262806   5.099   3.248   2.964 -0.6313  0.7726  0.1461
13772TIP3    H162807   5.056   3.211   3.041 -0.9023  1.2810  0.2361
13772TIP3    H262808   5.107   3.341   2.982 -0.0910  0.7899 -0.1564
13773TIP3   OH262809   0.676   0.164   4.065 -0.9478 -0.4422  0.1688
13773TIP3    H162810   0.636   0.146   3.980 -2.2352 -2.8858  1.2307
13773TIP3    H262811   0.663   0.083   4.115  1.4653  0.2667  2.0571
13774TIP3   OH262812   6.352   4.740   0.586 -0.4638 -0.0376 -0.4560
13774TIP3    H162813   6.421   4.710   0.528  1.0328  1.8547  0.2755
13774TIP3    H262814   6.297   4.797   0.531  0.3721  0.9425 -0.2961
13775TIP3   OH262815   0.312   5.661   5.282 -0.4990 -0.7983  0.1671
13775TIP3    H162816   0.278   5.630   5.366 -1.2563  0.0447  0.1813
13775TIP3    H262817   0.233   5.681   5.230 -0.0336  0.1426 -0.1921
13776TIP3   OH262818   6.805   0.919   6.340 -0.3098 -0.0580 -0.2644
13776TIP3    H162819   6.715   0.893   6.359 -0.8042  2.9361  1.9042
13776TIP3    H262820   6.854   0.894   6.418  0.1442  0.8951 -0.2316
13777TIP3   OH262821   0.494   1.912   1.859 -1.1772  0.3086 -0.0521
13777TIP3    H162822   0.471   2.003   1.843 -0.1385  0.4252 -0.9733
13777TIP3    H262823   0.422   1.862   1.820 -1.1372  0.7150 -0.6519
13778TIP3   OH262824   6.769   2.825  14.611  0.3165  0.1062 -0.3654
13778TIP3    H162825   6.793   2.918  14.605  1.9657 -0.3181 -0.3499
13778TIP3    H262826   6.724   2.818  14.696  1.5788  0.5873  0.3527
13779TIP3   OH262827   5.587   5.271   4.193 -0.3048 -0.2210 -0.5513
13779TIP3    H162828   5.618   5.185   4.223 -2.1402 -0.6348  0.2488
13779TIP3    H262829   5.495   5.273   4.220 -0.4586  1.7209 -1.1978
13780TIP3   OH262830   4.091   0.807   1.575 -0.2547 -0.3335  0.6769
13780TIP3    H162831   4.147   0.882   1.552  0.4972 -1.6142 -1.8794
13780TIP3    H262832   4.118   0.784   1.664  1.5138  0.6544  0.4332
13781TIP3   OH262833   1.874   2.179  15.854  0.3329 -0.1840  0.0101
13781TIP3    H162834   1.905   2.218  15.936  0.2913 -0.1598  0.0145
13781TIP3    H262835   1.934   2.211  15.788  0.7160 -0.6690  0.1169
13782TIP3   OH262836   3.602   2.639   3.803 -0.5667  0.1551  0.3589
13782TIP3    H162837   3.532   2.660   3.742  0.4430  0.4118 -0.7146
13782TIP3    H262838   3.642   2.723   3.825  1.8066 -0.3240 -1.9434
13783TIP3   OH262839   0.563   3.071   1.312 -0.3829  0.2439  0.4866
13783TIP3    H162840   0.584   2.978   1.310  0.1836  0.3651  0.7836
13783TIP3    H262841   0.629   3.112   1.256 -1.7157  0.2635 -1.1166
13784TIP3   OH262842   4.253   3.591   3.408  0.1980 -0.1378  0.0554
13784TIP3    H162843   4.237   3.647   3.332 -1.6398 -0.9121 -0.1495
13784TIP3    H262844   4.280   3.507   3.371 -2.1133 -0.9741  0.1631
13785TIP3   OH262845   2.537   2.747  16.704 -0.1195  0.3322  0.1797
13785TIP3    H162846   2.576   2.659  16.699  0.6225  0.5152  2.2608
13785TIP3    H262847   2.570   2.792  16.626  0.3261 -0.8967 -0.3664
13786TIP3   OH262848   0.931   6.301  11.975 -0.2584  0.1336  0.0205
13786TIP3    H162849   0.947   6.216  12.017  1.0548  0.5091  0.3163
13786TIP3    H262850   0.937   6.282  11.881  1.1709  0.0848  0.1018
13787TIP3   OH262851   2.458   0.734   6.694 -0.3233  0.3419  0.4531
13787TIP3    H162852   2.424   0.657   6.738 -0.2542 -0.3694 -0.7363
13787TIP3    H262853   2.380   0.783   6.667 -0.3687  0.3736  0.6383
13788TIP3   OH262854   6.580   1.897  13.674 -0.4374 -0.5977  0.7591
13788TIP3    H162855   6.650   1.944  13.719  0.5091 -0.0723 -1.2034
13788TIP3    H262856   6.506   1.958  13.675  0.2041  0.2141 -0.1360
13789TIP3   OH262857   4.630   4.588   0.961  0.4478  0.0040  0.1117
13789TIP3    H162858   4.579   4.518   0.922  1.9800 -0.5049 -1.0284
13789TIP3    H262859   4.660   4.641   0.887 -1.9502  2.7794  1.0538
13790TIP3   OH262860   5.038   1.265   4.905  0.0133 -0.1756  0.0767
13790TIP3    H162861   4.948   1.269   4.937 -0.4856 -1.0120 -1.1730
13790TIP3    H262862   5.040   1.328   4.833  0.8185  0.8823  1.0219
13791TIP3   OH262863   5.737   4.996  11.389  0.2581 -0.1514 -0.0927
13791TIP3    H162864   5.719   4.999  11.295  1.3012 -1.3534 -0.3389
13791TIP3    H262865   5.655   5.026  11.430 -0.2118  0.3389 -1.3649
13792TIP3   OH262866   6.742   1.660  15.227  0.1486  0.2772  0.2442
13792TIP3    H162867   6.689   1.673  15.148  1.7577  1.7503 -0.6340
13792TIP3    H262868   6.827   1.630  15.195  0.8989  1.1329  1.3842
13793TIP3   OH262869   5.944   4.279  12.233  0.2743 -0.3591  0.0171
13793TIP3    H162870   5.865   4.331  12.239 -0.6154 -1.4129 -2.1943
13793TIP3    H262871   5.914   4.188  12.239  1.1607 -0.8138 -1.9338
13794TIP3   OH262872   2.954   4.860  15.495  0.0813  0.1430 -0.3313
13794TIP3    H162873   2.950   4.805  15.417  0.6588  1.1546 -1.0851
13794TIP3    H262874   2.868   4.903  15.498  0.4205  0.8759 -0.9870
13795TIP3   OH262875   5.123   2.756  13.035 -0.0857  0.0146 -0.1895
13795TIP3    H162876   5.030   2.771  13.050 -0.3652 -1.2416 -0.6088
13795TIP3    H262877   5.153   2.834  12.988 -1.2409 -0.1901 -1.2924
13796TIP3   OH262878   5.536   6.250  16.267  0.8722 -0.0932 -0.5373
13796TIP3    H162879   5.625   6.250  16.301  1.2968 -1.2747 -1.5824
13796TIP3    H262880   5.547   6.254  16.172 -0.2253  1.2783 -0.6202
13797TIP3   OH262881   3.558   4.547   6.178  0.8792  0.1947  0.7370
13797TIP3    H162882   3.551   4.604   6.254 -1.4137 -0.8023  1.2965
13797TIP3    H262883   3.611   4.473   6.208  0.5826  0.1503  1.1409
13798TIP3   OH262884   4.169   2.680  16.277 -0.0449 -0.3106  0.2433
13798TIP3    H162885   4.170   2.768  16.315 -2.9384 -0.8452  1.6724
13798TIP3    H262886   4.257   2.646  16.293 -0.6195  0.1345  5.0113
13799TIP3   OH262887   3.522   0.766  12.169  0.3396  0.2296 -0.1067
13799TIP3    H162888   3.603   0.785  12.121 -0.7434  0.9570 -1.6625
13799TIP3    H262889   3.477   0.850  12.174 -1.7456 -0.7239 -1.9541
13800TIP3   OH262890   1.110   2.911   0.640  1.0906 -0.2204 -0.0977
13800TIP3    H162891   1.042   2.850   0.612  0.3248  0.5981 -0.0092
13800TIP3    H262892   1.074   2.956   0.716  1.1702  1.1943 -0.8716
13801TIP3   OH262893   4.136   5.545  16.126 -0.6796  0.2955  0.2233
13801TIP3    H162894   4.120   5.484  16.054  0.8575 -0.4671  0.5033
13801TIP3    H262895   4.101   5.500  16.203 -1.1920  0.5656  0.1456
13802TIP3   OH262896   1.299   0.313   4.092 -0.5076  0.1862  0.3700
13802TIP3    H162897   1.357   0.365   4.148 -0.5928 -0.8132  1.4225
13802TIP3    H262898   1.291   0.229   4.138  0.0787 -0.9549 -1.5815
13803TIP3   OH262899   6.774   1.465  11.536 -0.4450  0.3439  0.0303
13803TIP3    H162900   6.699   1.501  11.488 -1.6053 -0.5545  1.1104
13803TIP3    H262901   6.734   1.421  11.611  1.0917 -1.2292 -0.0510
13804TIP3   OH262902   6.505   3.240   2.630 -0.6712  0.3092  0.5329
13804TIP3    H162903   6.423   3.203   2.664 -0.5120 -1.0259 -0.4932
13804TIP3    H262904   6.530   3.182   2.558  3.1399 -1.4848  3.1315
13805TIP3   OH262905   0.132   1.149   5.408  0.4601  0.5870  0.2936
13805TIP3    H162906   0.074   1.087   5.363  1.2322 -0.2961  0.4765
13805TIP3    H262907   0.075   1.198   5.467  0.0694 -1.1161  1.3848
13806TIP3   OH262908   4.248   5.383   2.604 -0.0317  0.1288 -0.3255
13806TIP3    H162909   4.328   5.385   2.657 -0.0676 -1.2534 -0.1915
13806TIP3    H262910   4.186   5.439   2.652 -0.3325 -1.7543  1.5708
13807TIP3   OH262911   4.034   4.521  12.704 -0.5035  0.0864  0.3203
13807TIP3    H162912   4.083   4.529  12.622 -0.0716 -2.0443  0.3390
13807TIP3    H262913   3.967   4.588  12.699  0.5006  1.0135 -1.0793
13808TIP3   OH262914   2.958   1.041  12.832  0.4255  0.0495 -0.4207
13808TIP3    H162915   2.892   1.023  12.764  1.5886  0.1640 -1.6023
13808TIP3    H262916   2.947   0.971  12.896 -1.0543  0.2480 -0.4441
13809TIP3   OH262917   1.725   1.822   3.115 -0.4066  0.5876  0.3213
13809TIP3    H162918   1.725   1.767   3.036 -0.3443  2.8827 -1.3426
13809TIP3    H262919   1.808   1.869   3.112 -0.2817  0.5007  1.9287
13810TIP3   OH262920   6.650   3.493   3.128  0.2149 -0.6788 -0.2507
13810TIP3    H162921   6.632   3.577   3.171 -0.0179 -0.5931 -0.5178
13810TIP3    H262922   6.705   3.516   3.054  1.5847 -0.9613  0.6633
13811TIP3   OH262923   4.126   3.939  16.011  0.2285 -0.4538  0.1166
13811TIP3    H162924   4.178   4.000  15.959 -0.4135 -0.2175 -0.2593
13811TIP3    H262925   4.113   3.863  15.954 -0.3533 -0.2544 -0.0257
13812TIP3   OH262926   0.238   2.499  15.690  0.1064  0.1274  0.5363
13812TIP3    H162927   0.313   2.513  15.748  0.8104  0.9637 -0.5606
13812TIP3    H262928   0.206   2.412  15.714  2.3023 -0.8609  0.0863
13813TIP3   OH262929   5.598   6.297   4.520  0.2705  0.8925  0.3802
13813TIP3    H162930   5.550   6.379   4.506  2.8986  1.7892 -4.6624
13813TIP3    H262931   5.662   6.318   4.587  0.0721  2.6272  0.0571
13814TIP3   OH262932   4.589   2.609  11.812  0.7064  0.5596  0.0628
13814TIP3    H162933   4.675   2.613  11.854  1.8710  0.8226 -2.2788
13814TIP3    H262934   4.589   2.525  11.765 -0.9060 -0.1232  1.2205
13815TIP3   OH262935   6.293   5.120  16.039 -0.1671  0.0880  0.5538
13815TIP3    H162936   6.381   5.094  16.012 -0.2644 -0.3461  0.6514
13815TIP3    H262937   6.258   5.168  15.964  1.2264  2.8324  1.5967
13816TIP3   OH262938   0.276   2.076  12.749  0.0096 -0.0807  0.0845
13816TIP3    H162939   0.243   2.076  12.839  0.9179  0.4811  0.4202
13816TIP3    H262940   0.220   2.012  12.703 -3.3281  2.7758 -0.0277
13817TIP3   OH262941   0.420   6.097   0.508 -0.5270  0.2385  0.8879
13817TIP3    H162942   0.374   6.065   0.430 -2.0056  0.7677  1.5278
13817TIP3    H262943   0.432   6.019   0.562  1.6677 -0.3747 -0.4168
13818TIP3   OH262944   5.690   4.640  16.494  0.0705  0.1199  0.3575
13818TIP3    H162945   5.644   4.689  16.562 -2.1003  0.4724 -1.3332
13818TIP3    H262946   5.685   4.548  16.522 -1.5049  0.1800  0.2751
13819TIP3   OH262947   6.192   3.400   4.507 -0.6193  0.0612 -0.5604
13819TIP3    H162948   6.128   3.434   4.444 -0.8045 -0.0223 -0.4191
13819TIP3    H262949   6.138   3.365   4.579 -0.4295 -0.3893 -0.6355
13820TIP3   OH262950   5.810   3.583  16.804  0.3298  0.4297  0.1261
13820TIP3    H162951   5.813   3.542  16.717 -2.5560 -0.7542  0.5192
13820TIP3    H262952   5.855   3.521  16.861  1.0410  0.5671 -0.2791
13821TIP3   OH262953   4.341   2.479   0.724 -0.2166  0.0891  0.6500
13821TIP3    H162954   4.430   2.515   0.726 -0.8045  1.6003  0.3684
13821TIP3    H262955   4.305   2.509   0.641 -1.6174  1.0511  1.5879
13822TIP3   OH262956   2.533   6.163   1.359 -0.5836 -0.6809  0.2180
13822TIP3    H162957   2.562   6.144   1.270 -1.0857 -0.1619 -0.0635
13822TIP3    H262958   2.487   6.084   1.387 -0.9203 -0.6308 -0.1931
13823TIP3   OH262959   3.218   4.765   5.532  0.0097 -0.7032  0.0344
13823TIP3    H162960   3.270   4.815   5.594  0.2782 -1.7903  0.7046
13823TIP3    H262961   3.282   4.708   5.488 -0.6829 -2.4511  1.2652
13824TIP3   OH262962   3.778   2.293  15.517  0.2722  0.2024 -0.6792
13824TIP3    H162963   3.837   2.315  15.445  0.8986  1.5083  0.2159
13824TIP3    H262964   3.706   2.355  15.508  0.1552  0.1040 -0.4286
13825TIP3   OH262965   6.613   6.643   0.390  0.3054  0.2953  0.1918
13825TIP3    H162966   6.601   6.558   0.432 -2.2935 -0.1972 -1.4456
13825TIP3    H262967   6.601   6.707   0.461 -0.4642 -0.6192  0.8901
13826TIP3   OH262968   0.063   5.972   6.013  0.8508 -0.2121 -0.3099
13826TIP3    H162969  -0.028   5.985   6.039  1.0434 -0.3737  0.4433
13826TIP3    H262970   0.073   5.877   6.011  1.5638 -0.1923  1.5770
13827TIP3   OH262971   0.434   0.413   5.957 -0.2609 -0.3990 -0.4911
13827TIP3    H162972   0.507   0.415   6.020 -0.7834  0.7284  0.0955
13827TIP3    H262973   0.402   0.323   5.960  1.1079 -0.9053 -0.7538
13828TIP3   OH262974   2.139   1.271  15.775 -0.6338  0.5827 -0.4760
13828TIP3    H162975   2.091   1.281  15.856 -0.6530 -1.7418 -0.1767
13828TIP3    H262976   2.072   1.256  15.708 -0.4698  0.0189 -0.5121
13829TIP3   OH262977   6.237   0.948   2.446  0.0195 -0.6896  0.1260
13829TIP3    H162978   6.243   0.852   2.449  1.5724 -0.5745  1.1890
13829TIP3    H262979   6.209   0.967   2.357 -1.3411 -2.1742  0.2026
13830TIP3   OH262980   4.593   2.184  15.541 -0.3832 -0.0323 -0.0685
13830TIP3    H162981   4.644   2.158  15.465 -1.8042 -2.9729 -0.0964
13830TIP3    H262982   4.502   2.186  15.511 -0.7478  0.8064  1.0317
13831TIP3   OH262983   0.994   1.402   5.878 -0.3485 -0.4721  0.0327
13831TIP3    H162984   1.053   1.468   5.841 -0.4350  0.6337  1.7993
13831TIP3    H262985   1.047   1.323   5.884  0.1594 -0.2033 -0.8671
13832TIP3   OH262986   6.275   6.749  14.997 -0.2651 -0.1708  0.6686
13832TIP3    H162987   6.310   6.744  15.086  0.5967  1.1020  0.4075
13832TIP3    H262988   6.352   6.766  14.942 -0.9924  0.3986 -0.1709
13833TIP3   OH262989   4.629   4.806  16.745 -0.6336 -0.4151  0.6622
13833TIP3    H162990   4.543   4.802  16.788 -1.1498  0.1858 -0.2754
13833TIP3    H262991   4.676   4.874  16.793 -1.3630  0.5600  0.0234
13834TIP3   OH262992   5.548   3.110  17.262  0.4968  0.5656  0.4276
13834TIP3    H162993   5.539   3.197  17.222  0.5606 -0.3478 -1.5896
13834TIP3    H262994   5.642   3.093  17.261  0.3490 -0.2237 -0.6993
13835TIP3   OH262995   6.817   3.793   3.743 -0.1132  0.0777  0.0255
13835TIP3    H162996   6.814   3.847   3.822  1.1231  0.1558  0.0279
13835TIP3    H262997   6.875   3.720   3.765  0.3415  0.1632 -0.8367
13836TIP3   OH262998   1.778   1.995   3.851 -0.3840  0.0590 -0.2592
13836TIP3    H162999   1.700   2.025   3.804  0.2092  0.3861 -1.0343
13836TIP3    H263000   1.850   2.009   3.790  0.3956  0.5079  0.7501
13837TIP3   OH263001   3.200   0.885   0.353 -0.3796 -0.0852 -0.7054
13837TIP3    H163002   3.165   0.863   0.440  0.6345 -1.3055 -0.5936
13837TIP3    H263003   3.126   0.869   0.293 -0.4674 -1.2278 -0.3026
13838TIP3   OH263004   1.365   0.135  15.660 -0.1061 -0.1955  0.3132
13838TIP3    H163005   1.361   0.067  15.728 -1.8690 -2.0064 -1.5332
13838TIP3    H263006   1.439   0.108  15.605 -0.2369 -0.1327  0.1064
13839TIP3   OH263007   0.827   0.644  17.148  0.1837 -0.3231 -0.0581
13839TIP3    H163008   0.739   0.636  17.111  0.0681 -0.0914  0.1631
13839TIP3    H263009   0.879   0.578  17.102 -1.5681 -5.1042  4.2425
13840TIP3   OH263010   3.916   1.402  12.774  0.0111 -0.2048  0.2252
13840TIP3    H163011   3.873   1.487  12.768  0.4149 -0.0537 -0.5346
13840TIP3    H263012   3.915   1.381  12.868 -2.2672 -0.4965  0.1604
13841TIP3   OH263013   4.197   2.666   4.611  0.0815  0.0831 -0.0027
13841TIP3    H163014   4.109   2.665   4.647 -0.3897 -2.4749 -1.1048
13841TIP3    H263015   4.237   2.745   4.648 -1.8304 -0.0365  2.4697
13842TIP3   OH263016   6.711   3.964  16.304 -0.3383  0.2366 -0.3235
13842TIP3    H163017   6.671   4.016  16.234  0.1719 -0.1055 -0.8739
13842TIP3    H263018   6.663   3.881  16.303  1.1081 -0.5938 -1.7209
13843TIP3   OH263019   6.345   5.049   0.137  0.1134  0.1523  0.0360
13843TIP3    H163020   6.290   5.124   0.114 -1.6670 -1.1896 -0.1650
13843TIP3    H263021   6.432   5.087   0.151 -1.0490  2.4514  1.3360
13844TIP3   OH263022   5.709   6.161   0.962  0.1673 -0.3383  0.0494
13844TIP3    H163023   5.801   6.144   0.984  0.1868 -1.3014 -0.7416
13844TIP3    H263024   5.706   6.255   0.943  1.3084 -0.5648 -1.3852
13845TIP3   OH263025   6.233   2.395  12.329  0.2488 -0.7513  0.3419
13845TIP3    H163026   6.206   2.421  12.241 -0.4627 -0.6790  0.5783
13845TIP3    H263027   6.238   2.300  12.327  1.6442 -0.6877 -0.1738
13846TIP3   OH263028   1.754   5.375  15.049 -0.4064  0.2034  0.7041
13846TIP3    H163029   1.837   5.339  15.080 -1.2020 -3.3304 -1.0372
13846TIP3    H263030   1.687   5.320  15.089 -1.9046  2.5521  1.5080
13847TIP3   OH263031   6.536   0.716   3.134 -0.1197 -0.3948  0.2944
13847TIP3    H163032   6.448   0.736   3.101  0.3106 -1.3388 -1.4428
13847TIP3    H263033   6.533   0.622   3.155  0.8081 -0.6900 -0.8561
13848TIP3   OH263034   3.762   1.381   5.217 -0.0314  0.2055  0.2334
13848TIP3    H163035   3.696   1.435   5.173 -2.2759  0.4900  3.7719
13848TIP3    H263036   3.741   1.291   5.192 -1.5862  0.3253  1.0975
13849TIP3   OH263037   3.797   0.988   6.146  0.0698  0.3706 -0.8559
13849TIP3    H163038   3.717   0.955   6.186  1.5207 -2.0593  0.1587
13849TIP3    H263039   3.864   0.978   6.214  1.8553 -0.5505 -2.6928
13850TIP3   OH263040   4.371   2.366  12.497 -0.6933  0.3160  0.1573
13850TIP3    H163041   4.365   2.276  12.464  0.9274  0.6716 -1.1920
13850TIP3    H263042   4.341   2.420  12.423 -0.4726  0.9448  0.5249
13851TIP3   OH263043   3.089   2.785  12.043 -0.3397  0.0128  0.7045
13851TIP3    H163044   3.169   2.797  11.993 -0.1082 -0.2370  1.0115
13851TIP3    H263045   3.054   2.873  12.054 -0.8021 -0.0019 -0.5567
13852TIP3   OH263046   0.167   3.721   4.320 -0.4514  0.3678 -0.6076
13852TIP3    H163047   0.075   3.731   4.342 -0.6157 -0.0996 -1.0606
13852TIP3    H263048   0.194   3.808   4.292  0.0354  1.2157  2.3467
13853TIP3   OH263049   0.484   0.761   0.867  0.1041 -0.1176  0.8194
13853TIP3    H163050   0.566   0.724   0.900 -0.0721  0.2442  1.6659
13853TIP3    H263051   0.438   0.793   0.945 -1.5455 -1.7036  0.5455
13854TIP3   OH263052   1.871   0.253   3.314 -0.4774 -0.4548 -0.4086
13854TIP3    H163053   1.855   0.218   3.402  1.8788  0.6097  0.4973
13854TIP3    H263054   1.954   0.214   3.287  0.6708  2.0170 -0.6151
13855TIP3   OH263055   5.050   6.194  11.618 -0.2002 -0.0305  0.1194
13855TIP3    H163056   4.997   6.259  11.571  0.9207  1.8088  1.3463
13855TIP3    H263057   5.140   6.215  11.594  0.1448 -1.7192 -0.1594
13856TIP3   OH263058   4.630   5.200   0.836 -0.4537 -0.3431  0.1519
13856TIP3    H163059   4.713   5.152   0.833  0.1071  0.5442  1.3237
13856TIP3    H263060   4.621   5.226   0.928 -1.2574  0.9198 -0.2814
13857TIP3   OH263061   2.236   5.446  17.194 -0.4601 -0.1488 -0.1807
13857TIP3    H163062   2.192   5.478  17.272 -1.2417 -0.0730 -0.6491
13857TIP3    H263063   2.165   5.422  17.134  0.1101 -1.6035 -0.3115
13858TIP3   OH263064   1.549   4.499  14.194 -0.5404  0.3383 -0.1890
13858TIP3    H163065   1.628   4.495  14.139  0.1140  0.3053  0.7402
13858TIP3    H263066   1.525   4.591  14.194 -2.3723 -0.0586 -3.0548
13859TIP3   OH263067   3.793   4.899   0.849  0.0572  0.0999  0.3514
13859TIP3    H163068   3.819   4.810   0.825  0.4670  0.4518 -0.4960
13859TIP3    H263069   3.835   4.914   0.934 -0.7515 -0.8431  0.9344
13860TIP3   OH263070   4.806   1.042   6.285 -0.8312 -0.1726 -0.8130
13860TIP3    H163071   4.763   1.100   6.347 -2.4859 -0.8591 -1.2916
13860TIP3    H263072   4.886   1.088   6.261  0.7288 -0.6434  3.1080
13861TIP3   OH263073   4.621   6.524  10.921 -0.1584 -0.1784 -0.0865
13861TIP3    H163074   4.550   6.469  10.889 -0.5716 -0.1769  0.8086
13861TIP3    H263075   4.672   6.545  10.843 -1.7011  0.6417 -0.8873
13862TIP3   OH263076   0.912   5.200   5.049  0.6729  0.2493  0.8266
13862TIP3    H163077   0.989   5.158   5.011  1.5848  1.9414  0.7575
13862TIP3    H263078   0.842   5.135   5.041  1.4138 -0.2845 -1.6075
13863TIP3   OH263079   2.641   3.209   5.166 -0.4967 -0.1088  0.8663
13863TIP3    H163080   2.653   3.165   5.250  0.7340 -0.7096  0.3923
13863TIP3    H263081   2.645   3.139   5.101  0.3451  0.5557  0.1783
13864TIP3   OH263082   0.631   4.622   4.981  0.3868  0.2520  0.1355
13864TIP3    H163083   0.677   4.551   4.935 -2.7155 -2.1699  0.6471
13864TIP3    H263084   0.564   4.651   4.920 -0.3307  0.6733  1.1103
13865TIP3   OH263085   0.407   2.324   3.845  0.6682 -0.2245  0.4269
13865TIP3    H163086   0.466   2.391   3.877 -0.4195  1.5307 -1.1354
13865TIP3    H263087   0.445   2.297   3.761 -1.0499  1.4230 -0.9375
13866TIP3   OH263088   0.664   5.174  10.485 -0.6308  0.1706  0.0893
13866TIP3    H163089   0.688   5.244  10.546 -1.7133  0.2824  0.3859
13866TIP3    H263090   0.569   5.169  10.489 -0.5467 -1.6078  0.4067
13867TIP3   OH263091   3.846   3.436   5.922  0.6807 -0.0256  0.6040
13867TIP3    H163092   3.855   3.418   6.016 -1.3558  0.2614  0.8793
13867TIP3    H263093   3.831   3.530   5.917  0.0367 -0.1533  0.0514
13868TIP3   OH263094   0.531   1.336  14.511  0.3836  0.2802  0.5859
13868TIP3    H163095   0.554   1.265  14.572 -0.9332 -2.6257 -2.1518
13868TIP3    H263096   0.616   1.374  14.486  1.1666 -0.7499  1.6255
13869TIP3   OH263097   6.809   3.366  15.190 -0.5521  0.2476 -0.8081
13869TIP3    H163098   6.732   3.420  15.176 -1.0488 -0.4595 -0.8060
13869TIP3    H263099   6.834   3.382  15.281  0.8292  2.4435 -1.5249
13870TIP3   OH263100   1.090   6.801   2.145  0.0790 -0.0921 -0.2249
13870TIP3    H163101   1.009   6.826   2.102 -0.1349  0.1220  0.2980
13870TIP3    H263102   1.117   6.880   2.192 -0.1849 -0.6023  0.7927
13871TIP3   OH263103   0.540   0.668  11.958  0.0559  0.0384 -0.1275
13871TIP3    H163104   0.541   0.744  11.900  2.7184 -0.5108 -0.8317
13871TIP3    H263105   0.532   0.705  12.046  0.1516  1.0732 -0.5544
13872TIP3   OH263106   3.705   2.403  13.037 -0.4346 -0.3320  0.1964
13872TIP3    H163107   3.781   2.412  13.095 -1.9131  2.1228  1.8311
13872TIP3    H263108   3.692   2.308  13.029  2.0212 -0.7635  0.8759
13873TIP3   OH263109   4.359   6.178  12.028 -0.1316 -0.1578 -0.3174
13873TIP3    H163110   4.284   6.184  11.969  0.4060 -1.3494 -1.1293
13873TIP3    H263111   4.415   6.252  12.004 -0.3627 -0.0932 -0.6542
13874TIP3   OH263112   1.676   1.073  16.401  0.2528 -0.4878  0.3862
13874TIP3    H163113   1.662   1.088  16.495  1.7900  0.7033  0.4472
13874TIP3    H263114   1.615   1.134  16.359  2.9566  2.5588  0.6508
13875TIP3   OH263115   1.432   1.338  15.398  0.7505  0.3040 -0.5153
13875TIP3    H163116   1.428   1.324  15.303  1.0090 -0.9202 -0.3478
13875TIP3    H263117   1.458   1.430  15.407 -0.3719  0.7419 -1.6251
13876TIP3   OH263118   3.222   4.096   4.338 -0.1748  0.0971 -0.3564
13876TIP3    H163119   3.299   4.153   4.340 -1.2654  1.5540  0.6621
13876TIP3    H263120   3.160   4.141   4.281 -0.5433 -0.7510 -0.6436
13877TIP3   OH263121   1.880   3.096   4.064  0.2203 -0.2082 -0.4617
13877TIP3    H163122   1.937   3.114   3.989  0.5699  0.5429 -0.0224
13877TIP3    H263123   1.857   3.183   4.097 -0.0460 -0.5395  0.2208
13878TIP3   OH263124   3.714   2.743  14.338 -0.0601  0.1231 -0.1668
13878TIP3    H163125   3.752   2.701  14.261 -0.8720 -0.0528 -0.4831
13878TIP3    H263126   3.787   2.753  14.399  0.9427  1.6942 -1.5584
13879TIP3   OH263127   4.158   0.534   2.604  0.0549 -0.3199  0.3324
13879TIP3    H163128   4.120   0.495   2.683 -1.6739  1.8953  0.6651
13879TIP3    H263129   4.199   0.615   2.634  0.6092 -0.1548 -0.8318
13880TIP3   OH263130   0.593   1.648  13.861 -0.2618  0.0885  0.3587
13880TIP3    H163131   0.551   1.720  13.909 -0.8492 -0.9198  1.3634
13880TIP3    H263132   0.681   1.681  13.843 -0.3230  0.8256  1.3582
13881TIP3   OH263133   6.204   3.237   2.147  0.5531  0.1849 -0.0945
13881TIP3    H163134   6.140   3.303   2.175  0.2631 -0.6286  1.2362
13881TIP3    H263135   6.157   3.184   2.083  0.5516  0.8181 -0.6236
13882TIP3   OH263136   4.719   5.495  16.063 -0.1510 -0.5371  0.2726
13882TIP3    H163137   4.730   5.407  16.028  1.0224  0.1289 -1.0873
13882TIP3    H263138   4.668   5.483  16.143 -0.3739 -2.3974 -0.1269
13883TIP3   OH263139   2.095   2.502   4.382  0.1838  0.5262  0.0711
13883TIP3    H163140   2.031   2.439   4.347 -0.2793  1.5546 -0.9523
13883TIP3    H263141   2.086   2.494   4.477  0.3768 -1.2019 -0.0453
13884TIP3   OH263142   1.273   3.074   2.063 -0.2152 -0.6737  0.5059
13884TIP3    H163143   1.218   3.018   2.009 -0.9870  0.0009  0.5893
13884TIP3    H263144   1.213   3.137   2.102  0.6078  0.0281  0.6538
13885TIP3   OH263145   0.075   6.297   0.296 -0.1855  0.6026  0.0228
13885TIP3    H163146   0.079   6.387   0.329 -0.5719  1.0686 -1.2060
13885TIP3    H263147   0.109   6.302   0.207 -0.0455 -0.5005  0.0076
13886TIP3   OH263148   1.849   1.596   6.479  0.3065  0.4092  0.0764
13886TIP3    H163149   1.889   1.645   6.407  0.7375  0.7898  0.5669
13886TIP3    H263150   1.767   1.642   6.498  0.7474  1.0020  0.5880
13887TIP3   OH263151   4.092   5.200  14.075 -0.0614  0.2724  0.3333
13887TIP3    H163152   4.013   5.147  14.083 -0.4486  0.5236 -1.4137
13887TIP3    H263153   4.164   5.138  14.080 -0.4775 -0.3026 -0.5637
13888TIP3   OH263154   4.780   5.715   6.622  0.0398 -1.0711 -0.1019
13888TIP3    H163155   4.821   5.801   6.615  0.3920 -1.3862 -2.2139
13888TIP3    H263156   4.715   5.714   6.552  0.5391 -2.7899 -0.5620
13889TIP3   OH263157   5.484   3.985   5.624 -0.1682 -0.0896 -0.0262
13889TIP3    H163158   5.432   4.003   5.546 -0.8870 -0.9763  0.2283
13889TIP3    H263159   5.545   3.917   5.596 -0.2136 -0.1794  0.0906
13890TIP3   OH263160   3.325   5.539   1.145  0.2402 -0.0080 -0.1651
13890TIP3    H163161   3.252   5.567   1.200 -1.1518  0.6452 -2.2475
13890TIP3    H263162   3.312   5.445   1.134 -0.9646  0.2681 -1.3858
13891TIP3   OH263163   2.713   4.029   3.838  0.0672  0.4580  0.3851
13891TIP3    H163164   2.665   3.947   3.824 -1.5566  1.5974 -0.8438
13891TIP3    H263165   2.710   4.042   3.933 -0.9567 -0.1682  0.4538
13892TIP3   OH263166   4.735   1.853  12.854  0.3017 -0.1336  0.0208
13892TIP3    H163167   4.819   1.866  12.810  0.5638 -1.1503  0.2138
13892TIP3    H263168   4.670   1.856  12.783  0.8035 -2.7211 -0.5994
13893TIP3   OH263169   2.989   5.400   3.369 -0.0434  0.1181  0.2517
13893TIP3    H163170   2.969   5.398   3.275  0.1278 -1.8614  0.2462
13893TIP3    H263171   3.051   5.473   3.379  1.0384 -0.5490 -1.4049
13894TIP3   OH263172   5.868   6.223   3.463 -0.8044  0.8446  0.5684
13894TIP3    H163173   5.788   6.243   3.511 -1.3261 -1.7474  0.8320
13894TIP3    H263174   5.838   6.184   3.381  0.1502 -0.4854  0.8249
13895TIP3   OH263175   0.446   3.151  12.289 -0.1986  0.3758 -0.2469
13895TIP3    H163176   0.520   3.091  12.278 -0.6465 -0.7069  2.3800
13895TIP3    H263177   0.487   3.236  12.303  0.5184  0.0001  0.0034
13896TIP3   OH263178   0.738   3.567   4.575 -0.1599  0.1227 -0.5201
13896TIP3    H163179   0.729   3.499   4.508  0.7009 -2.0058  1.4754
13896TIP3    H263180   0.832   3.579   4.585 -0.2527 -0.3963  1.1175
13897TIP3   OH263181   2.817   4.862   2.606 -0.1881 -0.2180  0.2830
13897TIP3    H163182   2.758   4.908   2.547 -0.7121 -1.4343 -0.1591
13897TIP3    H263183   2.789   4.889   2.694 -0.0720  0.7908  0.0118
13898TIP3   OH263184   5.254   3.376  11.361  1.1934 -0.2214  0.4285
13898TIP3    H163185   5.161   3.352  11.364  1.0286  0.4723  0.9921
13898TIP3    H263186   5.257   3.453  11.304  1.7525 -1.6929 -1.5690
13899TIP3   OH263187   3.587   1.965  13.437 -0.4011  0.2939  0.3889
13899TIP3    H163188   3.588   2.055  13.405  0.1564  0.3462  0.5524
13899TIP3    H263189   3.571   1.973  13.531  0.3458  0.2561  0.5179
13900TIP3   OH263190   4.733   4.238   1.707  0.3273  0.1365  0.1871
13900TIP3    H163191   4.649   4.255   1.749 -0.3240  0.0476 -1.0588
13900TIP3    H263192   4.721   4.153   1.665 -0.0201  1.5416 -2.6399
13901TIP3   OH263193   4.337   2.186  15.422  0.1578  0.4038  0.0111
13901TIP3    H163194   4.276   2.224  15.358  1.4850  1.0489 -0.8941
13901TIP3    H263195   4.392   2.127  15.370 -0.2670 -0.8660  0.9806
13902TIP3   OH263196   6.104   5.030  17.122  0.2021  0.3508  0.2305
13902TIP3    H163197   6.170   5.049  17.055  0.0387 -0.9506 -0.3202
13902TIP3    H263198   6.108   5.104  17.182  1.7593  0.5678 -0.1271
13903TIP3   OH263199   4.245   3.735  14.372 -0.0989 -0.1575 -0.3394
13903TIP3    H163200   4.182   3.803  14.348  0.4576  0.2361 -0.6907
13903TIP3    H263201   4.192   3.667  14.414 -0.5619  0.8216  0.6736
13904TIP3   OH263202   5.020   5.807   3.414  0.1970 -0.4718 -0.3139
13904TIP3    H163203   5.059   5.788   3.329  0.3470  2.1028 -0.8643
13904TIP3    H263204   4.926   5.813   3.397 -0.0630 -2.4909  0.2253
13905TIP3   OH263205   3.578   6.059  11.704  0.1366  0.3240  0.1486
13905TIP3    H163206   3.554   5.988  11.764  1.9477  0.2244  0.7696
13905TIP3    H263207   3.494   6.097  11.677 -1.1071 -4.4874 -3.2985
13906TIP3   OH263208   6.794   2.005  13.802  0.1163 -0.7210  0.5930
13906TIP3    H163209   6.779   2.095  13.775 -1.2706 -0.5515  1.8501
13906TIP3    H263210   6.873   2.009  13.856 -0.9868  0.0621  2.1708
13907TIP3   OH263211   2.506   3.994   2.893  0.0387  0.9926  0.0596
13907TIP3    H163212   2.578   4.036   2.940  0.4317  0.4480 -0.0485
13907TIP3    H263213   2.439   4.062   2.886  0.2790  1.3055  0.7438
13908TIP3   OH263214   3.526   3.672   5.064 -0.0612  0.1066  0.1172
13908TIP3    H163215   3.602   3.722   5.035  0.0478 -1.2308 -2.0269
13908TIP3    H263216   3.472   3.662   4.985 -0.4707 -2.4392  0.6641
13909TIP3   OH263217   0.292   1.624  15.349  0.1971  0.1844 -0.2768
13909TIP3    H163218   0.376   1.598  15.385  0.4148 -0.9166 -1.5442
13909TIP3    H263219   0.235   1.634  15.425  1.0920 -0.4392  0.4768
13910TIP3   OH263220   0.410   1.324   6.064  0.8111 -0.0238 -0.0261
13910TIP3    H163221   0.379   1.285   5.982  0.5357 -0.0139  0.0727
13910TIP3    H263222   0.413   1.250   6.125  0.9606 -0.0204 -0.0305
13911TIP3   OH263223   1.942   5.714  13.635 -0.4771 -0.0979 -0.0333
13911TIP3    H163224   1.990   5.741  13.557  0.7433 -0.3613  0.6178
13911TIP3    H263225   1.850   5.712  13.608 -0.4331  3.0043 -0.5957
13912TIP3   OH263226   4.501   1.940  10.830 -0.2713  0.0689  0.3150
13912TIP3    H163227   4.439   2.011  10.842  0.0833  0.0415  2.6408
13912TIP3    H263228   4.586   1.978  10.851  0.1851 -0.5254 -0.4169
13913TIP3   OH263229   3.262   1.075   0.644 -0.3684  0.1504  0.1035
13913TIP3    H163230   3.318   1.150   0.667 -0.0291 -1.0765  3.5948
13913TIP3    H263231   3.200   1.111   0.581  2.2513  2.3761 -1.3452
13914TIP3   OH263232   0.971   2.850   4.420  0.1164 -0.3754 -0.1156
13914TIP3    H163233   0.882   2.843   4.384 -0.4638  0.6730  1.0718
13914TIP3    H263234   1.028   2.827   4.347 -1.0481  0.9993 -1.4871
13915TIP3   OH263235   0.302   5.494  10.636  0.3079  0.8017  0.2800
13915TIP3    H163236   0.222   5.531  10.599  1.7637  1.3869 -2.3998
13915TIP3    H263237   0.327   5.555  10.706  0.1458  2.3931 -1.0205
13916TIP3   OH263238   5.154   3.932  11.334 -0.0338 -0.2631 -0.3836
13916TIP3    H163239   5.152   3.995  11.406 -1.6288 -0.3387 -0.3605
13916TIP3    H263240   5.139   3.984  11.256  1.1244 -0.2685 -0.6267
13917TIP3   OH263241   3.030   5.414   2.688  0.0833 -0.0105  0.2856
13917TIP3    H163242   3.119   5.381   2.679  0.5982  0.7469  2.4625
13917TIP3    H263243   3.038   5.491   2.744 -1.8433  0.5379 -0.1438
13918TIP3   OH263244   3.746   1.011   2.603 -0.0361  0.3865  0.2811
13918TIP3    H163245   3.797   1.053   2.672 -0.0222  1.8568 -0.6181
13918TIP3    H263246   3.808   0.953   2.558 -0.0455 -0.5850  1.4770
13919TIP3   OH263247   2.085   5.591   4.003  0.2197  0.1966  0.1919
13919TIP3    H163248   2.041   5.665   4.046  0.6623 -1.1110  2.9365
13919TIP3    H263249   2.024   5.518   4.012  1.1748 -0.5866  0.3086
13920TIP3   OH263250   6.773   3.251   5.813 -0.7051 -0.5310 -0.7759
13920TIP3    H163251   6.813   3.296   5.738  0.5324 -0.4470 -0.0791
13920TIP3    H263252   6.731   3.321   5.863  0.2738 -0.2943 -0.2785
13921TIP3   OH263253   2.774   1.972  12.832 -0.6601  0.0800 -0.4687
13921TIP3    H163254   2.755   1.997  12.922  1.0977  2.3587 -0.6893
13921TIP3    H263255   2.701   1.915  12.807 -0.7646 -1.2344  2.6221
13922TIP3   OH263256   0.355   3.493   5.290 -0.3353 -0.5679 -0.4065
13922TIP3    H163257   0.338   3.488   5.384 -0.2669 -2.2027 -0.4633
13922TIP3    H263258   0.376   3.585   5.274 -1.5167 -0.0385  0.9733
13923TIP3   OH263259   4.237   5.837   4.149  0.0819 -0.3491  0.2840
13923TIP3    H163260   4.300   5.858   4.080 -0.2438  0.1093  0.1321
13923TIP3    H263261   4.218   5.920   4.191  0.7151 -0.7065  1.3034
13924TIP3   OH263262   3.112   2.801  15.631  0.2267 -0.1449  0.3832
13924TIP3    H163263   3.047   2.760  15.688  0.0175 -1.7261 -0.9586
13924TIP3    H263264   3.063   2.864  15.579 -0.1361 -0.8846 -0.1800
13925TIP3   OH263265   2.634   2.493  16.914 -0.1963 -0.0320 -0.1210
13925TIP3    H163266   2.571   2.543  16.966 -0.6324  0.1245 -0.7979
13925TIP3    H263267   2.580   2.436  16.859  0.2418  0.5896 -1.2000
13926TIP3   OH263268   6.657   3.918  15.898 -0.5057  0.2519 -0.0658
13926TIP3    H163269   6.663   3.858  15.824 -1.8809  1.3716 -1.1096
13926TIP3    H263270   6.583   3.885  15.949  1.1923 -1.2442  1.5190
13927TIP3   OH263271   2.483   6.740  13.034  0.5891 -0.3364 -0.5697
13927TIP3    H163272   2.499   6.803  12.964  2.2205 -1.3653 -1.1588
13927TIP3    H263273   2.501   6.788  13.115 -0.8220  0.7161 -0.8665
13928TIP3   OH263274   3.195   4.351  12.375 -0.0079 -0.1166  0.1761
13928TIP3    H163275   3.138   4.344  12.299  0.3178 -0.7901 -0.0096
13928TIP3    H263276   3.276   4.309  12.348  0.9170  1.6754  0.1095
13929TIP3   OH263277   3.871   0.511  13.977  0.3610  0.0284  0.1813
13929TIP3    H163278   3.946   0.506  13.918 -0.0859  0.9629 -0.4902
13929TIP3    H263279   3.908   0.508  14.065  1.0636 -1.0186 -0.1486
13930TIP3   OH263280   6.690   0.896  15.703  0.1485 -0.5681  0.3970
13930TIP3    H163281   6.706   0.988  15.722 -0.2366 -0.4558  0.1904
13930TIP3    H263282   6.763   0.870  15.646  0.6494 -0.5868  1.0484
13931TIP3   OH263283   5.897   5.373  13.610  0.1672 -0.0187 -0.0846
13931TIP3    H163284   5.806   5.392  13.632  0.0707  0.1814 -0.6530
13931TIP3    H263285   5.892   5.301  13.547  0.3456  0.7342 -0.9756
13932TIP3   OH263286   5.887   5.443  16.952 -0.3975  0.0956 -0.0372
13932TIP3    H163287   5.838   5.524  16.934  0.8359  0.7709 -0.3678
13932TIP3    H263288   5.962   5.472  17.004 -0.5926 -1.0110  0.8715
13933TIP3   OH263289   3.027   6.151   2.046  0.1936 -0.2145  0.4101
13933TIP3    H163290   2.956   6.155   1.982  2.0577  0.6029 -1.6486
13933TIP3    H263291   3.070   6.068   2.029 -0.3875 -0.8300  1.8348
13934TIP3   OH263292   4.983   4.202   1.893 -0.5657  0.3081  0.2225
13934TIP3    H163293   4.924   4.135   1.928 -0.6562  0.8207  1.0775
13934TIP3    H263294   4.925   4.269   1.856 -0.4786 -0.0016 -0.4887
13935TIP3   OH263295   6.727   6.818   4.978  0.6004 -0.5423 -0.2831
13935TIP3    H163296   6.640   6.792   5.008  1.0108 -0.2466  1.1916
13935TIP3    H263297   6.785   6.800   5.053  1.1391  3.2471  0.2839
13936TIP3   OH263298   1.070   6.708   5.687  0.9263 -0.2590 -0.8212
13936TIP3    H163299   1.085   6.767   5.761 -1.3102  1.2248 -1.4914
13936TIP3    H263300   1.026   6.632   5.725 -0.4854  0.6309 -0.6109
13937TIP3   OH263301   2.659   3.080  13.829  0.3848 -0.2117  0.1986
13937TIP3    H163302   2.595   3.080  13.901  0.3824  0.5437  0.2047
13937TIP3    H263303   2.652   3.168  13.792  1.2845 -0.1862  0.0811
13938TIP3   OH263304   3.258   6.208  16.137 -0.3380  0.3152 -0.3127
13938TIP3    H163305   3.256   6.146  16.065  3.1490 -0.8300  0.5021
13938TIP3    H263306   3.276   6.293  16.096  1.4290 -0.3015 -0.8429
13939TIP3   OH263307   1.910   2.157   3.629  0.1885 -0.3287 -0.2992
13939TIP3    H163308   1.823   2.197   3.631 -0.0296 -0.8176  0.0033
13939TIP3    H263309   1.911   2.106   3.548 -0.3716 -1.5759  0.4625
13940TIP3   OH263310   4.339   5.948   5.364  0.3372  0.5614 -0.6102
13940TIP3    H163311   4.324   5.960   5.270  0.7278  0.0074 -0.7495
13940TIP3    H263312   4.434   5.935   5.371  0.0109 -1.9579 -0.4359
13941TIP3   OH263313   3.859   2.778   3.570 -0.8098 -0.3888 -1.1483
13941TIP3    H163314   3.915   2.854   3.585  0.1724 -1.3170 -0.0245
13941TIP3    H263315   3.875   2.721   3.645  0.0260 -2.6271 -2.9537
13942TIP3   OH263316   2.249   5.249  12.990  0.1149  0.0167 -0.2334
13942TIP3    H163317   2.266   5.245  13.084  0.5786  1.0562 -0.2618
13942TIP3    H263318   2.335   5.241  12.949 -0.0639 -0.2392 -0.5689
13943TIP3   OH263319   4.732   5.229   2.753  0.1728  0.0202  0.0102
13943TIP3    H163320   4.798   5.232   2.684  0.8031 -0.7965  0.5584
13943TIP3    H263321   4.765   5.287   2.821  0.1047 -0.0324  0.0889
13944TIP3   OH263322   3.048   4.894   3.420 -0.5038  0.0376 -0.3988
13944TIP3    H163323   3.014   4.832   3.354  0.0263 -1.3083  0.5615
13944TIP3    H263324   3.143   4.878   3.421 -0.5260 -0.0480  0.7835
13945TIP3   OH263325   4.371   3.462  15.898  0.1703  0.1985 -0.0546
13945TIP3    H163326   4.421   3.458  15.817  2.0047 -3.5037  1.1880
13945TIP3    H263327   4.431   3.501  15.962 -0.8603  1.9632 -0.1129
13946TIP3   OH263328   2.155   6.486  15.848  0.0491  0.0175 -0.4432
13946TIP3    H163329   2.071   6.502  15.806  1.0564  0.4133 -2.4285
13946TIP3    H263330   2.137   6.425  15.919 -2.3515  2.3821  1.0388
13947TIP3   OH263331   6.499   4.179  11.770 -0.1324  0.0058  0.3822
13947TIP3    H163332   6.481   4.200  11.861 -0.4432  0.4117  0.2275
13947TIP3    H263333   6.579   4.127  11.773 -0.4052 -0.3953  0.9274
13948TIP3   OH263334   3.633   1.716   3.068 -0.3867 -0.0314 -0.0583
13948TIP3    H163335   3.597   1.628   3.074  1.0314 -0.5824  0.5838
13948TIP3    H263336   3.604   1.749   2.983 -1.6030 -0.8087  0.0631
13949TIP3   OH263337   2.386   2.896  14.883  0.6100 -0.3479  0.4802
13949TIP3    H163338   2.452   2.949  14.838  1.2852 -0.7406  0.9994
13949TIP3    H263339   2.304   2.940  14.865  1.2959  1.6393  2.0036
13950TIP3   OH263340   4.121   1.939  13.553  0.0308 -0.4076  0.4950
13950TIP3    H163341   4.215   1.955  13.562 -0.1710  1.5027 -0.4287
13950TIP3    H263342   4.111   1.845  13.567  1.9056 -0.4160  1.9420
13951TIP3   OH263343   0.520   5.068  14.257 -0.6814 -0.0767 -0.1784
13951TIP3    H163344   0.603   5.115  14.251 -1.3581  0.9715 -1.7524
13951TIP3    H263345   0.514   5.042  14.348  1.5809 -0.5619 -0.1347
13952TIP3   OH263346   0.749   2.011  15.562 -0.4400 -0.6504  0.1033
13952TIP3    H163347   0.726   2.039  15.650 -1.3826  0.7945 -0.5920
13952TIP3    H263348   0.666   1.991  15.520  0.0499 -1.9564 -0.2553
13953TIP3   OH263349   0.111   6.211  16.477  0.5964 -0.1853  0.2244
13953TIP3    H163350   0.031   6.185  16.431  0.6885 -1.5146  0.7816
13953TIP3    H263351   0.171   6.138  16.462  1.0869 -0.0081  1.3067
13954TIP3   OH263352   4.486   6.277  14.642 -1.0130  0.0560  0.4086
13954TIP3    H163353   4.416   6.284  14.577 -1.1537 -0.3462  0.5152
13954TIP3    H263354   4.516   6.186  14.634  1.5141  0.9795 -1.7636
13955TIP3   OH263355   4.409   4.629   3.985 -0.1366  0.0226  0.5442
13955TIP3    H163356   4.326   4.660   4.020 -0.4914  0.1981 -0.4325
13955TIP3    H263357   4.398   4.535   3.975 -0.3992  0.1136 -0.0506
13956TIP3   OH263358   6.290   4.915  11.843 -0.1083  0.4716 -0.0685
13956TIP3    H163359   6.218   4.855  11.862  0.3851 -0.1775 -0.2014
13956TIP3    H263360   6.324   4.939  11.930  0.0902  0.0644 -0.0346
13957TIP3   OH263361   5.332   6.738   5.055 -0.1112  0.0743  0.6988
13957TIP3    H163362   5.345   6.720   5.149 -0.1073 -0.5807  0.5753
13957TIP3    H263363   5.360   6.828   5.044  0.4953 -0.0492  1.2140
13958TIP3   OH263364   5.532   4.820   5.278  0.2448 -0.5808 -0.4924
13958TIP3    H163365   5.456   4.773   5.313  0.0916  0.1482  0.1799
13958TIP3    H263366   5.495   4.900   5.239  0.7360  0.1575  0.5323
13959TIP3   OH263367   5.084   2.566   3.943 -0.0047 -0.1562 -0.0018
13959TIP3    H163368   5.043   2.552   4.028 -1.6364  0.4314 -0.6869
13959TIP3    H263369   5.064   2.657   3.922  0.0678 -0.4166 -1.1930
13960TIP3   OH263370   5.936   2.873   3.841 -0.0483 -0.2764 -0.0824
13960TIP3    H163371   5.951   2.966   3.859  0.3747 -0.4773  0.6189
13960TIP3    H263372   5.845   2.869   3.811 -0.0680  0.3665 -0.1199
13961TIP3   OH263373   6.035   2.934   0.446  0.1066 -0.3401  0.0759
13961TIP3    H163374   5.971   2.862   0.449 -1.8832  1.3781  0.0201
13961TIP3    H263375   6.020   2.976   0.362  2.8604 -1.2400 -0.9065
13962TIP3   OH263376   1.625   5.731   5.088  0.1034  0.2809 -0.4326
13962TIP3    H163377   1.679   5.811   5.091  0.0351  0.3005  0.4544
13962TIP3    H263378   1.543   5.756   5.131 -0.0564 -0.1595 -0.4827
13963TIP3   OH263379   0.413   3.564  12.015 -0.3524 -0.6372 -0.1065
13963TIP3    H163380   0.341   3.565  11.952  1.3637 -0.8475 -2.1164
13963TIP3    H263381   0.413   3.475  12.049  0.4179 -1.3301 -1.8585
13964TIP3   OH263382   2.926   3.794  14.967  0.0551 -0.0492 -0.2313
13964TIP3    H163383   2.968   3.870  15.007 -0.6542  0.3658 -0.2688
13964TIP3    H263384   2.984   3.721  14.989  0.2345  0.3425  0.6319
13965TIP3   OH263385   6.353   1.962  12.881  0.1612  0.1370 -0.7854
13965TIP3    H163386   6.345   1.952  12.786 -1.0405 -2.2399 -0.4593
13965TIP3    H263387   6.408   1.888  12.908 -0.7348 -0.0463  0.5378
13966TIP3   OH263388   5.346   4.585  12.659  0.2488 -0.7622  0.1578
13966TIP3    H163389   5.365   4.623  12.573 -1.2762 -1.7751 -0.6418
13966TIP3    H263390   5.403   4.633  12.719  1.9738 -0.6329 -1.5239
13967TIP3   OH263391   4.889   5.554   3.103  0.1040  0.2238 -0.4660
13967TIP3    H163392   4.807   5.506   3.116  0.0123  1.0570  2.4064
13967TIP3    H263393   4.862   5.641   3.074 -0.0822  0.5478  0.6335
13968TIP3   OH263394   0.838   4.090   2.747 -0.2863  0.5203 -0.9252
13968TIP3    H163395   0.842   3.996   2.726  0.3464  0.6411 -1.3641
13968TIP3    H263396   0.907   4.129   2.693 -0.3403  1.1934 -0.5077
13969TIP3   OH263397   4.408   6.005  14.598  0.1995  0.1275 -0.0561
13969TIP3    H163398   4.437   5.966  14.681 -1.2983  0.0526  0.4510
13969TIP3    H263399   4.446   5.949  14.531  1.3148  0.1061  0.5808
13970TIP3   OH263400   1.940   2.232  11.982 -0.2536  0.4521  0.1214
13970TIP3    H163401   1.913   2.285  12.057  0.7218  1.1632 -0.0264
13970TIP3    H263402   1.916   2.142  12.006  2.6815  0.2280  2.5647
13971TIP3   OH263403   0.557   2.692   5.819 -0.5174  0.2023  0.1872
13971TIP3    H163404   0.474   2.733   5.792 -1.2354  0.6914  2.9720
13971TIP3    H263405   0.567   2.617   5.761 -2.1946  0.9681 -1.1362
13972TIP3   OH263406   3.837   3.455   1.229 -0.4940  0.0544 -0.9284
13972TIP3    H163407   3.825   3.408   1.146 -0.4888 -0.6486 -0.5335
13972TIP3    H263408   3.760   3.513   1.234  0.5065  1.5724 -2.3806
13973TIP3   OH263409   2.167   4.561  11.196  0.2194  0.4157  0.5885
13973TIP3    H163410   2.213   4.555  11.112  3.0315 -0.9395  2.1261
13973TIP3    H263411   2.145   4.653  11.205 -2.3164  0.2031 -2.7151
13974TIP3   OH263412   5.483   5.381  16.977  0.2802  0.5433 -0.5079
13974TIP3    H163413   5.399   5.428  16.985  0.6534  1.2607 -0.7468
13974TIP3    H263414   5.537   5.438  16.922  0.0908 -1.0979 -2.4480
13975TIP3   OH263415   3.550   2.458  15.543  0.1250 -0.3928  0.2646
13975TIP3    H163416   3.489   2.391  15.572  1.7225 -1.7627  0.5613
13975TIP3    H263417   3.579   2.502  15.623  0.4625 -0.5717  0.2419
13976TIP3   OH263418   5.158   4.526   2.714  0.0388 -0.1244  0.0832
13976TIP3    H163419   5.071   4.550   2.748 -0.1596 -0.3750 -0.2411
13976TIP3    H263420   5.181   4.446   2.760  0.0080 -0.1674  0.0237
13977TIP3   OH263421   3.955   0.207   6.155 -0.2448 -0.3219  0.2488
13977TIP3    H163422   3.927   0.206   6.063 -0.6605 -1.1426  0.3765
13977TIP3    H263423   3.950   0.116   6.182  2.2283 -0.4459  0.4028
13978TIP3   OH263424   1.553   5.862  16.842 -0.1543 -0.6426 -0.1079
13978TIP3    H163425   1.551   5.781  16.791 -0.5735  0.5000 -1.9200
13978TIP3    H263426   1.465   5.898  16.833  0.1875  0.2838  0.2643
13979TIP3   OH263427   0.142   0.490   0.182 -0.2579 -0.5465 -0.8263
13979TIP3    H163428   0.160   0.584   0.190  1.0295 -0.7677 -0.9982
13979TIP3    H263429   0.127   0.460   0.271  2.8691 -0.8402 -0.3408
13980TIP3   OH263430   2.466   5.577  12.459  0.5669  0.1859  0.2359
13980TIP3    H163431   2.407   5.572  12.383 -0.2170  1.1838  0.7722
13980TIP3    H263432   2.465   5.669  12.485  2.0879  0.1442  0.4868
13981TIP3   OH263433   0.720   2.973  15.486  0.0338  0.0625 -0.0038
13981TIP3    H163434   0.636   2.929  15.491 -0.6226  1.2805 -0.1554
13981TIP3    H263435   0.777   2.922  15.543 -0.8198 -0.7358  0.1457
13982TIP3   OH263436   1.102   4.566   5.260  0.7941 -0.4021  0.3032
13982TIP3    H163437   1.145   4.647   5.290  1.2857 -0.9800  1.1765
13982TIP3    H263438   1.009   4.586   5.263  0.8958 -0.0039  0.9318
13983TIP3   OH263439   6.545   4.442  15.529 -0.0935 -0.4907  0.3356
13983TIP3    H163440   6.479   4.483  15.473 -0.1916 -0.6672  0.3219
13983TIP3    H263441   6.612   4.411  15.469  0.2150  0.0679  0.3833
13984TIP3   OH263442   2.196   1.970  15.056  0.0924  0.4770 -0.2354
13984TIP3    H163443   2.268   1.929  15.105  0.5040 -1.0685 -2.0372
13984TIP3    H263444   2.165   1.900  14.997 -0.8911  2.0325 -1.6021
13985TIP3   OH263445   2.478   5.474  17.074  0.6815  0.1105  0.6780
13985TIP3    H163446   2.539   5.400  17.078 -0.1255 -0.4960  1.7423
13985TIP3    H263447   2.404   5.448  17.129 -0.3582  1.0247 -0.2681
13986TIP3   OH263448   0.473   1.925  11.763  0.0717  0.1381 -0.3754
13986TIP3    H163449   0.435   1.845  11.797 -1.0744 -0.8646 -3.8031
13986TIP3    H263450   0.561   1.928  11.799 -0.7225 -1.3487  1.7519
13987TIP3   OH263451   4.887   2.221   4.132 -0.1562  0.3599  0.3774
13987TIP3    H163452   4.967   2.215   4.079 -1.0935  1.7513 -1.2647
13987TIP3    H263453   4.876   2.315   4.146 -2.3015  0.2931 -0.7014
13988TIP3   OH263454   5.557   0.158   1.254  0.2721 -0.2106 -0.3527
13988TIP3    H163455   5.496   0.106   1.200 -0.0179  0.9958 -1.2065
13988TIP3    H263456   5.624   0.095   1.281 -2.2176 -1.9705  1.9978
13989TIP3   OH263457   5.076   5.646  13.229  0.3350 -0.0129  0.1189
13989TIP3    H163458   5.048   5.706  13.161 -0.4587 -0.8930 -0.3426
13989TIP3    H263459   5.133   5.584  13.184 -0.9420 -1.1580  0.0418
13990TIP3   OH263460   2.481   5.668   5.593 -0.3569 -0.5246 -0.2463
13990TIP3    H163461   2.545   5.674   5.522 -0.0780  1.6091  0.1422
13990TIP3    H263462   2.439   5.754   5.594 -0.0125 -0.3643  2.5194
13991TIP3   OH263463   5.094   6.011  16.461  0.1875 -0.6750 -0.0893
13991TIP3    H163464   5.040   6.090  16.453 -1.5027 -1.9307 -1.4641
13991TIP3    H263465   5.147   6.010  16.382 -0.9660 -1.7367 -0.8748
13992TIP3   OH263466   6.100   0.357  15.547  0.6874  0.7085 -0.1227
13992TIP3    H163467   6.028   0.321  15.495  1.1787  1.5020 -1.3766
13992TIP3    H263468   6.069   0.444  15.574  0.2070  0.0773  1.4109
13993TIP3   OH263469   6.092   2.793  14.352  0.0885  0.4884 -0.1818
13993TIP3    H163470   6.078   2.802  14.257 -0.9444 -0.1056 -0.0991
13993TIP3    H263471   6.159   2.725  14.360 -0.5173 -0.1491 -0.4670
13994TIP3   OH263472   6.581   1.800  12.085  0.4325  0.0008 -0.4507
13994TIP3    H163473   6.622   1.714  12.099 -0.7161 -0.6354 -0.8951
13994TIP3    H263474   6.605   1.851  12.162 -0.5340 -1.3885  0.8135
13995TIP3   OH263475   4.877   4.750  15.667 -0.3273  0.5232  0.2079
13995TIP3    H163476   4.785   4.732  15.687 -0.4425  0.9435  0.0502
13995TIP3    H263477   4.922   4.744  15.751 -0.9507  3.2602  0.7555
13996TIP3   OH263478   5.388   1.933   2.307 -0.9222 -0.1409 -0.0804
13996TIP3    H163479   5.483   1.948   2.304 -0.8836  0.0383  1.6221
13996TIP3    H263480   5.350   2.020   2.294 -0.8651 -0.3215 -1.4659
13997TIP3   OH263481   3.581   3.204  17.258  0.4126 -0.6933  0.5214
13997TIP3    H163482   3.512   3.261  17.223 -0.5011 -0.4756  2.5859
13997TIP3    H263483   3.538   3.155  17.328  1.8197 -2.1744  0.3684
13998TIP3   OH263484   2.254   4.590  12.718 -0.5051  0.3185 -0.3922
13998TIP3    H163485   2.334   4.631  12.750 -1.2500  0.1281  1.7901
13998TIP3    H263486   2.211   4.657  12.665  2.0497 -0.2247 -3.2523
13999TIP3   OH263487   4.523   1.388   6.307  0.1995  0.1747  0.0593
13999TIP3    H163488   4.583   1.426   6.244  0.1365  2.9165  1.5671
13999TIP3    H263489   4.564   1.306   6.334  2.1574  0.9288 -0.5969
14000TIP3   OH263490   1.525   4.067   5.547  0.1323  0.1597  0.7134
14000TIP3    H163491   1.587   4.113   5.605  1.1493 -0.0144 -0.2138
14000TIP3    H263492   1.468   4.136   5.514  0.0254  0.3738  1.3388
14001TIP3   OH263493   0.285   1.299   3.204  0.2622  0.3279 -0.1938
14001TIP3    H163494   0.200   1.343   3.206  0.2718  0.3081  1.0515
14001TIP3    H263495   0.333   1.337   3.278  1.5002  0.6468 -1.1327
14002TIP3   OH263496   3.806   0.055  14.582  0.3661  0.1522 -0.3750
14002TIP3    H163497   3.718   0.093  14.583  0.2526 -0.1027  0.9216
14002TIP3    H263498   3.865   0.130  14.572  0.0964  0.5991  1.1656
14003TIP3   OH263499   2.322   4.408  11.842 -0.3735 -0.4765 -0.8274
14003TIP3    H163500   2.329   4.379  11.750 -1.9662  0.0717 -1.1337
14003TIP3    H263501   2.255   4.476  11.840 -0.1184 -0.1806  0.6942
14004TIP3   OH263502   6.104   5.225   2.187  0.0733 -0.2024 -0.0925
14004TIP3    H163503   6.012   5.247   2.200 -0.1843  0.4679 -2.7454
14004TIP3    H263504   6.124   5.163   2.257 -2.1575  0.2415  0.9966
14005TIP3   OH263505   6.614   5.681  12.086 -0.1114 -0.3630  0.4143
14005TIP3    H163506   6.522   5.663  12.068  0.3294 -1.8244 -0.4872
14005TIP3    H263507   6.647   5.719  12.004  0.3733 -1.0202  0.2964
14006TIP3   OH263508   2.610   5.545   4.457  0.0683  0.1235  0.3679
14006TIP3    H163509   2.637   5.514   4.543 -0.0220 -0.4703  0.1821
14006TIP3    H263510   2.652   5.486   4.395  0.7096  0.9729 -0.0277
14007TIP3   OH263511   4.178   2.632  13.961  0.8330  0.3855  0.0405
14007TIP3    H163512   4.164   2.540  13.982  0.5994 -0.0001 -1.7229
14007TIP3    H263513   4.273   2.642  13.959  0.9492  1.2626  4.6286
14008TIP3   OH263514   5.141   6.666   2.123 -0.6584  0.7166 -0.2694
14008TIP3    H163515   5.128   6.584   2.077 -2.0760  0.9738 -0.3606
14008TIP3    H263516   5.059   6.680   2.171 -0.3580  1.9686 -0.0957
14009TIP3   OH263517   4.334   1.275  16.406  0.0159 -0.1174  0.1823
14009TIP3    H163518   4.389   1.200  16.382  0.8235  0.6725 -0.4908
14009TIP3    H263519   4.279   1.243  16.477  0.6143 -1.2432  0.1502
14010TIP3   OH263520   1.328   6.772   2.031  0.1952  0.6389 -0.1457
14010TIP3    H163521   1.338   6.867   2.040 -0.3144  0.8160 -1.4045
14010TIP3    H263522   1.239   6.754   2.062  0.4583  0.5043  0.5431
14011TIP3   OH263523   4.513   1.536   4.370  0.1800 -0.3205 -0.1095
14011TIP3    H163524   4.426   1.507   4.343 -0.4270 -1.3386  2.7915
14011TIP3    H263525   4.574   1.476   4.327 -0.7301 -1.5443  0.2959
14012TIP3   OH263526   6.557   2.072   4.079  0.1574 -0.1016 -0.2037
14012TIP3    H163527   6.648   2.046   4.096 -0.3507 -0.7460  1.6559
14012TIP3    H263528   6.510   2.048   4.159 -1.7231 -0.0912 -1.2803
14013TIP3   OH263529   0.413   4.314   5.882 -0.1994  0.4716 -0.5916
14013TIP3    H163530   0.490   4.357   5.919  0.8326 -1.2170 -0.7587
14013TIP3    H263531   0.348   4.318   5.952 -0.2770  2.6571 -0.7456
14014TIP3   OH263532   3.092   2.116  15.172 -0.4957  0.4404  0.7932
14014TIP3    H163533   3.144   2.167  15.110 -2.0408  1.9233  0.6574
14014TIP3    H263534   3.127   2.141  15.258 -0.1706  0.5173  0.6369
14015TIP3   OH263535   5.728   4.241   3.910  0.1848  0.0908  0.2461
14015TIP3    H163536   5.820   4.223   3.926  0.4097  1.4707  0.5881
14015TIP3    H263537   5.688   4.241   3.997 -0.0854 -0.2633  0.1216
14016TIP3   OH263538   5.655   1.546   5.532 -0.1957 -0.0851  0.2845
14016TIP3    H163539   5.583   1.603   5.560 -0.0784  0.1552  0.1011
14016TIP3    H263540   5.720   1.606   5.497 -1.0874 -0.5207 -2.1696
14017TIP3   OH263541   4.878   5.592   5.064  0.1032  0.7778 -0.2233
14017TIP3    H163542   4.957   5.642   5.042  0.3005  0.1765 -0.8894
14017TIP3    H263543   4.906   5.533   5.135  0.3353  0.3604 -0.6564
14018TIP3   OH263544   6.558   3.207   4.630  0.1662  1.0710  0.0760
14018TIP3    H163545   6.542   3.288   4.581 -0.6151  0.6507 -0.3716
14018TIP3    H263546   6.622   3.159   4.577 -0.5022  0.7227 -0.4321
14019TIP3   OH263547   4.552   5.445   4.624 -0.2528 -0.3239  0.2629
14019TIP3    H163548   4.637   5.483   4.601 -0.6582  0.8409  0.6452
14019TIP3    H263549   4.517   5.414   4.541 -0.4132  1.1793 -0.2387
14020TIP3   OH263550   2.151   5.136   6.108 -0.4575  0.7011 -1.0351
14020TIP3    H163551   2.122   5.227   6.109 -1.3302  0.4240 -0.2560
14020TIP3    H263552   2.213   5.131   6.181 -0.5943  0.6197 -0.9232
14021TIP3   OH263553   1.854   6.306   5.084 -0.7377  0.5789  0.1118
14021TIP3    H163554   1.896   6.377   5.035 -0.3807  0.5037  0.3077
14021TIP3    H263555   1.796   6.351   5.146 -1.1479  0.6743 -0.3485
14022TIP3   OH263556   4.931   0.771   0.802 -0.3241 -0.3111  0.2555
14022TIP3    H163557   4.838   0.747   0.806 -0.4612  0.2284  0.3829
14022TIP3    H263558   4.932   0.865   0.821  0.3609 -0.5548  1.4771
14023TIP3   OH263559   2.790   1.854   4.681  0.6477  0.8115 -0.0117
14023TIP3    H163560   2.770   1.775   4.630  0.4877  1.3797 -0.8435
14023TIP3    H263561   2.800   1.822   4.771 -1.2192  0.0997 -0.0255
14024TIP3   OH263562   2.424   1.932  12.984  0.3480 -0.6102  0.2313
14024TIP3    H163563   2.366   2.007  12.971  0.2497 -0.5000  1.3050
14024TIP3    H263564   2.409   1.877  12.907 -0.3369 -0.0294 -0.0569
14025TIP3   OH263565   0.181   3.996   1.836  0.1643 -0.4997  0.3450
14025TIP3    H163566   0.208   4.045   1.914 -0.8902  0.6587 -0.0005
14025TIP3    H263567   0.101   3.951   1.863 -1.1387  1.2295 -0.5367
14026TIP3   OH263568   0.344   0.276   5.125  0.4942  0.5270 -0.2682
14026TIP3    H163569   0.433   0.242   5.135  0.5290  0.4763 -0.7558
14026TIP3    H263570   0.350   0.368   5.149  0.9149  0.8118 -1.4753
14027TIP3   OH263571   2.201   2.313   1.718  0.0161 -0.0524 -0.4971
14027TIP3    H163572   2.183   2.389   1.663 -1.0322  0.2413  0.2353
14027TIP3    H263573   2.283   2.334   1.762  1.2086 -0.5732 -2.4330
14028TIP3   OH263574   2.206   1.060  16.563 -0.6152 -0.5482 -0.4214
14028TIP3    H163575   2.234   1.141  16.605 -1.2230 -0.9918  0.8889
14028TIP3    H263576   2.125   1.083  16.517 -1.3896 -0.6509  0.8672
14029TIP3   OH263577   3.198   0.671  10.525  0.5532  0.0315  0.5394
14029TIP3    H163578   3.283   0.715  10.524  0.6675 -0.1817  0.7434
14029TIP3    H263579   3.206   0.601  10.460  0.5605 -0.0328  0.6079
14030TIP3   OH263580   3.618   2.275  17.003 -0.1888 -0.4824  0.3896
14030TIP3    H163581   3.574   2.263  16.919  1.5682 -1.5770 -0.4049
14030TIP3    H263582   3.549   2.261  17.068 -1.5452  0.2595 -0.8365
14031TIP3   OH263583   2.376   5.988  12.685 -0.4664 -0.2063  0.0049
14031TIP3    H163584   2.441   5.921  12.706 -0.2149  0.2709  0.7509
14031TIP3    H263585   2.350   6.025  12.769 -0.4399  0.7890 -0.4143
14032TIP3   OH263586   5.207   6.261   3.747  0.1438  0.4514 -0.1059
14032TIP3    H163587   5.181   6.344   3.785 -0.3883  0.5512 -0.6841
14032TIP3    H263588   5.303   6.263   3.746  0.1271  1.0742 -0.1657
14033TIP3   OH263589   6.172   3.956   0.595 -0.2235 -0.1059  0.5200
14033TIP3    H163590   6.228   3.989   0.665 -0.7976  1.4579  0.2576
14033TIP3    H263591   6.090   3.933   0.638 -0.2814  0.0506  0.4927
14034TIP3   OH263592   3.597   5.464  15.955 -0.0935  0.2186 -0.4209
14034TIP3    H163593   3.597   5.545  16.007  0.6650  0.7555 -1.2481
14034TIP3    H263594   3.515   5.467  15.907 -0.5339 -0.0016  0.2973
14035TIP3   OH263595   3.218   1.650  15.790 -0.6764  0.2175 -0.5750
14035TIP3    H163596   3.130   1.632  15.757 -0.4148 -0.5618 -0.8565
14035TIP3    H263597   3.259   1.564  15.797 -0.5633  0.4072  1.3618
14036TIP3   OH263598   5.069   1.069  11.449  0.0042 -0.0066 -0.3521
14036TIP3    H163599   5.163   1.052  11.455  0.0552 -0.7189 -2.7657
14036TIP3    H263600   5.047   1.054  11.357 -2.3824  0.6575  0.0658
14037TIP3   OH263601   4.010   3.025   3.340  0.0418 -0.6507 -0.3029
14037TIP3    H163602   3.935   3.074   3.305 -0.0999 -0.2881  0.4863
14037TIP3    H263603   4.015   3.052   3.432  1.5815 -0.1457 -0.5220
14038TIP3   OH263604   5.570   0.208  14.702 -0.0612  0.2386  0.5725
14038TIP3    H163605   5.630   0.133  14.710 -3.6802 -3.2344 -2.4898
14038TIP3    H263606   5.600   0.255  14.625  1.2045  0.9701  1.5007
14039TIP3   OH263607   1.200   2.317   3.768 -0.5304  0.0325  0.6637
14039TIP3    H163608   1.153   2.293   3.688  1.7776  1.6529 -1.2266
14039TIP3    H263609   1.212   2.234   3.814  0.3501 -1.3423 -1.9308
14040TIP3   OH263610   1.658   2.787  15.251  0.4812 -0.3915 -0.4387
14040TIP3    H163611   1.649   2.728  15.326 -0.7371  0.3227  0.0004
14040TIP3    H263612   1.732   2.752  15.201  1.1502 -1.0192  0.9621
14041TIP3   OH263613   6.249   2.875  12.289  0.0375  0.0882 -0.3756
14041TIP3    H163614   6.197   2.947  12.325 -0.6570 -0.2355 -0.7069
14041TIP3    H263615   6.339   2.897  12.309 -0.2775  0.3855  0.7174
14042TIP3   OH263616   0.694   1.176  15.630 -0.3047 -0.0426 -0.0337
14042TIP3    H163617   0.656   1.257  15.663 -0.6291 -0.1927 -0.0381
14042TIP3    H263618   0.788   1.193  15.626 -0.5458  0.9416 -1.7149
14043TIP3   OH263619   5.488   3.230   4.791 -1.0180 -0.3824 -0.0687
14043TIP3    H163620   5.436   3.172   4.735 -0.4060 -0.2649 -0.7600
14043TIP3    H263621   5.509   3.176   4.867 -1.0047 -0.8625 -0.4104
14044TIP3   OH263622   3.006   4.241  10.514 -0.1019 -0.4551 -0.2268
14044TIP3    H163623   2.937   4.289  10.469 -0.9104 -0.8220  0.6243
14044TIP3    H263624   3.009   4.156  10.469 -2.4096 -1.6529  1.7904
14045TIP3   OH263625   1.832   4.455  16.787 -0.3341 -0.0926  0.1804
14045TIP3    H163626   1.852   4.363  16.806  2.1157 -0.2970 -2.9346
14045TIP3    H263627   1.796   4.454  16.698 -1.1016  1.9010  0.4424
14046TIP3   OH263628   5.381   2.654  12.858  0.4443 -0.3699  0.3634
14046TIP3    H163629   5.442   2.607  12.915  0.8319  0.1291  0.3558
14046TIP3    H263630   5.295   2.620  12.882  0.4349  1.0247  2.4155
14047TIP3   OH263631   2.197   2.345   3.727 -0.3134 -1.3533  0.4132
14047TIP3    H163632   2.114   2.362   3.682 -0.3217  0.1681  0.9782
14047TIP3    H263633   2.198   2.409   3.799  0.5790 -2.4822  1.4129
14048TIP3   OH263634   0.665   4.720  11.941  0.5131  0.4346  0.5707
14048TIP3    H163635   0.758   4.701  11.950 -0.0779 -2.8880  0.4378
14048TIP3    H263636   0.642   4.684  11.855 -1.3567 -1.0068  1.6326
14049TIP3   OH263637   3.391   5.914   2.752 -0.0766 -0.7795  0.0501
14049TIP3    H163638   3.301   5.917   2.785  0.6535  1.6260  1.9563
14049TIP3    H263639   3.445   5.921   2.831  1.7745  0.0298 -1.2715
14050TIP3   OH263640   4.923   4.214  13.780 -0.2714  0.6286 -0.0221
14050TIP3    H163641   5.012   4.241  13.802 -0.7549  2.0521  0.2663
14050TIP3    H263642   4.915   4.232  13.687  0.4113 -1.4635 -0.5012
14051TIP3   OH263643   5.743   1.013   3.266  0.3787  0.0093  0.2411
14051TIP3    H163644   5.826   1.014   3.314  0.3183 -0.3925  0.3555
14051TIP3    H263645   5.753   1.081   3.199  1.3188 -0.9462 -0.6077
14052TIP3   OH263646   6.814   6.388   0.620 -0.3776  0.6475  0.2638
14052TIP3    H163647   6.863   6.430   0.549 -1.1625 -0.9583 -1.2400
14052TIP3    H263648   6.817   6.452   0.692  0.9712  2.0111 -0.9765
14053TIP3   OH263649   2.402   2.964   3.417 -1.0142  0.2183  0.4373
14053TIP3    H163650   2.389   2.888   3.474 -1.0928 -0.0855  0.0283
14053TIP3    H263651   2.352   3.034   3.457 -1.8070 -0.2369  0.2669
14054TIP3   OH263652   3.907   1.242  14.277 -0.3167  0.7183  0.8449
14054TIP3    H163653   3.915   1.199  14.362 -0.5300 -0.9483  0.0442
14054TIP3    H263654   3.839   1.308  14.289 -1.1858 -0.3271  1.6497
14055TIP3   OH263655   0.821   0.223   5.934 -0.1674 -0.6240  0.1053
14055TIP3    H163656   0.826   0.312   5.898 -0.2909 -0.5369  0.3050
14055TIP3    H263657   0.783   0.171   5.864 -2.0229 -0.1238  0.7242
14056TIP3   OH263658   4.128   6.276  14.158 -0.2174 -0.4614  0.1739
14056TIP3    H163659   4.211   6.296  14.202 -1.2456 -0.1532  2.0097
14056TIP3    H263660   4.061   6.309  14.217 -1.6734 -0.9127 -1.1931
14057TIP3   OH263661   3.607   1.634   1.009 -0.0999 -0.0849  0.4710
14057TIP3    H163662   3.577   1.678   0.930  0.2482 -0.2886  0.2249
14057TIP3    H263663   3.665   1.565   0.978  0.8262  0.4563  0.9472
14058TIP3   OH263664   0.512   5.237  17.190  0.0602  0.9623 -0.2686
14058TIP3    H163665   0.566   5.305  17.149  0.6631 -0.7490 -2.4191
14058TIP3    H263666   0.425   5.249  17.152  0.1556  0.5607 -0.6116
14059TIP3   OH263667   1.942   0.957  10.624 -0.0018  0.0399  0.2318
14059TIP3    H163668   2.032   0.939  10.595 -0.0431 -2.3150  1.3931
14059TIP3    H263669   1.912   1.028  10.568  2.6703  1.0102 -0.0267
14060TIP3   OH263670   6.007   5.022   5.491  0.4886 -0.1531  0.7126
14060TIP3    H163671   5.937   5.040   5.428  0.0580 -3.9432  0.0006
14060TIP3    H263672   5.962   5.016   5.575  0.3214 -0.2200  0.6179
14061TIP3   OH263673   3.642   6.311  15.156 -0.2846  0.5475  0.1545
14061TIP3    H163674   3.608   6.370  15.089  0.2728  1.2280  0.4703
14061TIP3    H263675   3.689   6.367  15.217  0.7642 -0.3009  0.1359
14062TIP3   OH263676   1.535   6.643   2.167 -0.0201  0.0919 -0.3262
14062TIP3    H163677   1.474   6.692   2.112  0.1176  0.6044 -0.0350
14062TIP3    H263678   1.481   6.605   2.236 -0.3302 -1.3527 -1.3496
14063TIP3   OH263679   0.438   1.646   2.746  0.8046 -0.3107  0.4627
14063TIP3    H163680   0.483   1.703   2.808  0.4352  0.8638 -0.3207
14063TIP3    H263681   0.347   1.645   2.777  0.3808  1.1789 -0.6684
14064TIP3   OH263682   0.258   2.377   6.738 -0.1076  0.0658 -0.0869
14064TIP3    H163683   0.310   2.456   6.756  0.9161 -0.6236  0.0369
14064TIP3    H263684   0.308   2.306   6.779 -0.7342 -0.7281 -0.6853
14065TIP3   OH263685   1.217   2.318  13.242 -0.2404 -0.2651  0.1538
14065TIP3    H163686   1.211   2.273  13.157  0.9111 -0.2394  0.0400
14065TIP3    H263687   1.184   2.255  13.305  0.9157 -1.1052 -0.0663
14066TIP3   OH263688   4.744   2.279   0.701  0.4587  0.4193  0.3425
14066TIP3    H163689   4.759   2.308   0.611  1.3691  0.0147  0.3566
14066TIP3    H263690   4.701   2.194   0.692  0.9710  0.1615  0.2771
14067TIP3   OH263691   4.108   1.953  12.301 -0.2397 -0.0614  0.4324
14067TIP3    H163692   4.039   1.919  12.244 -0.5916 -2.1245  2.0299
14067TIP3    H263693   4.188   1.947  12.248 -0.7599 -0.7627 -0.2739
14068TIP3   OH263694   1.825   2.832  13.112  0.3140  0.4494  0.0309
14068TIP3    H163695   1.769   2.808  13.186  0.8008 -2.3848 -0.4408
14068TIP3    H263696   1.904   2.868  13.151  0.4253 -0.7150  0.9181
14069TIP3   OH263697   2.674   3.756   1.483  0.5257 -0.3190 -0.5695
14069TIP3    H163698   2.589   3.771   1.441 -0.2218  0.0354  1.0413
14069TIP3    H263699   2.667   3.669   1.521  1.5196 -1.0019 -1.8727
14070TIP3   OH263700   5.516   5.642   0.755  0.0886  0.5074 -0.6948
14070TIP3    H163701   5.469   5.560   0.738  0.6830 -0.2809  1.3438
14070TIP3    H263702   5.449   5.701   0.789  0.2028 -0.0364  0.4908
14071TIP3   OH263703   2.855   1.755   1.807  0.5892  0.0299  0.2258
14071TIP3    H163704   2.875   1.796   1.892 -0.4413  0.4829  0.2499
14071TIP3    H263705   2.933   1.773   1.754  1.2249 -0.2192  1.0616
14072TIP3   OH263706   2.202   3.098   6.137 -0.2959  0.0974 -0.2810
14072TIP3    H163707   2.250   3.054   6.206 -0.8944 -0.0955  0.0200
14072TIP3    H263708   2.129   3.141   6.182 -0.9884 -0.4565 -0.8552
14073TIP3   OH263709   4.103   6.775   2.477  0.5142 -0.4048  0.3984
14073TIP3    H163710   4.114   6.768   2.382 -1.0467 -1.3579  0.2731
14073TIP3    H263711   4.182   6.820   2.507  1.2873 -0.5995 -1.2864
14074TIP3   OH263712   0.992   3.991   1.278  0.4319  0.0658  0.2426
14074TIP3    H163713   0.964   3.910   1.321 -1.1046  1.3218  1.6786
14074TIP3    H263714   0.921   4.010   1.216 -0.0019  1.1855  1.0840
14075TIP3   OH263715   0.677   3.523   1.315  0.3450  0.6077 -0.0181
14075TIP3    H163716   0.639   3.460   1.375  0.4741 -0.8391 -1.4198
14075TIP3    H263717   0.602   3.564   1.272  0.2757 -1.2134 -1.7301
14076TIP3   OH263718   2.255   6.728  17.087  0.2363  0.0625  0.0534
14076TIP3    H163719   2.314   6.743  17.161  0.7734 -0.6822 -0.2156
14076TIP3    H263720   2.313   6.723  17.011 -0.1811 -0.6469 -0.2174
14077TIP3   OH263721   2.474   2.563   0.220 -0.5685  0.0467 -0.2327
14077TIP3    H163722   2.492   2.493   0.157  0.3837  1.0766 -1.1234
14077TIP3    H263723   2.380   2.555   0.239 -0.4683 -1.4675 -0.3158
14078TIP3   OH263724   1.371   2.882  11.993 -1.0445 -0.3145 -0.0679
14078TIP3    H163725   1.414   2.848  12.071 -0.2239  1.6493  0.3651
14078TIP3    H263726   1.401   2.825  11.922  0.0049 -0.7279  0.7001
14079TIP3   OH263727   5.258   1.908   3.471 -0.7118  0.3021  0.5347
14079TIP3    H163728   5.194   1.856   3.520  1.0510 -1.3857  1.0912
14079TIP3    H263729   5.297   1.846   3.410  1.1989  1.0277  0.9911
14080TIP3   OH263730   2.161   1.694  15.907  0.4008  0.5734  0.3326
14080TIP3    H163731   2.081   1.656  15.944 -1.4610  1.2798 -2.8348
14080TIP3    H263732   2.135   1.783  15.883  3.0030  1.8226  1.9701
14081TIP3   OH263733   5.947   2.867  13.378  0.2344 -0.1442  0.2461
14081TIP3    H163734   5.997   2.835  13.453 -1.2679  1.3855  1.9496
14081TIP3    H263735   6.012   2.874  13.308  2.7844  3.0867  2.7716
14082TIP3   OH263736   3.956   4.322  16.589 -0.3557  0.1173 -0.5394
14082TIP3    H163737   4.029   4.278  16.546  0.4139  1.5208 -0.7248
14082TIP3    H263738   3.991   4.351  16.673 -0.6186  0.9654 -0.7050
14083TIP3   OH263739   2.566   3.786   1.768  0.1489  0.4593  0.1193
14083TIP3    H163740   2.495   3.762   1.827  0.9564 -0.2076  0.8411
14083TIP3    H263741   2.525   3.843   1.703 -0.3611  2.9055  2.4931
14084TIP3   OH263742   2.972   2.754  16.474  0.0832 -0.3030 -0.6451
14084TIP3    H163743   3.007   2.668  16.498 -0.2567  0.5599  3.1795
14084TIP3    H263744   2.877   2.741  16.469 -0.2286  0.4089  2.6678
14085TIP3   OH263745   4.528   6.555  13.693 -0.2192 -0.1766 -0.2406
14085TIP3    H163746   4.435   6.533  13.695 -0.4445  0.8141  0.5614
14085TIP3    H263747   4.530   6.650  13.703  0.9596 -0.3736  1.5657
14086TIP3   OH263748   0.465   1.750  11.375  0.6832  0.7307  0.1192
14086TIP3    H163749   0.374   1.749  11.405  0.6036 -0.2902 -0.1656
14086TIP3    H263750   0.485   1.843  11.364 -0.5479  0.9360 -0.4896
14087TIP3   OH263751   6.177   4.854  12.884  0.3908  0.2439 -0.5376
14087TIP3    H163752   6.132   4.851  12.968  0.4228  1.2555 -0.4798
14087TIP3    H263753   6.167   4.765  12.848 -1.0226  0.2556 -0.2010
14088TIP3   OH263754   6.037   1.150  11.841  0.2973  0.0130 -0.3349
14088TIP3    H163755   6.048   1.084  11.909  0.4077  0.2043 -0.1677
14088TIP3    H263756   6.069   1.109  11.761  2.0294  0.4921  0.0995
14089TIP3   OH263757   0.117   0.557  12.501  0.1609 -0.1848 -0.5259
14089TIP3    H163758   0.173   0.520  12.570 -0.2885 -0.6281 -0.3982
14089TIP3    H263759   0.093   0.483  12.447 -0.0364  0.0607 -0.7766
14090TIP3   OH263760   0.842   6.077  13.874  0.1753 -0.1719 -0.1603
14090TIP3    H163761   0.844   6.159  13.925 -1.6562 -0.3302  0.2225
14090TIP3    H263762   0.810   6.012  13.937 -2.2536 -0.3429 -1.5140
14091TIP3   OH263763   2.033   1.398  13.837  0.0676 -0.3896 -0.6467
14091TIP3    H163764   2.072   1.476  13.797 -0.5128 -0.1388 -0.7323
14091TIP3    H263765   2.032   1.417  13.931 -0.7561  0.0150 -0.7379
14092TIP3   OH263766   0.566   3.752  12.142 -0.6566  0.1747 -0.0021
14092TIP3    H163767   0.618   3.783  12.067  1.6555  0.5849  1.7149
14092TIP3    H263768   0.510   3.683  12.106 -0.7201  1.4274 -2.4187
14093TIP3   OH263769   5.212   0.432  13.029 -0.3110 -0.5036  0.8280
14093TIP3    H163770   5.291   0.483  13.048  0.0405 -1.7004  2.5849
14093TIP3    H263771   5.158   0.492  12.977  0.9688  0.9564  1.1389
14094TIP3   OH263772   2.419   6.104  17.253 -0.4416 -0.1745  0.3983
14094TIP3    H163773   2.392   6.195  17.239 -2.1543 -0.5817  0.9593
14094TIP3    H263774   2.377   6.079  17.335 -2.2193 -2.3032 -1.0955
14095TIP3   OH263775   2.922   4.563  14.746  0.1990  0.2352 -0.0047
14095TIP3    H163776   2.940   4.544  14.838 -1.0628 -2.1385 -0.1917
14095TIP3    H263777   2.970   4.495  14.698 -2.5020 -1.1733 -0.8421
14096TIP3   OH263778   5.149   2.930  10.426 -0.2660 -0.5504 -0.2473
14096TIP3    H163779   5.129   2.958  10.516 -0.0201  0.7636 -0.5949
14096TIP3    H263780   5.090   2.982  10.371  0.2353 -0.6815 -0.9103
14097TIP3   OH263781   4.616   3.891   1.903 -0.3508 -0.4153  0.0959
14097TIP3    H163782   4.543   3.949   1.883  1.1787  1.3678 -0.4928
14097TIP3    H263783   4.575   3.813   1.940 -2.6592 -0.0870 -1.6184
14098TIP3   OH263784   4.776   1.872   4.929 -0.2602  0.1318  0.1169
14098TIP3    H163785   4.765   1.782   4.898 -1.6141  1.0036 -2.1079
14098TIP3    H263786   4.690   1.896   4.965  0.9596 -0.4584  3.5914
14099TIP3   OH263787   1.280   1.781   2.192 -0.5238  0.1315 -0.8541
14099TIP3    H163788   1.331   1.846   2.144  0.0075 -0.3706 -0.9781
14099TIP3    H263789   1.308   1.697   2.155 -0.8280 -0.1944 -0.3427
14100TIP3   OH263790   2.659   3.144  13.217  0.4400  0.1023  0.2564
14100TIP3    H163791   2.610   3.220  13.186  0.0690 -0.4174 -0.4411
14100TIP3    H263792   2.619   3.123  13.302 -2.3308 -1.9213 -1.4694
14101TIP3   OH263793   5.490   6.659   1.835  0.3380 -0.3370  0.2129
14101TIP3    H163794   5.430   6.588   1.812  0.1406 -0.5825  1.4216
14101TIP3    H263795   5.513   6.642   1.927  2.1002 -0.1381 -0.1636
14102TIP3   OH263796   6.242   0.995  14.932  0.0134 -1.0848 -0.3931
14102TIP3    H163797   6.177   1.008  14.864  0.8521 -0.4875 -1.0942
14102TIP3    H263798   6.300   0.927  14.897  0.0916 -1.2265 -0.0023
14103TIP3   OH263799   2.513   4.364  13.130 -0.5752  0.8934  1.1397
14103TIP3    H163800   2.602   4.391  13.105 -1.2299  0.9691 -1.1921
14103TIP3    H263801   2.521   4.270  13.147 -0.4497  0.4361 -1.2271
14104TIP3   OH263802   4.071   1.509  10.978  0.0206  0.1343 -0.4435
14104TIP3    H163803   4.091   1.594  10.938  0.8907 -0.0067 -0.3018
14104TIP3    H263804   4.155   1.475  11.007 -0.4034 -0.5098  0.0465
14105TIP3   OH263805   5.610   2.066  14.081  0.1531  0.2705  0.0106
14105TIP3    H163806   5.598   2.073  14.175  1.7062 -0.2139  0.2510
14105TIP3    H263807   5.704   2.061  14.068 -0.0232  0.6250 -1.5937
14106TIP3   OH263808   3.087   6.202  15.412  0.0454 -0.2787 -0.2018
14106TIP3    H163809   3.153   6.133  15.406 -0.0392 -0.4976  1.1886
14106TIP3    H263810   3.009   6.165  15.370  0.3107 -0.6443 -0.3682
14107TIP3   OH263811   2.503   5.719  11.155 -0.1651 -0.4757 -0.0093
14107TIP3    H163812   2.475   5.799  11.109 -0.4367 -0.3685  0.3361
14107TIP3    H263813   2.555   5.752  11.228  0.4598 -0.6566 -0.3725
14108TIP3   OH263814   3.734   5.776  14.253 -0.2963  0.2877  0.3469
14108TIP3    H163815   3.764   5.716  14.185 -1.3679 -0.2026  0.3022
14108TIP3    H263816   3.765   5.737  14.335 -0.2827  0.1063  0.2561
14109TIP3   OH263817   0.038   6.453   4.947  0.1846  0.4936  0.2574
14109TIP3    H163818   0.104   6.492   4.890 -1.2595  0.3081 -1.6007
14109TIP3    H263819  -0.030   6.422   4.887 -0.8707 -0.7000  2.0187
14110TIP3   OH263820   0.489   6.501   4.254  0.2903 -0.4294  0.4705
14110TIP3    H163821   0.431   6.429   4.279 -0.9781  0.1301 -0.7714
14110TIP3    H263822   0.549   6.463   4.190 -0.0783 -0.5018  0.1654
14111TIP3   OH263823   3.589   4.828   3.471  0.9077 -0.1247  0.8100
14111TIP3    H163824   3.597   4.858   3.562 -1.2194  0.5121  0.8225
14111TIP3    H263825   3.656   4.760   3.462  1.9077  0.6044  2.5140
14112TIP3   OH263826   1.776   0.309  16.644 -0.5700 -0.1183  0.0575
14112TIP3    H163827   1.701   0.358  16.610  0.6778  2.0567  0.3086
14112TIP3    H263828   1.789   0.344  16.732  1.5838  0.5443 -0.5003
14113TIP3   OH263829   2.563   3.809   4.225 -0.0362 -0.0136  0.4754
14113TIP3    H163830   2.601   3.813   4.313  0.0928 -1.4289  0.4915
14113TIP3    H263831   2.616   3.745   4.178 -0.2059  0.6135 -0.5993
14114TIP3   OH263832   5.919   0.425  17.188  0.1005 -0.4471 -0.1593
14114TIP3    H163833   6.013   0.432  17.172  0.0477  0.2267 -0.1736
14114TIP3    H263834   5.911   0.359  17.257  0.6769  0.5019  0.8343
14115TIP3   OH263835   3.858   5.990   3.987  0.2240 -0.1487 -0.1720
14115TIP3    H163836   3.891   6.044   3.915 -1.8114  0.6637 -0.5134
14115TIP3    H263837   3.820   5.914   3.944 -1.3688  0.5363  0.0097
14116TIP3   OH263838   5.463   3.971  12.789  0.3504 -0.0500 -0.1625
14116TIP3    H163839   5.455   3.967  12.884  1.2305  0.5676 -0.0554
14116TIP3    H263840   5.536   4.031  12.773 -0.5942  0.8482 -1.2556
14117TIP3   OH263841   3.755   0.761   1.057 -0.0477  0.0382  0.3510
14117TIP3    H163842   3.807   0.795   0.985  1.2430 -1.4890  0.5384
14117TIP3    H263843   3.693   0.831   1.077  1.7602  1.8054 -0.0537
14118TIP3   OH263844   4.437   2.918   2.435  0.2689  0.0458  0.3893
14118TIP3    H163845   4.348   2.952   2.425 -0.0617 -0.5613  1.1693
14118TIP3    H263846   4.492   2.997   2.444 -0.0915  0.4391 -0.7730
14119TIP3   OH263847   0.541   3.025  14.471  0.7865 -0.0858  0.1166
14119TIP3    H163848   0.632   3.025  14.443  0.7147  0.0466 -0.1213
14119TIP3    H263849   0.537   2.961  14.542  1.1857  0.3673  0.5378
14120TIP3   OH263850   5.804   1.009  15.221 -0.1173  0.6425  0.5815
14120TIP3    H163851   5.730   0.983  15.167  1.6879  1.5459 -2.4390
14120TIP3    H263852   5.799   0.951  15.297 -2.3301 -1.1505 -0.8572
14121TIP3   OH263853   5.268   1.674   2.593 -0.4025  0.4736 -0.4496
14121TIP3    H163854   5.290   1.731   2.519 -2.3849  0.7411 -0.8629
14121TIP3    H263855   5.233   1.733   2.660 -0.3482  0.0049  0.0003
14122TIP3   OH263856   2.604   0.190   2.354  0.3126  0.2840 -0.5964
14122TIP3    H163857   2.601   0.138   2.273  0.8480  2.1336 -1.8241
14122TIP3    H263858   2.695   0.217   2.361  0.4682 -0.6449  1.1583
14123TIP3   OH263859   2.620   3.585   1.075  0.3593  0.6389 -0.2199
14123TIP3    H163860   2.594   3.674   1.098  0.1883  0.4198  0.4374
14123TIP3    H263861   2.691   3.564   1.137 -1.5051 -0.7181  1.5076
14124TIP3   OH263862   4.458   2.306   0.105 -0.7068 -0.3560 -0.1856
14124TIP3    H163863   4.415   2.389   0.123 -0.6588 -0.4737  0.4792
14124TIP3    H263864   4.552   2.326   0.109 -0.6955 -0.3429 -0.4960
14125TIP3   OH263865   0.041   2.911   2.297 -0.5448 -0.1712 -0.5446
14125TIP3    H163866   0.115   2.966   2.270 -0.6160 -0.8978 -2.2667
14125TIP3    H263867  -0.026   2.973   2.327 -0.0476  0.5964 -1.0133
14126TIP3   OH263868   6.007   5.085  11.779 -0.2706  0.2657  0.2990
14126TIP3    H163869   6.083   5.130  11.817  0.5602 -1.2165  0.4234
14126TIP3    H263870   5.931   5.130  11.817  0.5232  2.1737 -0.2991
14127TIP3   OH263871   2.091   4.435  14.733  0.1786 -0.8262  0.1931
14127TIP3    H163872   2.154   4.389  14.678  0.1799 -0.4400 -0.1282
14127TIP3    H263873   2.132   4.438  14.820 -0.4443 -2.7278  0.5869
14128TIP3   OH263874   1.940   4.033   0.415  0.6771 -0.5736 -0.0644
14128TIP3    H163875   2.011   4.093   0.436 -0.3418  0.6186 -0.0014
14128TIP3    H263876   1.966   3.993   0.332  0.2571  1.6871 -1.3113
14129TIP3   OH263877   0.346   2.748  14.896 -0.0254 -0.3312 -0.5448
14129TIP3    H163878   0.311   2.737  14.808 -0.3429  3.5610 -1.0275
14129TIP3    H263879   0.419   2.809  14.885 -0.8252  1.1672  1.9802
14130TIP3   OH263880   6.532   2.816  16.678 -0.7122  0.0572 -0.0665
14130TIP3    H163881   6.506   2.841  16.767 -4.2725 -0.3602 -0.8878
14130TIP3    H263882   6.626   2.833  16.675 -0.5096  0.1633  3.7377
14131TIP3   OH263883   2.666   4.235  15.553  0.4083 -0.0311 -0.6521
14131TIP3    H163884   2.628   4.288  15.622  0.6571  0.5561 -0.9597
14131TIP3    H263885   2.699   4.157  15.597 -0.8690 -0.3943 -0.3462
14132TIP3   OH263886   0.410   2.637  14.085  0.1213 -0.2976 -0.3752
14132TIP3    H163887   0.333   2.612  14.136  0.1731  1.2869  0.5269
14132TIP3    H263888   0.469   2.562  14.092 -1.4316 -1.6408 -1.3046
14133TIP3   OH263889   0.719   2.345  14.631  0.9661 -0.7706 -0.1284
14133TIP3    H163890   0.640   2.340  14.577  0.7986 -0.9946  0.1327
14133TIP3    H263891   0.783   2.289  14.587  1.0117 -0.5108 -0.3943
14134TIP3   OH263892   6.048   5.682   6.194  0.1203  0.4316  0.0640
14134TIP3    H163893   6.008   5.665   6.108 -0.8543 -0.1908  0.6275
14134TIP3    H263894   6.119   5.743   6.176  1.0717 -1.0800 -1.4402
14135TIP3   OH263895   1.641   3.315   3.689 -0.0395  0.5753 -0.3428
14135TIP3    H163896   1.579   3.273   3.748 -1.7366  0.1590 -2.3842
14135TIP3    H263897   1.609   3.405   3.679  0.8289  0.9491  0.1684
14136TIP3   OH263898   0.375   0.976  11.408 -0.1319 -0.1576  0.5542
14136TIP3    H163899   0.434   0.991  11.334  1.3129  2.1624  2.0976
14136TIP3    H263900   0.332   0.893  11.388  2.2329 -0.9433 -1.5624
14137TIP3   OH263901   2.651   1.906   4.266  0.3438  0.3032 -0.0728
14137TIP3    H163902   2.734   1.916   4.219  0.2156 -1.0774 -0.6489
14137TIP3    H263903   2.611   1.992   4.264  0.2045  0.2137 -2.8232
14138TIP3   OH263904   1.726   5.017  12.217  0.5652  0.0243  0.7300
14138TIP3    H163905   1.704   5.110  12.222 -1.9295 -0.4222 -1.3060
14138TIP3    H263906   1.651   4.973  12.257 -0.1066 -1.2919 -1.9226
14139TIP3   OH263907   2.474   5.137   2.286 -0.2222 -0.5202  0.1334
14139TIP3    H163908   2.563   5.171   2.272 -1.0743  1.0510 -1.6689
14139TIP3    H263909   2.418   5.214   2.284 -1.6402 -1.4901  1.3866
14140TIP3   OH263910   5.639   5.487   2.086 -0.4786 -0.0489 -0.2162
14140TIP3    H163911   5.640   5.541   2.165 -0.7781  0.2516 -0.4189
14140TIP3    H263912   5.548   5.485   2.059 -0.3172  0.2005 -0.7938
14141TIP3   OH263913   0.206   6.251  16.867  0.1291  0.4782 -0.1226
14141TIP3    H163914   0.266   6.209  16.805  0.7680 -0.1597  0.9126
14141TIP3    H263915   0.212   6.198  16.946 -1.6583  0.5337  0.0738
14142TIP3   OH263916   3.886   5.663  12.519  0.4305 -0.1303  0.4047
14142TIP3    H163917   3.926   5.725  12.457  0.2540  0.8053  1.2096
14142TIP3    H263918   3.925   5.685  12.604 -1.2758  0.3449  1.0791
14143TIP3   OH263919   1.055   6.634  12.903  0.1293 -0.0773  1.1109
14143TIP3    H163920   0.973   6.593  12.878 -0.3126  2.6606 -2.3914
14143TIP3    H263921   1.031   6.695  12.973 -0.3797 -0.9075  1.6670
14144TIP3   OH263922   3.683   1.053  14.188  0.9962 -0.0011  0.0123
14144TIP3    H163923   3.668   1.055  14.094  1.4753  1.8740 -0.0422
14144TIP3    H263924   3.759   1.110  14.202 -0.4678  1.6423  1.7644
14145TIP3   OH263925   2.162   5.422  15.208 -0.6151 -0.0955 -0.1288
14145TIP3    H163926   2.099   5.351  15.215  0.4437 -0.9647  0.8168
14145TIP3    H263927   2.198   5.430  15.297  1.7582 -0.6996 -1.0101
14146TIP3   OH263928   2.384   1.155  13.360  0.2102  0.2769 -0.0175
14146TIP3    H163929   2.330   1.077  13.369  0.5421  0.0045 -0.3769
14146TIP3    H263930   2.425   1.146  13.274  0.9721  0.3878  0.3333
14147TIP3   OH263931   3.727   2.853   3.884 -0.5635  0.2681 -0.3705
14147TIP3    H163932   3.821   2.860   3.900 -0.4994  0.5395 -0.8590
14147TIP3    H263933   3.705   2.932   3.833 -0.4883 -1.3234 -2.9361
14148TIP3   OH263934   3.173   5.901  12.780  0.0426 -0.2908 -0.7371
14148TIP3    H163935   3.141   5.815  12.754  1.0158 -0.6208 -0.8893
14148TIP3    H263936   3.223   5.884  12.861  1.2117 -0.0573 -1.3974
14149TIP3   OH263937   3.495   3.099   0.379  0.2752  0.4861  0.2626
14149TIP3    H163938   3.446   3.018   0.389  2.2471 -0.7819 -0.0810
14149TIP3    H263939   3.465   3.154   0.452  1.5906 -1.9400  2.7312
14150TIP3   OH263940   5.945   6.727  12.584 -0.2069 -0.2097  0.7823
14150TIP3    H163941   5.954   6.782  12.661 -0.3954  0.4374  0.3431
14150TIP3    H263942   5.867   6.760  12.539 -0.8039 -1.3559  0.9418
14151TIP3   OH263943   5.208   5.377  14.839 -0.0302  0.1065  0.3345
14151TIP3    H163944   5.216   5.379  14.743  0.0907 -0.3679  0.3346
14151TIP3    H263945   5.220   5.285  14.862 -2.6975 -0.2036  0.5844
14152TIP3   OH263946   2.029   4.982   0.205  0.0588  0.5812 -0.9273
14152TIP3    H163947   2.032   5.076   0.190 -1.4001  0.5926 -1.2471
14152TIP3    H263948   2.056   4.944   0.121  0.2883  0.7135 -0.9131
14153TIP3   OH263949   3.017   4.972  11.857  0.0642 -0.3751  0.1858
14153TIP3    H163950   2.936   4.923  11.869 -1.3473  1.8832  0.3308
14153TIP3    H263951   3.072   4.947  11.931 -0.5025 -1.9073  0.1044
14154TIP3   OH263952   1.827   0.237   1.179  0.9071  0.0631 -0.3911
14154TIP3    H163953   1.786   0.276   1.257 -0.1207  0.9425 -1.3538
14154TIP3    H263954   1.874   0.309   1.138 -0.1465  0.0810 -1.6173
14155TIP3   OH263955   1.479   2.959  14.769  0.3539  0.0274 -0.8007
14155TIP3    H163956   1.572   2.964  14.793  0.2937  2.5002 -0.9790
14155TIP3    H263957   1.445   2.887  14.822  2.3874 -1.0050 -0.8224
14156TIP3   OH263958   2.287   1.343   2.396  0.1279  0.4699  0.0470
14156TIP3    H163959   2.284   1.438   2.404  0.7239  0.3607  1.8040
14156TIP3    H263960   2.367   1.318   2.442 -0.5565 -0.9624  0.4890
14157TIP3   OH263961   5.376   3.320   3.415 -0.0884  0.5105 -0.1343
14157TIP3    H163962   5.413   3.286   3.333 -3.2281 -0.2873 -1.3088
14157TIP3    H263963   5.374   3.415   3.404 -0.3924  0.4106 -0.9159
14158TIP3   OH263964   2.453   0.291  12.593 -0.2105  0.9632  0.5383
14158TIP3    H163965   2.392   0.361  12.615 -0.1900  0.3477  2.6566
14158TIP3    H263966   2.539   0.325  12.617 -0.0424  0.7612  0.2222
14159TIP3   OH263967   1.992   5.482   3.730 -0.5443  0.2070  0.2189
14159TIP3    H163968   2.053   5.414   3.756 -0.6373 -0.7354 -1.9043
14159TIP3    H263969   1.915   5.468   3.786 -0.1015 -0.6704  0.6117
14160TIP3   OH263970   6.357   3.811  14.692 -0.4300  0.2652 -0.2228
14160TIP3    H163971   6.285   3.831  14.632 -0.3738  1.8804  0.2394
14160TIP3    H263972   6.323   3.833  14.779  0.2789  0.0793  0.1061
14161TIP3   OH263973   1.305   0.499   1.952  0.0788  0.2042  0.5542
14161TIP3    H163974   1.251   0.553   1.894 -0.5069  0.9321  1.7532
14161TIP3    H263975   1.383   0.553   1.969  0.0026  0.2133  0.8694
14162TIP3   OH263976   6.160   2.726   4.327 -0.6560 -0.8073 -0.4054
14162TIP3    H163977   6.126   2.705   4.240  0.4554 -0.3902 -0.9525
14162TIP3    H263978   6.093   2.782   4.366 -0.1324  0.8968 -1.8745
14163TIP3   OH263979   4.828   1.733  17.087 -0.5366  0.3879 -0.0730
14163TIP3    H163980   4.755   1.780  17.128 -0.1260  1.4709 -0.5528
14163TIP3    H263981   4.829   1.766  16.997  0.3934  0.1902 -0.1310
14164TIP3   OH263982   5.715   5.938   5.182  0.4540 -0.3891 -0.2524
14164TIP3    H163983   5.667   5.952   5.101  0.6654 -2.6216 -0.7806
14164TIP3    H263984   5.701   5.846   5.204  1.8532 -0.2718  1.2943
14165TIP3   OH263985   2.870   6.709  12.174 -0.4706 -0.2918 -0.3334
14165TIP3    H163986   2.862   6.742  12.085 -0.0649  0.3119 -0.1543
14165TIP3    H263987   2.952   6.748  12.206 -0.5078 -0.6709  0.2273
14166TIP3   OH263988   4.008   6.172   3.109 -0.5992 -0.2563 -0.3234
14166TIP3    H163989   4.012   6.267   3.116 -1.1240 -0.3603  2.0760
14166TIP3    H263990   3.965   6.155   3.026 -1.3220  1.6343 -0.3527
14167TIP3   OH263991   5.295   0.503  11.101  0.5453 -0.3022 -0.1630
14167TIP3    H163992   5.223   0.440  11.096 -0.5863  0.9042  0.7567
14167TIP3    H263993   5.298   0.530  11.193 -0.8736  3.1409 -1.0486
14168TIP3   OH263994   3.348   0.416   0.515  0.2917  0.0783  0.5689
14168TIP3    H163995   3.290   0.490   0.532  0.2488  0.0261  0.6480
14168TIP3    H263996   3.306   0.369   0.443  0.4080  0.2275  0.4034
14169TIP3   OH263997   3.540   0.720  13.285 -0.2386  0.2340  0.1664
14169TIP3    H163998   3.616   0.662  13.276  1.2604  2.3603 -1.3641
14169TIP3    H263999   3.495   0.712  13.201 -2.0824 -1.4445  1.2661
14170TIP3   OH264000   5.880   2.896   2.756 -0.2433 -0.1970 -0.0468
14170TIP3    H164001   5.876   2.847   2.674  1.2391  0.2347 -0.3910
14170TIP3    H264002   5.813   2.855   2.812 -0.3483 -1.3520 -0.9978
14171TIP3   OH264003   1.793   0.217  13.270  0.2554 -0.1881  0.3333
14171TIP3    H164004   1.805   0.140  13.215 -2.0613  1.1225 -2.1226
14171TIP3    H264005   1.782   0.182  13.358 -1.9667 -2.7812 -0.9104
14172TIP3   OH264006   2.650   5.240  16.074 -0.3359 -0.4253 -0.2699
14172TIP3    H164007   2.670   5.303  16.005 -0.6988 -0.6941 -0.6174
14172TIP3    H264008   2.647   5.292  16.154  2.3532 -0.4435 -0.1010
14173TIP3   OH264009   5.445   3.261  14.762  0.3451 -0.0363  0.3993
14173TIP3    H164010   5.409   3.254  14.850  0.8349  0.9377  0.6864
14173TIP3    H264011   5.378   3.310  14.713 -0.4181 -1.5232 -0.0625
14174TIP3   OH264012   0.949   5.476  15.821 -0.2144 -0.5454 -0.3608
14174TIP3    H164013   0.977   5.464  15.730  0.1673 -0.6046 -0.2334
14174TIP3    H264014   0.918   5.389  15.847  0.2635 -0.6762 -0.2307
14175TIP3   OH264015   6.572   3.483   0.555  0.0443 -0.3308  0.5151
14175TIP3    H164016   6.563   3.388   0.553  0.5715 -0.4172  1.6475
14175TIP3    H264017   6.630   3.504   0.482  2.0617 -1.1442  1.8509
14176TIP3   OH264018   2.457   3.763   0.453  0.7813 -0.1035 -0.3703
14176TIP3    H164019   2.527   3.719   0.501 -0.4940 -0.1421  1.4832
14176TIP3    H264020   2.405   3.691   0.416 -0.4290 -0.1881  1.4062
14177TIP3   OH264021   2.378   1.856  13.572  0.8227  0.3892 -0.5494
14177TIP3    H164022   2.453   1.911  13.596  1.2281  0.3190 -1.6091
14177TIP3    H264023   2.410   1.766  13.583  0.4663  0.3552  0.2606
14178TIP3   OH264024   2.009   0.566  14.087  0.3292 -0.6695  0.6678
14178TIP3    H164025   2.054   0.589  14.006 -0.5190  0.9785  0.6458
14178TIP3    H264026   1.920   0.601  14.077  0.7108  1.0914  2.9954
14179TIP3   OH264027   3.711   5.231  11.356 -0.0803 -0.4873 -0.3284
14179TIP3    H164028   3.754   5.291  11.295 -0.7700  1.3224  0.9659
14179TIP3    H264029   3.784   5.186  11.400  0.4292 -1.9143 -2.5228
14180TIP3   OH264030   5.714   6.367   5.591  1.2796 -0.4894  0.0176
14180TIP3    H164031   5.754   6.406   5.669 -0.7530  0.0571  0.8043
14180TIP3    H264032   5.767   6.289   5.574  2.8179  0.3319  0.8934
14181TIP3   OH264033   6.601   3.431  11.076 -0.0378 -0.7545 -0.3896
14181TIP3    H164034   6.559   3.443  10.991 -2.5855  0.8909  1.0507
14181TIP3    H264035   6.647   3.513  11.092 -2.1490  0.1979  1.1469
14182TIP3   OH264036   2.252   0.524  12.008  0.1081 -0.4942 -0.7028
14182TIP3    H164037   2.199   0.497  12.084 -0.8862 -0.3225 -1.3274
14182TIP3    H264038   2.259   0.445  11.954  2.1305 -1.0452  0.2994
14183TIP3   OH264039   5.332   3.194  11.011 -0.4308 -0.1608  0.0598
14183TIP3    H164040   5.369   3.240  11.086 -1.4991  0.0067  0.4835
14183TIP3    H264041   5.264   3.252  10.978  2.1734  1.2796 -3.0502
14184TIP3   OH264042   2.812   2.899  16.103  0.9897 -0.6320 -0.1001
14184TIP3    H164043   2.908   2.898  16.095  0.9648  0.1250 -0.5402
14184TIP3    H264044   2.784   2.972  16.048  0.3181  0.5094  1.7127
14185TIP3   OH264045   6.341   2.236   0.273  0.2464  0.0346 -0.6395
14185TIP3    H164046   6.398   2.215   0.199 -0.9021  0.6089 -1.7292
14185TIP3    H264047   6.266   2.177   0.263 -1.0247  1.7070 -1.3166
14186TIP3   OH264048   2.499   0.924   1.773  0.1891 -0.1554  0.0230
14186TIP3    H164049   2.407   0.911   1.747 -0.0665  0.5695  0.5475
14186TIP3    H264050   2.543   0.946   1.691 -0.4038  1.0099  0.0063
14187TIP3   OH264051   2.124   0.765   4.834  0.3203  0.4221 -0.2115
14187TIP3    H164052   2.095   0.675   4.851 -2.7842  0.8844 -2.5069
14187TIP3    H264053   2.071   0.819   4.893  2.4505  0.7752  1.4365
14188TIP3   OH264054   0.535   4.120   1.214 -0.1335  0.0134 -0.2442
14188TIP3    H164055   0.533   4.185   1.145  1.1339  0.5541  0.2119
14188TIP3    H264056   0.476   4.154   1.281 -0.6034 -0.0281 -0.6392
14189TIP3   OH264057   4.035   4.864  16.861 -0.5449 -0.2227 -0.1481
14189TIP3    H164058   3.984   4.856  16.780  0.8643  2.6128 -1.3662
14189TIP3    H264059   4.101   4.930  16.842  0.1973  0.0823  3.1449
14190TIP3   OH264060   0.477   1.633  16.611  0.4369  0.2653 -0.3067
14190TIP3    H164061   0.433   1.659  16.692  2.2181  1.3647  0.3417
14190TIP3    H264062   0.453   1.541  16.599 -1.5717  0.6799  0.3053
14191TIP3   OH264063   0.875   1.738  11.484 -0.4648 -0.0659  0.4134
14191TIP3    H164064   0.961   1.764  11.450  0.0433 -0.8373  1.0902
14191TIP3    H264065   0.819   1.734  11.406 -1.0059  4.5986  0.4552
14192TIP3   OH264066   0.626   4.146  16.651  0.4673 -0.4174 -0.1425
14192TIP3    H164067   0.705   4.097  16.628  0.4522 -0.3463 -0.3525
14192TIP3    H264068   0.656   4.236  16.662  0.8323 -0.7920  2.1538
14193TIP3   OH264069   0.895   4.880   0.775 -0.0566 -0.2079 -0.6020
14193TIP3    H164070   0.957   4.933   0.825 -0.8975  0.6272 -0.4404
14193TIP3    H264071   0.811   4.924   0.785 -0.6523 -1.2193 -0.9854
14194TIP3   OH264072   3.172   5.842  11.964  0.3843  0.4987 -0.1386
14194TIP3    H164073   3.238   5.901  12.002 -0.9185  0.2850  2.5275
14194TIP3    H264074   3.100   5.900  11.940  0.2427  0.3305 -0.1151
14195TIP3   OH264075   0.023   6.172  12.413 -0.4419 -0.4471 -0.3458
14195TIP3    H164076   0.108   6.175  12.457 -0.1588  1.0581 -0.9586
14195TIP3    H264077  -0.040   6.156  12.484  0.2596 -0.6465  0.2365
14196TIP3   OH264078   0.202   1.807   6.463 -0.0122  0.1862  0.1630
14196TIP3    H164079   0.127   1.756   6.431 -1.1178  1.9344 -0.0799
14196TIP3    H264080   0.277   1.769   6.417 -0.7535 -1.4507  0.2538
14197TIP3   OH264081   4.115   4.089  13.310  0.4167  0.6240  0.9544
14197TIP3    H164082   4.181   4.044  13.258 -2.0824 -1.7951 -0.2406
14197TIP3    H264083   4.113   4.041  13.393 -0.9180 -0.3482  0.3850
14198TIP3   OH264084   0.122   6.273   3.495 -0.2868  0.0350  0.0594
14198TIP3    H164085   0.216   6.280   3.481 -0.5983  1.3381 -1.6116
14198TIP3    H264086   0.098   6.357   3.535 -1.0699  0.6975 -1.7262
14199TIP3   OH264087   0.960   3.008   0.834 -0.4278 -0.1491 -0.0671
14199TIP3    H164088   0.870   3.031   0.809 -0.4084  0.0981  0.1008
14199TIP3    H264089   0.999   3.090   0.862 -0.4705 -0.4415  0.8666
14200TIP3   OH264090   2.736   2.564  16.677  0.3690 -0.1271 -0.3700
14200TIP3    H164091   2.720   2.541  16.769  2.0894  1.1858  0.3033
14200TIP3    H264092   2.822   2.526  16.658  1.1598  1.7091 -0.6376
14201TIP3   OH264093   5.592   6.050   2.939  0.2128  0.1330  0.4480
14201TIP3    H164094   5.598   6.041   3.034  1.4239 -0.4094  0.3349
14201TIP3    H264095   5.619   6.139   2.921  0.1812  0.1722  0.5950
14202TIP3   OH264096   5.052   3.723   3.022 -0.2826  0.4485 -0.6858
14202TIP3    H164097   4.976   3.768   3.058  0.0106  0.0164  0.4874
14202TIP3    H264098   5.126   3.780   3.046 -0.0452 -0.0286 -0.2954
14203TIP3   OH264099   2.293   2.681  12.880 -0.1268 -0.6277 -0.1844
14203TIP3    H164100   2.296   2.645  12.969  1.1194  0.3238  0.1798
14203TIP3    H264101   2.283   2.776  12.893 -0.1447 -0.5058 -1.0564
14204TIP3   OH264102   6.162   6.712  14.088 -0.1247  0.8125  0.2268
14204TIP3    H164103   6.183   6.725  13.995  0.1422  1.4750  0.3770
14204TIP3    H264104   6.068   6.693  14.089  0.1770 -0.7682 -0.3197
14205TIP3   OH264105   1.642   6.485  12.255  0.1447 -0.4385 -0.3907
14205TIP3    H164106   1.632   6.580  12.246 -2.4059 -0.6806 -0.3444
14205TIP3    H264107   1.598   6.449  12.178 -0.2081 -1.6270  0.3585
14206TIP3   OH264108   3.542   3.695   2.916 -0.2805  0.7897  0.3498
14206TIP3    H164109   3.477   3.632   2.887  0.2628 -0.0650  0.9731
14206TIP3    H264110   3.513   3.779   2.880 -0.5825  0.0528 -1.1295
14207TIP3   OH264111   1.126   2.804   4.180 -0.2031  0.6356 -0.6107
14207TIP3    H164112   1.217   2.784   4.199 -0.7138  0.4614  1.8259
14207TIP3    H264113   1.093   2.725   4.137  0.0045 -0.5557  1.3537
14208TIP3   OH264114   5.680   1.815   2.299  0.4941  0.1329 -0.0332
14208TIP3    H164115   5.708   1.785   2.385  2.1086  1.9477  0.0942
14208TIP3    H264116   5.743   1.776   2.238 -0.7645 -1.3177 -0.4518
14209TIP3   OH264117   5.422   2.059  15.239 -0.3232  0.3619 -0.3141
14209TIP3    H164118   5.364   2.129  15.210 -0.8881  0.0453  0.0523
14209TIP3    H264119   5.462   2.091  15.319 -0.6723  0.2124 -0.0829
14210TIP3   OH264120   5.256   6.718  13.159  0.1098 -0.0769 -0.4960
14210TIP3    H164121   5.245   6.721  13.064 -0.4617 -2.9563 -0.5696
14210TIP3    H264122   5.333   6.663  13.173  1.3713  1.9441  0.6701
14211TIP3   OH264123   5.611   1.917  15.655  0.2189  0.5198 -0.7903
14211TIP3    H164124   5.637   2.006  15.680 -1.4751  0.7559  0.2357
14211TIP3    H264125   5.566   1.883  15.732 -1.5656 -0.2280 -2.1175
14212TIP3   OH264126   3.064   4.103  11.702  0.0772  0.2980  0.1831
14212TIP3    H164127   2.990   4.116  11.761 -0.6236 -0.3957 -0.5207
14212TIP3    H264128   3.129   4.167  11.730 -0.9867  1.2668  0.4844
14213TIP3   OH264129   2.546   1.625  11.148 -0.6585 -0.4831  0.7730
14213TIP3    H164130   2.617   1.562  11.139  0.0469 -0.2844  4.3326
14213TIP3    H264131   2.579   1.703  11.103 -0.5828 -1.8381 -1.6165
14214TIP3   OH264132   3.433   0.829   3.904 -0.0274 -0.1744  0.4703
14214TIP3    H164133   3.390   0.815   3.989 -1.2601 -1.1944 -0.3015
14214TIP3    H264134   3.435   0.924   3.893 -3.8715 -0.0819 -0.3143
14215TIP3   OH264135   1.201   5.101  14.864 -0.9490  0.4082 -0.1172
14215TIP3    H164136   1.221   5.057  14.947  1.6050 -1.3820 -1.6110
14215TIP3    H264137   1.212   5.194  14.883  1.1098 -0.0648  1.1570
14216TIP3   OH264138   6.613   2.136  11.543  0.2441 -0.0125 -0.3474
14216TIP3    H164139   6.583   2.107  11.456  0.7641 -1.0414 -0.1982
14216TIP3    H264140   6.660   2.060  11.578 -0.0148  0.3761  0.8637
14217TIP3   OH264141   3.701   1.652  11.518  0.1536  0.4265  0.3298
14217TIP3    H164142   3.674   1.571  11.474  0.1968  0.8462 -0.4941
14217TIP3    H264143   3.655   1.652  11.601 -1.8219  0.7781 -0.7387
14218TIP3   OH264144   2.071   6.677  12.498 -0.2106 -0.0595  0.1838
14218TIP3    H164145   2.161   6.651  12.480 -1.0858 -0.3034 -4.3438
14218TIP3    H264146   2.079   6.764  12.537  1.9957 -0.0689 -0.1868
14219TIP3   OH264147   4.331   2.904   1.609  0.1771  0.1005 -0.5068
14219TIP3    H164148   4.400   2.897   1.675 -1.0902  0.3115  0.8411
14219TIP3    H264149   4.251   2.880   1.655 -0.8697  1.2351 -1.7171
14220TIP3   OH264150   1.563   3.368  16.170  0.1306 -0.7086  0.4846
14220TIP3    H164151   1.531   3.423  16.242 -1.7628  0.7254 -1.3584
14220TIP3    H264152   1.534   3.280  16.193 -2.5272  0.0870  0.4093
14221TIP3   OH264153   5.089   6.405  11.848  0.1709  0.3086 -0.3896
14221TIP3    H164154   5.039   6.477  11.886  1.1397  1.3894 -1.1306
14221TIP3    H264155   5.149   6.447  11.786  2.2243 -0.9150  0.7067
14222TIP3   OH264156   1.206   6.121   5.555  0.5949 -0.6227  0.2790
14222TIP3    H164157   1.248   6.153   5.635  0.1365  0.3710  0.1299
14222TIP3    H264158   1.136   6.063   5.587  0.1998  0.0293  0.6145
14223TIP3   OH264159   0.865   6.005  14.957 -0.1342  0.2728  0.3624
14223TIP3    H164160   0.794   6.050  14.912 -1.0047  0.5231  1.9310
14223TIP3    H264161   0.870   6.048  15.043  1.2348 -0.4173  0.6448
14224TIP3   OH264162   1.870   5.277   5.511  0.1106  0.6038  0.5935
14224TIP3    H164163   1.928   5.350   5.490 -1.9087  1.6822 -1.4953
14224TIP3    H264164   1.908   5.202   5.465 -0.6473  1.5295 -1.6144
14225TIP3   OH264165   3.908   5.864   4.491 -0.5093  0.5466 -1.1988
14225TIP3    H164166   3.943   5.786   4.446 -1.1190 -0.8729  0.7361
14225TIP3    H264167   3.857   5.909   4.424 -0.6491 -1.0433 -2.1986
14226TIP3   OH264168   6.732   3.717  14.461  0.2333 -0.0137  0.1007
14226TIP3    H164169   6.699   3.774  14.531  0.8331  1.3383 -0.6948
14226TIP3    H264170   6.743   3.632  14.503 -1.8391  0.1309  1.0180
14227TIP3   OH264171   3.535   2.837   1.826 -0.5891  0.0386 -0.3369
14227TIP3    H164172   3.456   2.865   1.781 -0.8110  3.9232  2.2061
14227TIP3    H264173   3.504   2.790   1.904 -0.3129 -1.3703 -1.0651
14228TIP3   OH264174   6.384   3.396   1.618  0.6884 -0.4418  0.1730
14228TIP3    H164175   6.344   3.312   1.641  1.3469 -0.8090 -0.0201
14228TIP3    H264176   6.322   3.435   1.557 -0.2124 -0.2413  1.1893
14229TIP3   OH264177   2.442   4.255  16.198 -0.0991 -0.2104 -0.2550
14229TIP3    H164178   2.513   4.318  16.186 -0.6290  0.2869 -0.8807
14229TIP3    H264179   2.456   4.218  16.285 -0.3979  1.5987  0.5915
14230TIP3   OH264180   3.955   6.026  10.809 -0.0799 -0.2151 -0.0381
14230TIP3    H164181   3.978   5.934  10.796  2.2580  0.5084 -1.4170
14230TIP3    H264182   3.931   6.057  10.721 -2.1942  0.1893  0.6466
14231TIP3   OH264183   0.380   1.270  13.214  0.1128 -0.4717  0.0821
14231TIP3    H164184   0.297   1.286  13.260 -0.5515 -0.4617 -1.0983
14231TIP3    H264185   0.424   1.355  13.215  0.0594 -0.4486  0.6134
14232TIP3   OH264186   5.857   5.026  15.782 -0.2556 -0.0185 -0.3735
14232TIP3    H164187   5.945   5.009  15.817  0.2660  1.5379 -0.8957
14232TIP3    H264188   5.829   4.941  15.747  0.9185 -0.6008  0.0657
14233TIP3   OH264189   6.544   0.884  14.601  0.4018 -0.8629 -0.6498
14233TIP3    H164190   6.635   0.880  14.572  1.2457  0.3766  1.7147
14233TIP3    H264191   6.502   0.811  14.556  2.3085 -0.8284 -2.5984
14234TIP3   OH264192   3.562   0.603   1.799 -0.5749  0.1765 -0.2582
14234TIP3    H164193   3.641   0.594   1.747 -0.1893  0.9677  0.1749
14234TIP3    H264194   3.554   0.698   1.814 -0.7065 -0.0325  1.0683
14235TIP3   OH264195   4.939   1.894  12.672 -0.0754  0.0073  0.0444
14235TIP3    H164196   4.974   1.813  12.635 -0.3421 -1.4533  2.8601
14235TIP3    H264197   5.007   1.924  12.732 -0.9800  0.5755  0.7973
14236TIP3   OH264198   2.666   5.617   3.657 -0.5872 -0.0074 -0.0255
14236TIP3    H164199   2.753   5.634   3.623 -0.8924  0.2928 -0.6602
14236TIP3    H264200   2.671   5.641   3.750  0.8856 -2.9379  0.7443
14237TIP3   OH264201   1.386   0.420   2.242 -0.3261  0.0692  0.5535
14237TIP3    H164202   1.444   0.430   2.167  0.2181  0.4556  1.0204
14237TIP3    H264203   1.424   0.347   2.291  0.2795  0.8753  1.3150
14238TIP3   OH264204   5.761   2.606   0.799 -0.6513 -0.0689 -0.1414
14238TIP3    H164205   5.811   2.539   0.752 -1.1364 -0.9289  0.5573
14238TIP3    H264206   5.705   2.557   0.859 -0.2009  1.0170  1.1895
14239TIP3   OH264207   5.696   6.139   2.608 -0.5047  0.2390  0.0949
14239TIP3    H164208   5.701   6.043   2.603 -0.0259  0.2301  0.6804
14239TIP3    H264209   5.607   6.156   2.640 -0.6334  0.0014 -0.1209
14240TIP3   OH264210   2.917   2.725   2.978  0.5026  0.4602  0.5438
14240TIP3    H164211   2.833   2.720   3.022 -0.6337 -0.4783 -1.6766
14240TIP3    H264212   2.963   2.645   3.004  0.0578  0.1727  0.4463
14241TIP3   OH264213   3.428   4.599   5.920  0.2048 -1.1123 -0.3918
14241TIP3    H164214   3.337   4.576   5.900  0.7606 -1.2413 -2.8992
14241TIP3    H264215   3.440   4.571   6.011 -1.7900 -2.5464 -0.5312
14242TIP3   OH264216   2.048   2.625   2.268  0.0958  0.1819  0.3856
14242TIP3    H164217   2.140   2.638   2.244 -0.1094  1.9975  0.5107
14242TIP3    H264218   2.051   2.563   2.341  1.3808  1.6899  1.6642
14243TIP3   OH264219   0.462   4.216   1.584 -0.2850  0.5780  0.5994
14243TIP3    H164220   0.548   4.193   1.551 -0.7565  1.4792 -1.3098
14243TIP3    H264221   0.478   4.249   1.673  1.1198 -0.7885  0.8570
14244TIP3   OH264222   0.481   2.928  11.248 -0.5387  0.0053  1.0545
14244TIP3    H164223   0.544   2.905  11.179  0.7738 -3.6978  3.3159
14244TIP3    H264224   0.399   2.888  11.219 -0.2621 -0.5831  1.0643
14245TIP3   OH264225   4.676   0.701  14.170  0.4181  0.6138 -0.0382
14245TIP3    H164226   4.595   0.699  14.222  0.3047  2.4673 -0.0869
14245TIP3    H264227   4.649   0.740  14.087  1.1549  0.2359 -0.4568
14246TIP3   OH264228   4.487   3.814   0.434 -0.8210 -0.2293  0.4718
14246TIP3    H164229   4.456   3.905   0.435 -1.8711 -0.4546 -3.0918
14246TIP3    H264230   4.577   3.820   0.402 -0.9181 -0.4376  0.1592
14247TIP3   OH264231   2.009   6.482  13.011  0.2910  0.0457 -0.7626
14247TIP3    H164232   1.985   6.568  13.045 -0.3889 -0.2352 -0.5102
14247TIP3    H264233   2.032   6.497  12.920  1.2880  0.6750 -0.4116
14248TIP3   OH264234   2.854   1.397   1.428  0.7880  0.4193  0.0699
14248TIP3    H164235   2.842   1.304   1.448  2.9831 -0.3142 -1.7293
14248TIP3    H264236   2.892   1.435   1.507  3.5582 -1.0981 -0.4652
14249TIP3   OH264237   5.555   3.721   1.078  0.3011  0.0917 -0.5053
14249TIP3    H164238   5.630   3.744   1.132 -0.8531 -0.5075  1.4241
14249TIP3    H264239   5.480   3.760   1.124 -0.7132 -0.4872 -1.6418
14250TIP3   OH264240   3.998   3.678  11.435  0.1474  0.1399  0.1275
14250TIP3    H164241   4.065   3.740  11.466  0.6972 -0.2405 -0.3012
14250TIP3    H264242   3.956   3.647  11.515  0.2243  0.6648  0.3779
14251TIP3   OH264243   2.478   4.331   3.976  0.9162 -0.1393 -0.3477
14251TIP3    H164244   2.446   4.243   3.993  0.2832 -0.0473 -1.0329
14251TIP3    H264245   2.518   4.327   3.889  1.9433 -0.0290  0.1154
14252TIP3   OH264246   2.145   0.295   4.159 -0.7497 -0.7009  0.2040
14252TIP3    H164247   2.190   0.210   4.156  0.1045 -0.2202 -0.7399
14252TIP3    H264248   2.088   0.289   4.235 -0.4594 -2.0137  0.3310
14253TIP3   OH264249   1.989   3.993   4.966  0.0010 -0.2053 -0.9088
14253TIP3    H164250   2.017   3.931   4.899  0.7566  0.3526 -1.1101
14253TIP3    H264251   1.940   3.939   5.029  0.6014 -0.9999 -1.1077
14254TIP3   OH264252   1.675   3.478  11.244 -0.5754 -0.0725 -0.1764
14254TIP3    H164253   1.626   3.440  11.316 -1.1737 -0.0006 -0.5411
14254TIP3    H264254   1.657   3.421  11.169 -0.6523  0.3399 -0.4765
14255TIP3   OH264255   1.183   2.012  14.299 -0.2999 -0.4702  0.1475
14255TIP3    H164256   1.136   2.095  14.299 -2.6168 -1.7131 -1.3108
14255TIP3    H264257   1.211   1.999  14.390  0.0118  1.8433  0.3935
14256TIP3   OH264258   2.186   5.149  15.804  0.4305 -0.0208  0.0473
14256TIP3    H164259   2.096   5.167  15.776  0.2449 -0.4854  0.3425
14256TIP3    H264260   2.237   5.152  15.723 -0.2139 -2.0615 -0.4805
14257TIP3   OH264261   0.494   5.527  11.275  0.2727 -0.7041  0.1032
14257TIP3    H164262   0.413   5.477  11.264  1.4742 -2.2521 -2.4852
14257TIP3    H264263   0.504   5.575  11.193  1.6462 -0.0755  0.6153
14258TIP3   OH264264   1.339   5.205   0.683  0.3275  0.2465 -0.1972
14258TIP3    H164265   1.270   5.202   0.617  0.0117 -0.1585  0.1503
14258TIP3    H264266   1.383   5.288   0.667 -0.8467  0.9592  0.1797
14259TIP3   OH264267   5.794   6.791   1.896  0.4526  0.3215 -0.0713
14259TIP3    H164268   5.815   6.883   1.879 -1.8001  0.5902 -1.6443
14259TIP3    H264269   5.700   6.791   1.913  0.6478 -1.5447  1.1723
14260TIP3   OH264270   2.535   6.469  15.409 -0.4945  0.1677  0.0607
14260TIP3    H164271   2.447   6.476  15.447 -1.4643  1.1196 -2.2478
14260TIP3    H264272   2.547   6.375  15.393 -1.2577  0.0639  0.0602
14261TIP3   OH264273   5.443   3.130  16.230 -0.2144  0.1010  0.3772
14261TIP3    H164274   5.482   3.051  16.191  2.1612  0.6839  1.4360
14261TIP3    H264275   5.430   3.106  16.322  0.5343  0.9205  0.7048
14262TIP3   OH264276   3.785   2.450  15.882  0.6914  0.2220  0.3498
14262TIP3    H164277   3.748   2.442  15.794  0.0370  1.7684  0.4568
14262TIP3    H264278   3.876   2.475  15.867  1.4510 -2.5359  0.0972
14263TIP3   OH264279   2.262   4.112  12.037  0.4894  0.1977 -0.1579
14263TIP3    H164280   2.352   4.127  12.065  0.9725 -1.3353 -0.8481
14263TIP3    H264281   2.239   4.027  12.072 -1.1033  1.0652  0.9768
14264TIP3   OH264282   3.516   6.220   6.305 -0.0630  0.0478 -0.2980
14264TIP3    H164283   3.465   6.174   6.239 -0.1258  0.7073 -0.7188
14264TIP3    H264284   3.468   6.302   6.320 -0.4448 -0.4255  1.1111
14265TIP3   OH264285   1.832   3.197   2.797  0.0237 -0.1355  0.6482
14265TIP3    H164286   1.776   3.128   2.831  1.7926 -1.3957  1.0767
14265TIP3    H264287   1.783   3.234   2.723 -0.3709 -2.7457 -0.4618
14266TIP3   OH264288   0.086   4.825  11.868 -0.0654  0.1871 -0.1630
14266TIP3    H164289  -0.004   4.858  11.865  0.7655  2.6461  0.8329
14266TIP3    H264290   0.132   4.874  11.801  0.9668  0.3102  0.6266
14267TIP3   OH264291   6.501   6.611   2.353  0.5678 -0.0453 -0.2361
14267TIP3    H164292   6.408   6.629   2.340  0.0923 -0.9119  1.7034
14267TIP3    H264293   6.544   6.696   2.342 -0.7398  0.8252  1.1889
14268TIP3   OH264294   6.340   2.318  10.826  1.1048  0.1815 -0.6895
14268TIP3    H164295   6.433   2.315  10.803  1.2662 -1.8346  0.1296
14268TIP3    H264296   6.335   2.380  10.899  2.0472 -0.8188  0.2398
14269TIP3   OH264297   0.403   1.252  17.028 -0.2462  0.3575 -0.4196
14269TIP3    H164298   0.486   1.265  17.075  0.2632 -2.1214 -0.5580
14269TIP3    H264299   0.421   1.181  16.967 -3.1088 -1.9044  1.2243
14270TIP3   OH264300   5.047   6.536   4.904 -0.1956  0.3064 -0.0353
14270TIP3    H164301   5.017   6.591   4.977 -0.2247 -1.1788  1.0895
14270TIP3    H264302   4.966   6.505   4.863 -0.1780  0.9273 -0.5507
14271TIP3   OH264303   4.723   6.031  14.955 -0.1006 -0.5603 -0.1803
14271TIP3    H164304   4.713   5.991  14.869 -0.1373  2.3478 -1.5928
14271TIP3    H264305   4.666   5.979  15.012 -0.5433 -2.1588 -1.9992
14272TIP3   OH264306   2.511   0.272  13.018 -1.1800  0.8458 -0.4434
14272TIP3    H164307   2.583   0.265  13.081 -0.2600 -0.1501 -1.5703
14272TIP3    H264308   2.473   0.358  13.034  0.0167  1.2180  0.4358
14273TIP3   OH264309   6.590   4.953   0.916  0.0750  0.0525  0.1268
14273TIP3    H164310   6.512   4.907   0.886  0.2914  0.2889 -0.7962
14273TIP3    H264311   6.634   4.890   0.974 -0.5335 -0.2657  0.2461
14274TIP3   OH264312   4.966   5.268   0.638  0.4589 -0.0164 -0.8343
14274TIP3    H164313   5.053   5.230   0.628 -0.3468 -1.3775 -2.9951
14274TIP3    H264314   4.972   5.353   0.594  1.2744  0.8639  0.9244
14275TIP3   OH264315   1.433   5.144  15.635 -0.4050  0.3198  0.8506
14275TIP3    H164316   1.455   5.127  15.727 -0.0892 -0.3169  0.6597
14275TIP3    H264317   1.338   5.136  15.632 -0.2662 -1.3714  0.7766
14276TIP3   OH264318   2.909   0.600   5.391  0.9940 -0.1901  0.2155
14276TIP3    H164319   2.850   0.534   5.355  1.4159 -0.9631  0.9308
14276TIP3    H264320   2.903   0.673   5.330  0.4341 -0.8431 -0.5206
14277TIP3   OH264321   5.730   0.247  11.356  0.1002  0.4032 -0.2929
14277TIP3    H164322   5.640   0.276  11.344 -0.2199 -0.0983  0.8561
14277TIP3    H264323   5.744   0.182  11.287 -1.0388 -0.9269  0.7133
14278TIP3   OH264324   5.815   2.967  15.670 -0.5511  0.5279 -0.6888
14278TIP3    H164325   5.885   3.031  15.672  0.2276 -0.3182 -0.6056
14278TIP3    H264326   5.779   2.967  15.759 -0.6142  0.9062 -0.7139
14279TIP3   OH264327   2.582   6.745   2.497  0.0137 -0.2739  0.3696
14279TIP3    H164328   2.562   6.752   2.591  1.4077  0.8526  0.6071
14279TIP3    H264329   2.593   6.836   2.468 -0.9876 -0.5847 -1.0220
14280TIP3   OH264330   6.788   6.363  17.047 -0.3450  0.1551  0.2067
14280TIP3    H164331   6.768   6.441  16.996  2.3474 -0.7068 -2.2971
14280TIP3    H264332   6.759   6.289  16.993  0.6299 -0.7047  0.8197
14281TIP3   OH264333   2.421   6.735  15.838  0.7107  0.0309  0.2458
14281TIP3    H164334   2.465   6.818  15.818 -0.7817  0.4406 -1.4372
14281TIP3    H264335   2.462   6.671  15.780  0.1103  0.1232 -0.2886
14282TIP3   OH264336   5.959   1.855   4.394  0.0229  0.7695  0.5218
14282TIP3    H164337   5.959   1.900   4.479 -0.3664  0.2370  0.8027
14282TIP3    H264338   5.934   1.765   4.414  4.0928 -0.4794  0.4320
14283TIP3   OH264339   5.082   6.432   0.575  0.4752  0.0204 -0.0524
14283TIP3    H164340   5.143   6.446   0.647  0.0039  0.1365  0.3285
14283TIP3    H264341   5.138   6.411   0.500  0.8954 -1.4842  0.6655
14284TIP3   OH264342   4.473   4.923   5.128  0.3847 -0.7351  0.8897
14284TIP3    H164343   4.500   4.995   5.071 -1.0284 -1.3900 -0.6659
14284TIP3    H264344   4.441   4.966   5.207 -0.4693  0.3746 -0.0310
14285TIP3   OH264345   2.058   3.742   1.637  0.3750  0.1824  0.5656
14285TIP3    H164346   1.999   3.742   1.712  0.3687 -1.0472  0.5733
14285TIP3    H264347   2.000   3.739   1.561  0.4050 -0.5321  0.5633
14286TIP3   OH264348   3.136   6.359   5.324 -0.1970  0.5585  0.0051
14286TIP3    H164349   3.202   6.337   5.389 -0.0848  0.4474 -0.1443
14286TIP3    H264350   3.109   6.448   5.345 -0.3466  0.4279  0.3575
14287TIP3   OH264351   1.802   3.205   0.063 -0.7962 -0.2713 -0.6857
14287TIP3    H164352   1.834   3.115   0.060 -1.1955 -0.3942 -1.3985
14287TIP3    H264353   1.864   3.251   0.120 -0.2192 -0.8448 -0.8479
14288TIP3   OH264354   6.270   3.662  13.280 -0.1893  0.3924 -0.0075
14288TIP3    H164355   6.223   3.745  13.288  0.5799  0.7896  0.5739
14288TIP3    H264356   6.281   3.649  13.186 -2.3269 -0.2186 -0.1892
14289TIP3   OH264357   5.672   1.621   1.394  0.0039 -0.2073  0.4827
14289TIP3    H164358   5.733   1.548   1.381 -0.1972  0.0516 -2.2380
14289TIP3    H264359   5.593   1.594   1.348 -0.8768  0.7631  1.3994
14290TIP3   OH264360   0.389   4.105   5.733 -0.1506 -0.2329  0.3379
14290TIP3    H164361   0.401   4.034   5.796 -0.9743 -0.7785 -0.0998
14290TIP3    H264362   0.402   4.185   5.783 -0.0333 -0.6799  1.0247
14291TIP3   OH264363   5.150   0.052  14.833 -0.3174 -0.5398 -0.2631
14291TIP3    H164364   5.075   0.013  14.789  1.1354 -4.1476  0.3202
14291TIP3    H264365   5.226   0.007  14.796  1.4657  1.6133  0.6106
14292TIP3   OH264366   6.675   4.503   3.428  0.3468  0.3510  0.5481
14292TIP3    H164367   6.695   4.509   3.522  2.8529 -0.0264  0.0706
14292TIP3    H264368   6.604   4.439   3.423  0.9393 -0.4646  2.1026
14293TIP3   OH264369   5.493   4.620  11.318 -0.5232  0.2103 -0.2104
14293TIP3    H164370   5.504   4.654  11.229 -1.2209 -0.2402 -0.4704
14293TIP3    H264371   5.583   4.612  11.351 -0.2383 -0.0304 -1.0303
14294TIP3   OH264372   2.734   3.861  14.583 -0.1739  0.1319  0.0236
14294TIP3    H164373   2.810   3.802  14.589  0.8645  1.3295 -1.0362
14294TIP3    H264374   2.705   3.854  14.492 -0.3034  0.9296 -0.0031
14295TIP3   OH264375   5.834   2.854  14.520 -0.0134  0.3944  0.0872
14295TIP3    H164376   5.875   2.939  14.539  2.7011 -0.9549  0.6243
14295TIP3    H264377   5.901   2.807  14.470 -1.6704 -1.2666 -0.5957
14296TIP3   OH264378   3.126   5.511  14.765  0.6487 -0.5661  0.5059
14296TIP3    H164379   3.130   5.538  14.857 -0.9989 -0.3116  0.5292
14296TIP3    H264380   3.064   5.572  14.725 -0.1127 -1.8629 -0.3377
14297TIP3   OH264381   5.085   0.608   2.603 -0.1633  0.0517  0.2570
14297TIP3    H164382   5.014   0.548   2.627  2.2084 -2.5954  0.9209
14297TIP3    H264383   5.155   0.551   2.571  2.1197  2.4857  0.7360
14298TIP3   OH264384   0.308   5.925   3.437 -0.3242 -0.3404  0.3598
14298TIP3    H164385   0.341   5.845   3.478  0.0843 -0.2621  0.1885
14298TIP3    H264386   0.216   5.906   3.417 -0.4347 -0.4975  1.0030
14299TIP3   OH264387   2.988   2.006   4.527  0.5231  0.0841  0.2689
14299TIP3    H164388   3.055   1.938   4.515 -0.3767 -0.9878  1.2175
14299TIP3    H264389   2.926   1.967   4.589 -2.6426 -0.1477 -2.8995
14300TIP3   OH264390   4.946   2.498  10.891  0.5996 -0.1084  0.2634
14300TIP3    H164391   5.024   2.442  10.899  1.0844  0.2043 -1.8474
14300TIP3    H264392   4.891   2.454  10.826  0.6525  1.4555 -0.8780
14301TIP3   OH264393   1.719   2.840  12.861  0.2138  0.0911  0.0133
14301TIP3    H164394   1.694   2.926  12.827 -1.5614  0.3421  1.8676
14301TIP3    H264395   1.750   2.858  12.949 -0.4235 -1.2066  0.5071
14302TIP3   OH264396   0.714   2.015  15.033 -0.3357 -0.4261 -0.2571
14302TIP3    H164397   0.799   2.004  15.076 -0.9070  1.3210  1.3929
14302TIP3    H264398   0.717   2.104  14.998 -1.8642  0.0297  0.7251
14303TIP3   OH264399   2.004   6.504   1.741 -0.5937  0.0901  0.2914
14303TIP3    H164400   1.963   6.587   1.717  1.4387  0.3305 -2.5905
14303TIP3    H264401   1.998   6.451   1.662 -0.5787 -2.0221  1.6645
14304TIP3   OH264402   5.072   4.101  15.679  0.2444 -0.0115 -0.3476
14304TIP3    H164403   4.989   4.058  15.698 -0.1455 -0.2157 -2.4187
14304TIP3    H264404   5.132   4.030  15.659  0.5567  0.2115 -0.2134
14305TIP3   OH264405   0.357   5.640  16.847 -0.3423  0.2674  0.6246
14305TIP3    H164406   0.272   5.621  16.885 -1.0139 -0.6183 -1.3243
14305TIP3    H264407   0.354   5.734  16.827 -0.2164  0.6054  2.0950
14306TIP3   OH264408   5.383   3.601   3.862  0.3075  0.3899  0.2314
14306TIP3    H164409   5.335   3.671   3.906 -3.4651  0.3441 -3.5185
14306TIP3    H264410   5.324   3.569   3.794  2.7948 -4.9048  0.2344
14307TIP3   OH264411   1.274   3.235  13.369 -0.1006  0.2754  0.1215
14307TIP3    H164412   1.292   3.199  13.456 -2.5078 -0.6299  0.2696
14307TIP3    H264413   1.259   3.329  13.385  0.8330  0.3745  0.4698
14308TIP3   OH264414   5.871   3.282   5.021  0.2138  0.5383  0.2293
14308TIP3    H164415   5.824   3.261   5.102  0.2245 -0.0217  0.0938
14308TIP3    H264416   5.806   3.328   4.968 -0.3101 -0.5621 -0.1088
14309TIP3   OH264417   0.082   4.200  16.899  0.2548  0.0072  0.4542
14309TIP3    H164418   0.100   4.115  16.859 -0.1883 -0.2109  0.7179
14309TIP3    H264419  -0.008   4.220  16.875  1.3681  1.9685 -2.4248
14310TIP3   OH264420   5.552   0.424   2.209 -0.2861 -0.1951  0.6971
14310TIP3    H164421   5.466   0.451   2.176  0.4304  0.7524 -0.4710
14310TIP3    H264422   5.554   0.457   2.298 -2.0572 -2.3357  1.5751
14311TIP3   OH264423   5.383   4.408  12.372 -0.0668  0.1043 -0.3090
14311TIP3    H164424   5.401   4.469  12.443  0.1682  0.5993 -0.7877
14311TIP3    H264425   5.360   4.464  12.298  1.4743 -0.3165 -1.1411
14312TIP3   OH264426   5.972   3.992   3.315  0.8542 -0.4932 -0.0830
14312TIP3    H164427   6.011   4.051   3.378  0.7139  1.8186 -2.0906
14312TIP3    H264428   6.039   3.979   3.248  0.3784 -1.4576 -0.3909
14313TIP3   OH264429   3.238   1.082   3.687 -0.2043 -0.0768  0.0902
14313TIP3    H164430   3.274   1.098   3.600 -0.9742 -0.7996 -0.3718
14313TIP3    H264431   3.314   1.074   3.744  0.3376 -0.5042 -0.6839
14314TIP3   OH264432   5.274   5.570  12.139  0.4499  0.8437 -0.0489
14314TIP3    H164433   5.342   5.625  12.099  1.0986 -0.7197 -1.1383
14314TIP3    H264434   5.320   5.490  12.164 -1.4975 -1.5431 -3.5653
14315TIP3   OH264435   3.440   2.422  14.255  0.4862 -0.2788 -0.5487
14315TIP3    H164436   3.506   2.462  14.312  0.0676 -0.6863  0.2228
14315TIP3    H264437   3.479   2.339  14.227 -0.9549 -2.0257  2.4411
14316TIP3   OH264438   6.536   1.526   1.969  0.4783 -0.6447  0.0281
14316TIP3    H164439   6.471   1.494   2.031 -0.5916  1.3102 -0.0465
14316TIP3    H264440   6.619   1.527   2.018 -0.1964  0.0816  1.1768
14317TIP3   OH264441   4.801   5.107  15.333 -0.3577 -0.0118 -0.2771
14317TIP3    H164442   4.779   5.023  15.292  1.8060 -0.3746 -0.7581
14317TIP3    H264443   4.817   5.086  15.424 -3.2497  0.4816  0.3964
14318TIP3   OH264444   4.674   2.842  13.535  0.5174 -0.2932 -0.0661
14318TIP3    H164445   4.602   2.787  13.565 -0.4699 -0.4983 -2.6295
14318TIP3    H264446   4.752   2.787  13.544  0.3726 -0.0918  2.6585
14319TIP3   OH264447   3.561   3.575  11.570 -0.1142 -0.0314  0.4127
14319TIP3    H164448   3.585   3.666  11.585  2.6246 -0.3697 -1.5373
14319TIP3    H264449   3.510   3.576  11.489 -1.2842 -0.0816  1.1400
14320TIP3   OH264450   4.790   6.697  12.292 -0.3310  0.5128 -0.1015
14320TIP3    H164451   4.826   6.782  12.269 -0.3482  0.1820 -1.3623
14320TIP3    H264452   4.796   6.694  12.388  1.6748  1.0313 -0.1945
14321TIP3   OH264453   2.885   0.559  15.715 -0.0153 -0.1520 -0.0387
14321TIP3    H164454   2.802   0.591  15.680  0.8217  1.6738 -0.4502
14321TIP3    H264455   2.916   0.496  15.650  0.6225  1.8155 -1.6857
14322TIP3   OH264456   1.035   1.064  14.478 -0.2056  0.1288 -0.0325
14322TIP3    H164457   1.015   1.156  14.493  0.9023  0.6853 -1.8021
14322TIP3    H264458   1.080   1.062  14.394  0.3373 -1.9616  0.2589
14323TIP3   OH264459   2.838   4.311  15.891 -0.0961 -0.5764  0.1733
14323TIP3    H164460   2.763   4.314  15.832  0.2306  1.1811 -0.1796
14323TIP3    H264461   2.899   4.249  15.850 -1.2356 -1.8232  0.3439
14324TIP3   OH264462   5.501   5.373   6.184  0.1680  0.0806 -0.0217
14324TIP3    H164463   5.552   5.454   6.185  1.0699 -0.4844 -0.1355
14324TIP3    H264464   5.566   5.303   6.195 -0.3750 -0.7639 -1.9832
14325TIP3   OH264465   0.712   5.314  16.557  0.1383  0.0505 -0.0520
14325TIP3    H164466   0.662   5.348  16.632 -0.5857 -0.2360 -0.3971
14325TIP3    H264467   0.645   5.294  16.491  0.8114  0.7361 -0.9509
14326TIP3   OH264468   6.115   0.515   4.774 -0.1405  0.8512  0.1898
14326TIP3    H164469   6.136   0.448   4.839  0.0582 -0.1911 -0.9289
14326TIP3    H264470   6.034   0.485   4.734 -0.0113  1.2418 -0.3679
14327TIP3   OH264471   1.827   6.072  12.097  0.4432  0.2100 -0.0166
14327TIP3    H164472   1.908   6.085  12.047  0.2834  0.1617 -0.2918
14327TIP3    H264473   1.817   5.977  12.102 -0.0666  0.2249 -0.7555
14328TIP3   OH264474   1.308   4.762   4.719 -0.1305  0.0017  0.2710
14328TIP3    H164475   1.241   4.803   4.664  0.2446 -0.5650 -0.6139
14328TIP3    H264476   1.283   4.669   4.721 -0.2868  0.0534  1.2759
14329TIP3   OH264477   2.776   1.125   4.897 -0.2378  0.0474  0.6558
14329TIP3    H164478   2.732   1.166   4.823  0.3957  0.2097  0.3643
14329TIP3    H264479   2.869   1.130   4.875 -0.0250  0.3952  1.6080
14330TIP3   OH264480   0.669   6.016  16.546 -0.0350  0.2453 -0.2965
14330TIP3    H164481   0.683   6.111  16.545  0.6592  0.1477 -0.1597
14330TIP3    H264482   0.600   6.001  16.482 -2.3714  1.1856  1.9047
14331TIP3   OH264483   4.669   1.373   4.209 -0.5912 -0.7340  0.1517
14331TIP3    H164484   4.761   1.394   4.190 -0.4883 -2.4756 -1.4966
14331TIP3    H264485   4.622   1.398   4.130 -1.4223 -0.6074  0.6800
14332TIP3   OH264486   2.716   0.161  16.854  0.1631  0.7694 -0.4201
14332TIP3    H164487   2.750   0.205  16.931 -0.7704  0.1923  0.3316
14332TIP3    H264488   2.785   0.100  16.828 -0.2304 -0.2819  0.9929
14333TIP3   OH264489   6.052   6.614   1.392 -0.1175  0.6927  0.2578
14333TIP3    H164490   6.129   6.567   1.424  0.5677 -0.6050 -3.0068
14333TIP3    H264491   6.088   6.688   1.343 -0.9216  0.2766 -0.9920
14334TIP3   OH264492   0.993   0.242   1.151  0.2797 -0.0977  0.0162
14334TIP3    H164493   0.954   0.176   1.208  2.2075 -1.4515 -0.1895
14334TIP3    H264494   0.937   0.243   1.073 -0.7444 -0.2514  0.7515
14335TIP3   OH264495   4.466   5.695   1.465 -0.1660  0.0713  0.3323
14335TIP3    H164496   4.380   5.712   1.503  0.3239  0.3715  1.3337
14335TIP3    H264497   4.447   5.655   1.380 -1.2854 -0.2485  0.7196
14336TIP3   OH264498   0.210   3.028  12.184 -0.0987  0.3190  0.3047
14336TIP3    H164499   0.272   3.094  12.213  1.3058 -0.3529 -1.0549
14336TIP3    H264500   0.246   2.945  12.216 -2.2348  0.2597  2.6391
14337TIP3   OH264501   1.541   2.149  16.053 -0.1250 -0.7880 -0.5157
14337TIP3    H164502   1.559   2.113  15.966 -0.0182 -1.7036 -0.1120
14337TIP3    H264503   1.491   2.081  16.098  1.3407 -1.0652  0.7532
14338TIP3   OH264504   4.222   6.535   2.319  0.2086 -0.7460  0.1036
14338TIP3    H164505   4.271   6.453   2.327  0.5806 -0.4091  1.3036
14338TIP3    H264506   4.151   6.514   2.258  0.7375 -1.7537 -0.1774
14339TIP3   OH264507   3.968   6.533   0.838 -0.4150  0.3883 -0.6434
14339TIP3    H164508   4.033   6.587   0.883 -0.4785 -0.0973  0.0502
14339TIP3    H264509   3.909   6.503   0.908 -1.2511  0.6392 -1.2324
14340TIP3   OH264510   1.955   0.708   1.407  0.4734  0.7437 -0.0655
14340TIP3    H164511   2.038   0.723   1.360  0.3785 -1.8514 -1.1575
14340TIP3    H264512   1.890   0.699   1.337 -0.7663  2.7805  0.7885
14341TIP3   OH264513   3.529   2.684   5.313  0.1447  0.2352  0.0493
14341TIP3    H164514   3.573   2.748   5.368 -0.2727 -0.0230  0.6881
14341TIP3    H264515   3.600   2.640   5.265  0.3117  2.5348 -1.9115
14342TIP3   OH264516   0.075   3.831   5.200  0.4473  0.3834  0.2785
14342TIP3    H164517   0.019   3.771   5.150 -1.4303  2.6565 -0.4420
14342TIP3    H264518   0.162   3.819   5.163 -0.2147 -0.6820 -1.0019
14343TIP3   OH264519   2.476   5.973   2.382 -0.4735 -0.0390  0.0409
14343TIP3    H164520   2.551   5.961   2.324 -1.9045 -0.3728 -1.7872
14343TIP3    H264521   2.512   5.963   2.471  1.8448  1.0171 -0.7556
14344TIP3   OH264522   0.320   6.151   4.049 -0.6473 -0.4293  0.2648
14344TIP3    H164523   0.272   6.080   4.091 -1.6207 -0.3113 -0.6261
14344TIP3    H264524   0.303   6.139   3.955 -0.5266  0.7749  0.0836
14345TIP3   OH264525   3.401   4.817  15.275 -0.4239  0.4194  0.3414
14345TIP3    H164526   3.394   4.895  15.219 -0.4335 -0.1358 -0.4477
14345TIP3    H264527   3.360   4.748  15.223 -0.2270 -0.1524  0.9511
14346TIP3   OH264528   5.312   1.180  12.805 -0.1842  0.2925  0.1756
14346TIP3    H164529   5.402   1.182  12.838 -0.4598  0.8648  0.9001
14346TIP3    H264530   5.314   1.236  12.727  0.1451  0.1006  0.0474
14347TIP3   OH264531   0.974   3.784  15.279  0.2005 -0.0778  0.4498
14347TIP3    H164532   0.933   3.702  15.252  0.6142  0.0125 -0.4876
14347TIP3    H264533   0.936   3.803  15.365  0.0243 -1.1927  0.6322
14348TIP3   OH264534   4.875   0.862   1.944  0.4857  0.5331  0.2572
14348TIP3    H164535   4.924   0.888   2.022  2.6592  1.2850 -1.3102
14348TIP3    H264536   4.901   0.771   1.929  0.9643  0.7422 -0.2195
14349TIP3   OH264537   0.836   3.061  12.845  0.3828  0.0084 -0.8487
14349TIP3    H164538   0.883   2.979  12.861  0.1356  0.1359  0.5949
14349TIP3    H264539   0.900   3.129  12.865 -0.5361  0.1878  1.6015
14350TIP3   OH264540   5.154   0.292   4.944  0.5167 -0.2433 -0.0325
14350TIP3    H164541   5.149   0.239   4.865 -0.8263  0.0966 -0.1982
14350TIP3    H264542   5.153   0.229   5.016 -2.4034 -0.4449 -0.1870
14351TIP3   OH264543   0.632   5.626  11.777  0.2350 -0.1042 -0.4910
14351TIP3    H164544   0.599   5.558  11.835  0.4513 -0.9246 -1.3160
14351TIP3    H264545   0.723   5.601  11.760  0.4977  0.7170 -0.3287
14352TIP3   OH264546   6.786   4.609  13.408  0.3209  0.2621  0.3363
14352TIP3    H164547   6.702   4.568  13.431  0.3945  0.9391  1.9110
14352TIP3    H264548   6.772   4.702  13.424  1.2863  0.4149  0.3268
14353TIP3   OH264549   2.691   1.646   6.470 -0.0088 -0.1021 -0.1779
14353TIP3    H164550   2.621   1.690   6.422  0.1402  0.5047  0.1589
14353TIP3    H264551   2.647   1.589   6.532 -0.2008  0.1426 -0.0929
14354TIP3   OH264552   0.759   2.499  12.684  0.0713  0.4673  0.9654
14354TIP3    H164553   0.724   2.500  12.772 -0.1488 -0.1444  0.8864
14354TIP3    H264554   0.809   2.418  12.678 -2.3270 -0.9530 -0.3985
14355TIP3   OH264555   5.081   2.166  11.729 -0.1451 -0.7677 -0.3153
14355TIP3    H164556   5.059   2.092  11.785 -1.0549 -0.3706 -0.1306
14355TIP3    H264557   5.167   2.194  11.759 -0.5577 -0.6571  0.7910
14356TIP3   OH264558   4.908   3.159   5.456  0.0799 -0.5769  0.0132
14356TIP3    H164559   4.834   3.219   5.464  1.8171  1.8303 -1.3868
14356TIP3    H264560   4.959   3.172   5.536 -0.0293 -0.9018  0.1383
14357TIP3   OH264561   3.160   1.524   4.952 -0.0236 -0.2417 -0.1662
14357TIP3    H164562   3.086   1.522   5.013  0.0199  0.2201 -0.0968
14357TIP3    H264563   3.221   1.459   4.987  0.3708  0.6137  0.7633
14358TIP3   OH264564   0.199   4.387   6.376  0.0488  0.0604 -0.6895
14358TIP3    H164565   0.291   4.381   6.399  0.0265 -0.6385 -0.7774
14358TIP3    H264566   0.152   4.358   6.455 -0.0596 -1.0342 -1.1615
14359TIP3   OH264567   3.234   3.186   2.310  0.2727  0.6465 -0.2704
14359TIP3    H164568   3.154   3.133   2.318 -0.0462  1.5592  3.4907
14359TIP3    H264569   3.204   3.269   2.273 -0.3418  0.6016  0.1157
14360TIP3   OH264570   3.467   6.411   4.414  0.0745  0.1538 -0.0441
14360TIP3    H164571   3.554   6.431   4.449  0.3264 -1.5411  0.3576
14360TIP3    H264572   3.484   6.359   4.335 -0.5683 -0.6185  0.3181
14361TIP3   OH264573   3.256   5.570   3.100 -0.5524 -0.5086 -0.2638
14361TIP3    H164574   3.195   5.640   3.080 -0.8672 -0.6712  0.1213
14361TIP3    H264575   3.249   5.558   3.194  0.6606  0.0107 -0.0990
14362TIP3   OH264576   1.158   6.347  11.207  0.0636 -0.2566 -0.3717
14362TIP3    H164577   1.150   6.332  11.302 -0.7881  0.5490 -0.3157
14362TIP3    H264578   1.125   6.435  11.193 -0.2061 -0.5267 -1.4898
14363TIP3   OH264579   1.797   3.861   3.494  0.2186 -0.0486  0.4762
14363TIP3    H164580   1.825   3.858   3.585  0.0490 -0.1014  0.5257
14363TIP3    H264581   1.864   3.914   3.450  0.2249  0.0899  0.6565
14364TIP3   OH264582   6.203   4.461   5.866  0.2591 -0.3713 -0.0340
14364TIP3    H164583   6.180   4.406   5.790  0.3166  0.3860 -0.6046
14364TIP3    H264584   6.298   4.457   5.871  0.1625 -1.7127  0.9787
14365TIP3   OH264585   3.473   0.733  14.654 -0.3598 -0.2253 -0.2079
14365TIP3    H164586   3.469   0.716  14.560 -1.4953 -0.0998 -0.1949
14365TIP3    H264587   3.527   0.811  14.663  0.8550 -0.9995 -0.6467
14366TIP3   OH264588   5.751   0.050  16.340  0.3173  0.8375  0.7491
14366TIP3    H164589   5.812  -0.002  16.392 -0.4165 -0.5599  0.2354
14366TIP3    H264590   5.710   0.109  16.404 -1.6538 -1.8597  2.1064
14367TIP3   OH264591   5.810   5.488  13.282  0.3003 -0.2049 -0.0287
14367TIP3    H164592   5.735   5.440  13.317  0.5165 -1.8067 -1.6677
14367TIP3    H264593   5.773   5.568  13.246 -0.6051 -0.9262 -0.7209
14368TIP3   OH264594   3.062   5.570  11.905  0.0379 -0.1518 -0.1391
14368TIP3    H164595   2.967   5.563  11.918 -0.0225  0.6469 -0.1544
14368TIP3    H264596   3.082   5.661  11.926  0.6792 -0.1132 -0.9356
14369TIP3   OH264597   6.142   5.393   4.159 -0.2701  0.6142  0.3476
14369TIP3    H164598   6.061   5.347   4.138  0.0664 -0.2709  0.9482
14369TIP3    H264599   6.182   5.413   4.075 -0.9783  0.8163  0.0579
14370TIP3   OH264600   1.097   1.641  13.842 -0.3141  0.5971 -0.8472
14370TIP3    H164601   1.190   1.627  13.861 -0.2747  0.8648 -0.8423
14370TIP3    H264602   1.087   1.618  13.749 -0.6250 -1.2923 -0.3625
14371TIP3   OH264603   5.467   6.326   3.758 -0.1602  0.2314  0.3134
14371TIP3    H164604   5.502   6.256   3.813  0.8362  0.9990  0.6694
14371TIP3    H264605   5.493   6.407   3.803  1.0464  0.8839 -1.5107
14372TIP3   OH264606   6.589   2.278   1.598  0.3590  0.3768 -0.2302
14372TIP3    H164607   6.552   2.274   1.686 -1.2949 -0.0763 -0.9225
14372TIP3    H264608   6.553   2.359   1.560  0.4108  0.1596 -0.7543
14373TIP3   OH264609   1.677   5.225  17.235  0.2733 -0.2871 -0.0767
14373TIP3    H164610   1.685   5.182  17.320  2.2067  1.3160  0.5488
14373TIP3    H264611   1.707   5.159  17.172 -0.9499 -1.3910  0.4740
14374TIP3   OH264612   6.270   2.843   6.758 -0.3338  0.0332 -0.3012
14374TIP3    H164613   6.221   2.785   6.700  0.8989 -0.2911 -1.0287
14374TIP3    H264614   6.205   2.907   6.788 -1.3845 -0.8802 -0.5927
14375TIP3   OH264615   1.607   0.210  17.231  0.4583  0.1508  0.8887
14375TIP3    H164616   1.702   0.221  17.230  0.1687  3.1568  0.7824
14375TIP3    H264617   1.577   0.259  17.155 -1.3204  0.8143  1.9932
14376TIP3   OH264618   3.328   3.270   4.493  0.6499 -0.0620  0.0514
14376TIP3    H164619   3.258   3.226   4.445 -1.0523  2.0123  0.5423
14376TIP3    H264620   3.307   3.256   4.585  1.7203 -0.7070  0.1983
14377TIP3   OH264621   2.358   6.659  12.466  0.0511  0.2850  0.2543
14377TIP3    H164622   2.427   6.708  12.511  0.8184 -1.6172  1.2265
14377TIP3    H264623   2.378   6.671  12.373  1.6689 -0.1825  0.5276
14378TIP3   OH264624   2.083   4.175   6.121  0.1986  0.4878 -0.1494
14378TIP3    H164625   2.074   4.206   6.211 -0.3714 -0.9867  0.3283
14378TIP3    H264626   2.173   4.141   6.116  0.8513  2.2754 -0.6994
14379TIP3   OH264627   3.866   1.558  16.920 -0.0764 -0.0333 -0.0547
14379TIP3    H164628   3.837   1.550  17.011 -2.0011 -0.2863 -0.6819
14379TIP3    H264629   3.923   1.483  16.906 -2.1581 -1.6610  0.0594
14380TIP3   OH264630   1.232   2.954  12.889 -0.0561  0.2498 -0.4526
14380TIP3    H164631   1.155   2.906  12.859 -0.7746  1.1205 -0.0138
14380TIP3    H264632   1.197   3.024  12.944  1.1182 -0.0207  0.6490
14381TIP3   OH264633   3.351   0.293   2.415  0.2852 -0.4604  0.7315
14381TIP3    H164634   3.313   0.380   2.403 -0.8508 -1.1162 -0.6434
14381TIP3    H264635   3.436   0.309   2.456  0.8952  1.4269 -1.1808
14382TIP3   OH264636   3.896   1.065   1.094 -0.3431 -0.1850 -0.1782
14382TIP3    H164637   3.959   1.003   1.132 -0.7121 -1.6207 -1.8104
14382TIP3    H264638   3.937   1.151   1.105  0.7606 -0.8509  1.0235
14383TIP3   OH264639   6.349   4.463   6.312 -0.2571  0.2461 -0.5531
14383TIP3    H164640   6.411   4.417   6.369 -1.1235 -0.5667 -0.2610
14383TIP3    H264641   6.378   4.440   6.223 -0.1664 -0.1776 -0.4175
14384TIP3   OH264642   2.064   1.867  16.282  0.0264 -0.5500  0.1087
14384TIP3    H164643   2.131   1.812  16.323 -0.2205  0.1548  1.4771
14384TIP3    H264644   2.045   1.934  16.347 -0.5899  0.4208 -1.0599
14385TIP3   OH264645   6.595   5.542  14.159  0.1212  0.1260 -0.1813
14385TIP3    H164646   6.646   5.573  14.084  0.5276  1.4187  0.6320
14385TIP3    H264647   6.528   5.486  14.120  0.0281  1.1796 -1.5602
14386TIP3   OH264648   5.713   5.839  14.134 -0.1673 -0.1773 -0.0235
14386TIP3    H164649   5.808   5.836  14.122 -0.2285 -0.6123 -0.4082
14386TIP3    H264650   5.701   5.872  14.224  0.3482 -0.4214  0.1375
14387TIP3   OH264651   3.644   4.096   5.738 -0.3887 -0.3171  1.1209
14387TIP3    H164652   3.660   4.185   5.771  1.3886  0.4554 -1.6259
14387TIP3    H264653   3.564   4.103   5.686  0.4811  0.0273 -0.2057
14388TIP3   OH264654   5.447   2.356   1.339  0.7161 -0.0737  0.5891
14388TIP3    H164655   5.377   2.315   1.287 -0.3013 -0.2168  2.0412
14388TIP3    H264656   5.516   2.290   1.342  0.9855  0.1134 -0.9658
14389TIP3   OH264657   1.018   2.237  14.285 -0.2324 -0.3322 -0.4931
14389TIP3    H164658   1.077   2.313  14.281 -1.6742  0.8307  0.1307
14389TIP3    H264659   0.976   2.244  14.370  0.3194 -2.3870 -0.0313
14390TIP3   OH264660   2.808   3.639   5.438 -0.2670  0.1235  0.0402
14390TIP3    H164661   2.801   3.734   5.433  0.4353  0.1543 -0.4629
14390TIP3    H264662   2.732   3.606   5.391  0.1710  0.4374 -0.8898
14391TIP3   OH264663   2.195   5.185  14.243  0.1473  0.0697  0.5334
14391TIP3    H164664   2.290   5.178  14.254 -0.1178 -0.9920  2.3891
14391TIP3    H264665   2.177   5.139  14.161  1.2391  0.2934  0.1634
14392TIP3   OH264666   4.237   1.886  15.197  0.1614 -0.0573  0.3232
14392TIP3    H164667   4.310   1.949  15.205  1.5071 -0.9674 -3.4959
14392TIP3    H264668   4.276   1.802  15.217 -0.2209 -0.3500 -0.1481
14393TIP3   OH264669   3.545   5.736   4.278 -0.3187  0.3455 -0.1350
14393TIP3    H164670   3.632   5.765   4.251  0.3301 -1.0653  0.3745
14393TIP3    H264671   3.544   5.748   4.373 -0.0053 -1.3387  0.0930
14394TIP3   OH264672   5.665   0.204  16.550 -0.0968 -0.3008  0.0717
14394TIP3    H164673   5.587   0.162  16.587 -1.3079  3.3367  1.9178
14394TIP3    H264674   5.713   0.237  16.627  1.8625 -0.1282 -1.1961
14395TIP3   OH264675   5.758   1.853   4.072  0.7435 -0.5955 -0.1648
14395TIP3    H164676   5.773   1.778   4.130 -0.6119 -1.5059 -0.9568
14395TIP3    H264677   5.844   1.892   4.060  1.2687 -1.2633  1.2855
14396TIP3   OH264678   0.391   4.156  15.671 -0.3709 -0.0744  0.1775
14396TIP3    H164679   0.387   4.061  15.661 -1.3869  0.0309 -0.4757
14396TIP3    H264680   0.347   4.173  15.755 -0.0273 -0.1978  0.3810
14397TIP3   OH264681   3.359   3.260  11.230 -0.3495  0.4454  0.2599
14397TIP3    H164682   3.313   3.184  11.265 -2.4999  2.6149  2.3003
14397TIP3    H264683   3.439   3.266  11.281 -0.3533 -0.2375  0.3436
14398TIP3   OH264684   5.304   2.823   2.505 -0.4062  0.7114 -0.2257
14398TIP3    H164685   5.279   2.915   2.500 -1.1065  0.4976 -0.8162
14398TIP3    H264686   5.388   2.819   2.460  0.6769  1.4191  1.6824
14399TIP3   OH264687   2.509   5.264   3.681 -0.1695  0.1401  0.3910
14399TIP3    H164688   2.541   5.180   3.713 -0.7953 -0.9373 -1.7464
14399TIP3    H264689   2.566   5.286   3.608  0.3195  1.8556  1.2603
14400TIP3   OH264690   3.845   2.391  14.782 -0.7724  0.1710 -0.3279
14400TIP3    H164691   3.837   2.428  14.694  1.3971  0.8454 -0.2794
14400TIP3    H264692   3.883   2.462  14.834 -0.0134 -0.9278  0.6381
14401TIP3   OH264693   3.349   2.079   3.755  0.2026  0.1630  0.0325
14401TIP3    H164694   3.402   2.000   3.747  0.4259  0.4162 -1.0838
14401TIP3    H264695   3.358   2.105   3.847  1.4567 -0.1751  0.0106
14402TIP3   OH264696   2.907   1.405   1.710  0.2422  0.1192 -0.2726
14402TIP3    H164697   2.994   1.441   1.729  1.0560 -0.8219 -2.0305
14402TIP3    H264698   2.852   1.435   1.782  2.6535 -1.6333  2.4092
14403TIP3   OH264699   5.533   6.371   5.910 -0.0807 -0.3090 -0.1967
14403TIP3    H164700   5.618   6.414   5.915  0.6279 -1.4777 -1.8572
14403TIP3    H264701   5.496   6.401   5.827 -1.6221  0.7560  0.8476
14404TIP3   OH264702   0.586   5.574  10.794  0.0583  0.5884 -0.8156
14404TIP3    H164703   0.516   5.628  10.758  0.5003  2.9289  1.6593
14404TIP3    H264704   0.666   5.614  10.761  0.4393  2.3184  2.0117
14405TIP3   OH264705   3.751   0.719   3.300 -0.0130 -0.1349 -0.3552
14405TIP3    H164706   3.701   0.800   3.302  1.8096  0.9920  0.6912
14405TIP3    H264707   3.688   0.650   3.320 -1.0066  1.3220  1.5694
14406TIP3   OH264708   3.231   6.300  12.963 -0.8574 -0.0250  0.1637
14406TIP3    H164709   3.251   6.273  13.053 -3.9824 -1.0568  0.6275
14406TIP3    H264710   3.180   6.381  12.973 -3.2510 -1.4024 -0.5055
14407TIP3   OH264711   4.180   4.219  16.446 -0.4633  0.5856  0.1827
14407TIP3    H164712   4.245   4.220  16.516 -1.3348 -0.4348  1.0151
14407TIP3    H264713   4.231   4.204  16.366  0.4512  1.0076  0.6815
14408TIP3   OH264714   2.700   0.877  17.227 -0.4473  0.4767  0.3884
14408TIP3    H164715   2.779   0.907  17.181 -0.1734  0.8573  1.1052
14408TIP3    H264716   2.732   0.810  17.287 -0.9567 -0.7665 -0.7010
14409TIP3   OH264717   1.062   1.272   5.118 -0.0422  0.0027  0.7197
14409TIP3    H164718   0.985   1.255   5.063 -1.1767 -0.3106  2.3680
14409TIP3    H264719   1.040   1.353   5.164  0.6797 -0.0143  1.0868
14410TIP3   OH264720   1.875   4.266   3.260  0.3769  0.3287 -0.0644
14410TIP3    H164721   1.968   4.286   3.247  0.2621  0.5651 -0.5321
14410TIP3    H264722   1.832   4.302   3.183 -0.0136 -0.4532 -0.2105
14411TIP3   OH264723   2.573   1.742   1.919 -0.3448 -0.1901 -0.3480
14411TIP3    H164724   2.482   1.758   1.891 -0.4231 -2.5291 -1.6014
14411TIP3    H264725   2.626   1.785   1.852 -0.5195  0.5547 -0.0146
14412TIP3   OH264726   2.832   0.401   1.407  0.5129  0.0585 -0.5065
14412TIP3    H164727   2.777   0.475   1.430  0.1298 -0.1908 -0.6192
14412TIP3    H264728   2.921   0.437   1.403  0.2311  0.6675 -1.3148
14413TIP3   OH264729   4.842   6.195   5.934  0.1278 -0.2064  0.1227
14413TIP3    H164730   4.886   6.206   5.850 -0.5561 -0.2629 -0.2467
14413TIP3    H264731   4.854   6.280   5.978 -0.6380  0.2669 -0.5720
14414TIP3   OH264732   2.364   0.182   4.965  0.3839 -0.1935  0.5934
14414TIP3    H164733   2.436   0.171   5.027  1.3682 -1.3684 -0.7521
14414TIP3    H264734   2.380   0.267   4.924  0.1475  0.2367  1.3653
14415TIP3   OH264735   6.614   0.040   2.371 -0.2846 -0.0465  0.4542
14415TIP3    H164736   6.665   0.093   2.432  0.6178  0.0329 -0.3418
14415TIP3    H264737   6.533   0.089   2.357 -0.3051  0.1482  1.2395
14416TIP3   OH264738   4.027   3.327   4.992  0.8091 -0.2435  0.0936
14416TIP3    H164739   4.076   3.401   4.955  1.7783 -1.5942 -1.3764
14416TIP3    H264740   3.996   3.359   5.076  1.7870  1.6237 -0.2224
14417TIP3   OH264741   1.977   0.384  13.629  0.1994 -0.4365 -0.0903
14417TIP3    H164742   2.057   0.348  13.591  0.2567  0.1728 -0.5547
14417TIP3    H264743   1.972   0.473  13.594 -0.1387 -0.1190  0.7495
14418TIP3   OH264744   6.613   4.697  15.293  0.5385 -0.2366 -0.2700
14418TIP3    H164745   6.705   4.722  15.285  0.7572 -1.7735 -3.0532
14418TIP3    H264746   6.609   4.607  15.260 -1.9087 -0.3366  0.1836
14419TIP3   OH264747   3.697   3.679  13.162 -0.0892 -0.8500  0.0816
14419TIP3    H164748   3.702   3.636  13.247  0.0530 -1.7032 -0.3543
14419TIP3    H264749   3.699   3.607  13.098 -1.8736 -0.3172 -0.5978
14420TIP3   OH264750   3.808   0.443  16.035  0.2005 -0.1879 -0.2289
14420TIP3    H164751   3.857   0.361  16.031  0.1017 -0.1943 -1.3855
14420TIP3    H264752   3.744   0.436  15.964  0.1061  0.8282 -0.2477
14421TIP3   OH264753   6.678   1.901  12.323 -0.0409 -0.0808  0.2100
14421TIP3    H164754   6.697   1.879  12.415  0.4353  0.2978  0.2038
14421TIP3    H264755   6.727   1.982  12.307 -0.7752  0.2969 -0.1402
14422TIP3   OH264756   2.788   1.870  15.529  0.3538 -0.5325 -0.1786
14422TIP3    H164757   2.724   1.827  15.472  1.7829 -0.6940 -1.7016
14422TIP3    H264758   2.822   1.942  15.475  3.0942 -1.8291 -0.2355
14423TIP3   OH264759   1.533   2.513  13.088  0.0526 -1.1627  1.2041
14423TIP3    H164760   1.464   2.569  13.123 -0.5752 -0.6824 -0.7012
14423TIP3    H264761   1.614   2.561  13.104 -0.5066  0.5206 -0.7245
14424TIP3   OH264762   1.074   3.552  16.209  0.0380 -0.7760 -0.1275
14424TIP3    H164763   1.160   3.583  16.182 -0.7487  0.0022 -1.8262
14424TIP3    H264764   1.092   3.480  16.270  1.8757  0.8810  1.3462
14425TIP3   OH264765   2.795   1.645  13.648  0.3696 -0.3227 -0.9162
14425TIP3    H164766   2.744   1.670  13.571 -2.8229 -0.3185  1.1372
14425TIP3    H264767   2.806   1.550  13.639 -1.8481 -0.6599 -0.3448
14426TIP3   OH264768   2.716   4.889  16.312 -0.4468  0.3082 -0.0065
14426TIP3    H164769   2.680   4.803  16.337 -1.2606  0.2326 -1.3797
14426TIP3    H264770   2.746   4.877  16.222  2.4344  0.5833  0.8720
14427TIP3   OH264771   0.960   6.089   2.738 -0.3214  0.3073  0.2399
14427TIP3    H164772   0.976   6.057   2.827 -0.7181  0.9379  0.5370
14427TIP3    H264773   0.968   6.010   2.683 -1.1609 -0.2930  0.9584
14428TIP3   OH264774   1.483   4.336   3.291  0.2052 -0.6532  0.8091
14428TIP3    H164775   1.531   4.267   3.337  0.9943 -0.9105 -0.3872
14428TIP3    H264776   1.536   4.356   3.214 -0.3881  0.7684  0.7416
14429TIP3   OH264777   0.802   6.754  15.734 -0.0358  0.7092 -0.1357
14429TIP3    H164778   0.844   6.675  15.699 -0.7739 -0.2798  1.1602
14429TIP3    H264779   0.873   6.804  15.773  0.4801  0.8313 -1.1916
14430TIP3   OH264780   6.160   5.765  13.773 -0.1645 -0.4629 -0.2201
14430TIP3    H164781   6.220   5.709  13.820  1.6876  1.5893 -0.0451
14430TIP3    H264782   6.092   5.706  13.740  0.5704 -2.4513  1.7334
14431TIP3   OH264783   2.937   6.779   1.448  0.0083  0.0457  0.5213
14431TIP3    H164784   2.980   6.805   1.366 -0.7471  1.0701  0.4324
14431TIP3    H264785   2.931   6.860   1.498 -0.2443 -0.4283  1.2587
14432TIP3   OH264786   6.061   1.356  13.319 -0.0467  0.1169 -0.4277
14432TIP3    H164787   6.040   1.264  13.333  0.2618 -0.3941 -3.0000
14432TIP3    H264788   6.014   1.403  13.388 -0.2064 -1.9510  0.9034
14433TIP3   OH264789   0.207   4.283  11.251 -0.5107  0.1797  0.0781
14433TIP3    H164790   0.232   4.239  11.170 -1.7166  0.9112 -0.7003
14433TIP3    H264791   0.128   4.236  11.280 -0.5012  0.3821  0.4323
14434TIP3   OH264792   6.170   6.324  11.950 -0.1718  0.2917 -0.7265
14434TIP3    H164793   6.198   6.408  11.985 -0.4216  0.5497 -1.1508
14434TIP3    H264794   6.238   6.301  11.886  0.3569 -0.2441  0.0192
14435TIP3   OH264795   4.560   5.730  16.394 -0.3794 -0.0000 -0.6072
14435TIP3    H164796   4.486   5.726  16.334  0.4517  0.2829 -1.6939
14435TIP3    H264797   4.613   5.802  16.360 -0.2633  0.6342  0.9163
14436TIP3   OH264798   4.358   2.599  12.734 -0.3006 -0.1078 -0.1349
14436TIP3    H164799   4.432   2.538  12.735 -0.5051 -0.3611 -0.4022
14436TIP3    H264800   4.313   2.581  12.652 -1.1209 -0.5073  0.3980
14437TIP3   OH264801   5.993   4.349  14.928  0.2895 -0.1262  0.4236
14437TIP3    H164802   6.060   4.364  14.996  0.1059 -1.4509  0.9126
14437TIP3    H264803   5.985   4.254  14.923 -0.8446  0.0030 -0.3505
14438TIP3   OH264804   1.050   1.833  15.596 -0.3794  0.4884  1.1194
14438TIP3    H164805   1.029   1.747  15.633  1.0328  0.0568  0.9858
14438TIP3    H264806   1.105   1.874  15.663  2.7704 -0.5665 -0.7156
14439TIP3   OH264807   5.421   0.825  17.081  0.0685  0.0322 -0.5316
14439TIP3    H164808   5.494   0.829  17.143  0.9404  2.0861 -1.6658
14439TIP3    H264809   5.445   0.755  17.021  0.4220 -0.2490 -0.0721
14440TIP3   OH264810   1.271   4.965  11.672 -0.3751  0.1434 -0.0562
14440TIP3    H164811   1.311   4.910  11.739 -1.4323  1.4454  1.6882
14440TIP3    H264812   1.252   4.905  11.600 -0.0290 -1.4512  1.1519
14441TIP3   OH264813   3.399   4.993   4.745  0.1548  0.7019 -0.1696
14441TIP3    H164814   3.336   5.020   4.679  1.4824  1.5506 -1.1263
14441TIP3    H264815   3.466   4.945   4.696  0.9861  1.0685  0.5775
14442TIP3   OH264816   4.174   6.703   6.140 -0.0541 -0.5552 -0.1152
14442TIP3    H164817   4.220   6.622   6.162  0.7763  0.1093  0.6434
14442TIP3    H264818   4.093   6.698   6.191 -0.2127 -1.1144 -0.4150
14443TIP3   OH264819   3.841   2.445   5.960 -1.0512 -0.4169 -0.1000
14443TIP3    H164820   3.890   2.425   6.039 -2.0972 -1.1569  0.3683
14443TIP3    H264821   3.895   2.409   5.889  0.0083  0.4728  0.2329
14444TIP3   OH264822   1.906   1.584   2.652  0.1899 -0.1801 -0.0343
14444TIP3    H164823   1.988   1.572   2.700 -0.1445  0.5440  0.7274
14444TIP3    H264824   1.861   1.500   2.660  1.3276 -0.9458 -1.3808
14445TIP3   OH264825   1.665   4.611   3.765 -0.2042  0.0571  0.5935
14445TIP3    H164826   1.759   4.627   3.771 -0.3718  1.3762 -0.1708
14445TIP3    H264827   1.636   4.664   3.691 -1.2706 -1.6811 -0.2601
14446TIP3   OH264828   0.187   0.086  17.022 -0.1161 -0.7021  0.5695
14446TIP3    H164829   0.194   0.141  17.100  0.9874  0.2735 -0.1991
14446TIP3    H264830   0.178  -0.003  17.056 -1.7827 -0.0722  1.8223
14447TIP3   OH264831   6.177   0.473  17.249  0.3175  0.3350  0.3732
14447TIP3    H164832   6.196   0.560  17.214  2.2392  0.4486  1.6012
14447TIP3    H264833   6.261   0.443  17.285 -0.7394 -1.2685  1.5615
14448TIP3   OH264834   5.831   4.097   3.079 -0.1650  0.3659 -0.4048
14448TIP3    H164835   5.808   4.041   3.005  1.2235  0.9634 -1.3155
14448TIP3    H264836   5.845   4.037   3.152  0.7250 -0.4409 -1.2207
14449TIP3   OH264837   5.284   3.333   1.603  0.7031 -0.0088  0.2132
14449TIP3    H164838   5.232   3.382   1.667  1.0927  0.5981  0.0721
14449TIP3    H264839   5.240   3.249   1.596 -1.3461  1.1366 -1.2464
14450TIP3   OH264840   4.264   4.145  12.708 -0.2965 -0.2995 -0.6164
14450TIP3    H164841   4.289   4.208  12.775  0.1723  0.3972 -1.4486
14450TIP3    H264842   4.222   4.074  12.757 -0.1543  0.3038  0.3909
14451TIP3   OH264843   1.635   4.002  12.362 -0.1790 -0.3073  0.1421
14451TIP3    H164844   1.676   3.931  12.412  1.6515 -0.3086 -1.3157
14451TIP3    H264845   1.630   4.075  12.423  0.3588 -0.8836  0.8790
14452TIP3   OH264846   1.308   3.837   0.805  0.1284  0.2309 -0.5280
14452TIP3    H164847   1.280   3.796   0.723 -0.6295  0.3456 -0.3239
14452TIP3    H264848   1.257   3.917   0.811  1.3880  1.0669 -0.7746
14453TIP3   OH264849   4.917   3.296   4.297 -0.3148 -0.0346  0.0078
14453TIP3    H164850   4.904   3.242   4.375  1.7805 -1.3519 -0.5074
14453TIP3    H264851   4.887   3.241   4.225 -2.9706  1.4670 -0.1122
14454TIP3   OH264852   2.798   4.175   0.279 -0.0442 -0.2048 -0.4003
14454TIP3    H164853   2.794   4.084   0.308  0.9012  0.0223  0.4788
14454TIP3    H264854   2.872   4.178   0.218 -0.2797 -0.0970 -0.6809
14455TIP3   OH264855   5.808   1.522   2.866  0.2335 -0.2267 -0.4131
14455TIP3    H164856   5.823   1.609   2.902 -0.8838  0.2580 -1.0977
14455TIP3    H264857   5.795   1.537   2.772 -1.7543 -0.9034 -0.2776
14456TIP3   OH264858   3.334   0.987  12.481  0.4833  0.2805 -0.4050
14456TIP3    H164859   3.253   1.007  12.434  0.5747 -2.4502 -1.7997
14456TIP3    H264860   3.306   0.932  12.555  1.1005 -1.0414 -1.1459
14457TIP3   OH264861   0.326   4.687  16.105  0.7274 -0.0677  0.2463
14457TIP3    H164862   0.361   4.694  16.016  1.7356  0.7500  0.6922
14457TIP3    H264863   0.388   4.737  16.159 -2.0407  2.8873  0.8242
14458TIP3   OH264864   1.799   6.349   5.677 -0.5758  0.6190  0.2294
14458TIP3    H164865   1.855   6.393   5.741  0.3808  1.7359 -1.3363
14458TIP3    H264866   1.732   6.414   5.655  0.0726  0.8562 -1.1113
14459TIP3   OH264867   4.743   5.670   6.330 -0.2850  0.3997  0.2361
14459TIP3    H164868   4.795   5.750   6.341  0.9062 -0.1326 -1.3543
14459TIP3    H264869   4.703   5.679   6.244 -0.2935 -0.6473  0.1310
14460TIP3   OH264870   6.792   2.987  14.012  0.5569  0.2959  0.0715
14460TIP3    H164871   6.712   2.949  13.977 -0.0070  1.7482 -0.2399
14460TIP3    H264872   6.772   3.080  14.023  1.6736  0.3884  1.5109
14461TIP3   OH264873   5.966   1.363   3.314 -0.6110 -0.1420 -0.5009
14461TIP3    H164874   6.028   1.320   3.373  0.6275  2.0592 -0.1481
14461TIP3    H264875   6.015   1.377   3.233 -1.5340 -0.9039 -1.2016
14462TIP3   OH264876   3.349   6.573  12.821  0.2403  0.2620  0.3183
14462TIP3    H164877   3.333   6.594  12.913  1.3472  1.5446  0.2234
14462TIP3    H264878   3.271   6.606  12.775 -0.2088 -0.1747  0.7583
14463TIP3   OH264879   0.521   2.850   3.782 -0.2920 -0.0736  0.1436
14463TIP3    H164880   0.435   2.876   3.748 -0.6185 -0.7581  0.4343
14463TIP3    H264881   0.567   2.814   3.706 -0.3512  0.0739  0.0379
14464TIP3   OH264882   0.992   3.468   3.163 -0.1291  0.2136  0.4798
14464TIP3    H164883   1.034   3.500   3.084  0.8520 -0.9075  0.5271
14464TIP3    H264884   0.921   3.412   3.132  0.3655 -0.3655  0.3921
14465TIP3   OH264885   3.655   1.244  12.656 -0.2609  0.1044 -0.2010
14465TIP3    H164886   3.740   1.204  12.670 -1.0046 -1.6356 -0.4921
14465TIP3    H264887   3.659   1.277  12.566 -0.0518 -0.4149 -0.3857
14466TIP3   OH264888   4.022   2.188  13.185  0.0895 -0.3259  0.0770
14466TIP3    H164889   4.075   2.242  13.127  1.9379 -0.5845  1.4709
14466TIP3    H264890   3.933   2.193  13.149  0.7559  1.4133 -1.3705
14467TIP3   OH264891   6.624   0.958  15.034  0.1939 -1.1491  0.4098
14467TIP3    H164892   6.529   0.964  15.019  0.2153 -1.3874  0.1850
14467TIP3    H264893   6.644   1.035  15.088  0.1208 -0.2551 -0.8044
14468TIP3   OH264894   1.814   4.755   1.304 -0.0088 -0.0374 -0.0264
14468TIP3    H164895   1.907   4.770   1.288 -0.5649  0.9427 -2.5571
14468TIP3    H264896   1.801   4.779   1.395  2.0783  0.5186  0.1426
14469TIP3   OH264897   3.470   1.843   2.069 -0.0713  0.2577 -0.1513
14469TIP3    H164898   3.469   1.858   1.974  0.9598  2.8568  0.1992
14469TIP3    H264899   3.440   1.926   2.106  0.3051 -0.4738  1.8305
14470TIP3   OH264900   1.614   1.396  14.544 -0.4754  0.2357 -0.6474
14470TIP3    H164901   1.580   1.413  14.632 -0.3674 -0.5284 -0.4626
14470TIP3    H264902   1.560   1.325  14.511  1.4829 -1.5801 -0.0255
14471TIP3   OH264903   6.805   4.236   4.835  0.5247  0.5124  0.2416
14471TIP3    H164904   6.825   4.162   4.777  1.7231  1.6356 -0.8052
14471TIP3    H264905   6.722   4.211   4.877  1.4795 -1.9374  0.7968
14472TIP3   OH264906   5.720   5.481   6.385 -0.2966 -0.4172 -0.1965
14472TIP3    H164907   5.713   5.557   6.328 -0.6589 -0.0390  0.3459
14472TIP3    H264908   5.798   5.498   6.439 -0.0975 -0.6576 -0.4065
14473TIP3   OH264909   4.281   3.812   2.321  0.4905  0.3609  0.1871
14473TIP3    H164910   4.228   3.754   2.266  0.2746  0.4658  0.2842
14473TIP3    H264911   4.220   3.845   2.386  0.7859  0.0846  0.6092
14474TIP3   OH264912   0.901   3.786  15.765 -0.3537 -0.4240 -0.5028
14474TIP3    H164913   0.848   3.735  15.826 -1.5387  0.1699 -1.0340
14474TIP3    H264914   0.949   3.848  15.820 -0.2679 -0.9122 -0.0315
14475TIP3   OH264915   0.302   1.235   5.824  0.0601 -0.4251 -0.8332
14475TIP3    H164916   0.240   1.169   5.854  0.7834 -1.1265 -0.8621
14475TIP3    H264917   0.259   1.278   5.751 -0.9697  0.0500  0.0418
14476TIP3   OH264918   3.455   2.581  17.211 -0.2209 -0.0116 -0.4404
14476TIP3    H164919   3.360   2.586  17.203 -0.1436  0.4375 -1.1347
14476TIP3    H264920   3.476   2.637  17.285 -0.4436  0.3676 -0.6631
14477TIP3   OH264921   0.762   6.751   2.762 -0.1099 -0.1575 -0.3729
14477TIP3    H164922   0.794   6.736   2.851  0.4691 -0.5774 -0.6468
14477TIP3    H264923   0.706   6.676   2.744 -0.1637 -0.1128 -0.3922
14478TIP3   OH264924   5.504   2.616   2.026  0.2931 -0.0744  0.1801
14478TIP3    H164925   5.452   2.638   1.948  1.0578  0.3191 -0.2305
14478TIP3    H264926   5.451   2.645   2.100 -0.8900 -1.3524 -0.1359
14479TIP3   OH264927   5.864   0.522   4.397  0.5210 -0.0257  0.3186
14479TIP3    H164928   5.913   0.545   4.318 -0.7481  1.8386  0.0249
14479TIP3    H264929   5.792   0.468   4.365 -0.8616  1.9837 -0.0337
14480TIP3   OH264930   2.695   6.036   3.957  0.2589  0.5771 -0.5060
14480TIP3    H164931   2.770   6.095   3.949  0.2558  0.5414 -0.8177
14480TIP3    H264932   2.731   5.949   3.941  0.3583  0.4370  0.4550
14481TIP3   OH264933   0.435   3.247  17.143  0.8356  0.5293  0.2824
14481TIP3    H164934   0.519   3.255  17.187  0.3598 -0.6044  1.4551
14481TIP3    H264935   0.387   3.182  17.195 -0.3522  0.3557 -0.9914
14482TIP3   OH264936   6.584   4.503   5.341 -0.0801  0.0817  0.4228
14482TIP3    H164937   6.645   4.574   5.358 -1.6339  1.6935 -0.5932
14482TIP3    H264938   6.508   4.522   5.396 -0.8380 -0.3452 -0.4525
14483TIP3   OH264939   5.584   2.213   3.760  0.2736  0.5304 -0.0984
14483TIP3    H164940   5.575   2.223   3.665 -0.5818  0.2785 -0.0483
14483TIP3    H264941   5.591   2.119   3.774 -0.2280  0.5255  0.1368
14484TIP3   OH264942   6.246   1.903   6.024 -0.3155  0.2434 -0.4273
14484TIP3    H164943   6.319   1.932   6.079  1.1903 -0.6010 -1.9526
14484TIP3    H264944   6.286   1.879   5.941 -2.3424 -0.2450 -1.2972
14485TIP3   OH264945   5.091   5.129   3.421 -0.0857  0.0169 -0.5148
14485TIP3    H164946   5.178   5.167   3.413 -0.9306  1.8736 -1.2741
14485TIP3    H264947   5.043   5.190   3.476 -0.7422 -1.3212  0.4236
14486TIP3   OH264948   2.956   2.271  14.039  0.5951 -0.2473  0.3669
14486TIP3    H164949   3.004   2.216  14.100  0.0183  0.9446  1.9375
14486TIP3    H264950   2.905   2.330  14.095 -1.8475 -0.7498 -1.2441
14487TIP3   OH264951   5.513   3.298  12.725  0.2377  0.1316  0.1379
14487TIP3    H164952   5.493   3.240  12.652  1.0729 -0.0247  0.0282
14487TIP3    H264953   5.440   3.287  12.786  0.7478 -1.5702  0.4549
14488TIP3   OH264954   2.367   4.175   4.311  0.5993 -0.1044 -0.1954
14488TIP3    H164955   2.447   4.215   4.277  0.7102  0.0440  0.2308
14488TIP3    H264956   2.297   4.234   4.283  0.7284  0.2163  0.1391
14489TIP3   OH264957   0.089   0.957  12.893  0.0428 -0.3360 -0.3015
14489TIP3    H164958   0.164   0.922  12.941  0.1933 -0.0402 -0.3189
14489TIP3    H264959   0.013   0.927  12.943  0.2050  0.1727  0.2631
14490TIP3   OH264960   2.639   6.359  14.203  0.1503 -1.1524  0.2035
14490TIP3    H164961   2.653   6.325  14.291  0.4301 -1.3729  0.0757
14490TIP3    H264962   2.557   6.409  14.209  1.2933  0.6769  1.1240
14491TIP3   OH264963   6.660   2.824   4.690 -0.2830 -0.5080 -0.4911
14491TIP3    H164964   6.586   2.765   4.699  0.3628 -1.3660 -0.7467
14491TIP3    H264965   6.641   2.876   4.612  0.0164 -1.6518 -1.3303
14492TIP3   OH264966   6.131   4.513  11.645  0.4104  0.5964 -0.4541
14492TIP3    H164967   6.065   4.472  11.700  1.8480 -2.7784 -1.1752
14492TIP3    H264968   6.081   4.549  11.571 -0.8737  0.2637  0.2317
14493TIP3   OH264969   3.895   5.100  16.626 -0.4082  0.0388  0.1616
14493TIP3    H164970   3.809   5.142  16.620 -0.6869 -0.4815  0.4659
14493TIP3    H264971   3.935   5.139  16.704 -1.2601 -1.3205  1.3004
14494TIP3   OH264972   5.467   2.685  13.432 -0.0847  0.4996  0.4072
14494TIP3    H164973   5.437   2.714  13.346  1.5124  1.5342  0.1730
14494TIP3    H264974   5.551   2.730  13.444  1.5557 -2.5708  0.8656
14495TIP3   OH264975   5.950   4.882   6.243  0.1050 -0.3765  0.0568
14495TIP3    H164976   5.865   4.881   6.287  1.1785 -2.2745  2.2232
14495TIP3    H264977   5.997   4.955   6.284 -0.3084  0.3971 -0.8319
14496TIP3   OH264978   0.181   0.082  15.214 -0.6709  0.5007  0.0186
14496TIP3    H164979   0.263   0.078  15.263  0.6458 -2.3519 -2.2648
14496TIP3    H264980   0.203   0.134  15.136 -1.3953  0.7818 -0.0004
14497TIP3   OH264981   2.848   4.603  10.214  0.1158  0.1132  0.7810
14497TIP3    H164982   2.774   4.615  10.154  0.1045 -1.3625  0.4680
14497TIP3    H264983   2.902   4.681  10.202  1.1000 -0.9835 -2.6242
14498TIP3   OH264984   6.725   5.927  15.881  0.2651  0.3047  0.2880
14498TIP3    H164985   6.778   5.895  15.954 -0.5859 -1.3996  0.1750
14498TIP3    H264986   6.691   5.848  15.839 -0.3042  1.3032 -1.1797
14499TIP3   OH264987   4.440   2.802  12.215  0.4001  0.0517 -0.2757
14499TIP3    H164988   4.523   2.848  12.217  1.2319 -1.4631  1.0896
14499TIP3    H264989   4.424   2.784  12.122  1.5995  0.3244 -0.5349
14500TIP3   OH264990   6.627   2.426   5.957  0.2649  0.0349 -0.3601
14500TIP3    H164991   6.586   2.487   6.019  0.9072 -0.2824  0.3811
14500TIP3    H264992   6.680   2.368   6.012  4.3949  2.4566 -1.5623
14501TIP3   OH264993   1.619   3.935  17.003 -0.7796  0.0106 -0.1133
14501TIP3    H164994   1.675   4.012  17.008 -0.9200  0.1268 -0.3111
14501TIP3    H264995   1.677   3.861  17.022 -0.3317  0.0342 -1.3123
14502TIP3   OH264996   1.563   5.936   2.118  0.4910  0.5262 -0.5750
14502TIP3    H164997   1.603   5.851   2.100 -3.4723 -1.2308 -1.5409
14502TIP3    H264998   1.549   5.937   2.213  0.9218  0.2637 -0.5097
14503TIP3   OH264999   2.059   1.810   4.165  0.5083  0.1630 -0.1765
14503TIP3    H165000   1.980   1.832   4.116 -0.0838  1.3201  1.2577
14503TIP3    H265001   2.114   1.888   4.157  0.9641 -0.1492 -0.0861
14504TIP3   OH265002   3.087   0.990   1.223 -0.3748 -0.4990  0.0413
14504TIP3    H165003   3.174   0.950   1.232 -0.8910 -1.5853  0.3055
14504TIP3    H265004   3.044   0.938   1.155 -1.4594 -1.0962  1.1808
14505TIP3   OH265005   3.880   1.404  14.711  0.1655 -0.0769  0.4552
14505TIP3    H165006   3.931   1.483  14.729 -0.2365  0.4769 -0.7446
14505TIP3    H265007   3.945   1.335  14.702  0.7515  0.6795 -1.3415
14506TIP3   OH265008   3.708   1.261  14.545 -0.1713 -0.4138  0.8983
14506TIP3    H165009   3.765   1.189  14.571 -1.5761 -1.0507  2.3131
14506TIP3    H265010   3.750   1.339  14.581  1.0514 -0.5773 -0.1419
14507TIP3   OH265011   6.277   0.069  10.874 -0.2673  0.2689  0.7393
14507TIP3    H165012   6.216   0.041  10.806  1.1839 -1.8188  0.2071
14507TIP3    H265013   6.358   0.022  10.853  1.4707  2.8302  1.5118
14508TIP3   OH265014   0.079   5.388  13.849 -0.0214  0.2662  0.0115
14508TIP3    H165015   0.145   5.367  13.782  0.6436 -0.2197  0.8102
14508TIP3    H265016   0.007   5.327  13.832  0.7764 -0.8720  0.6599
14509TIP3   OH265017   6.623   1.330  15.445 -0.0941 -0.4530  0.1264
14509TIP3    H165018   6.545   1.328  15.501  1.5301 -2.4982  2.4152
14509TIP3    H265019   6.650   1.422  15.446 -1.5033 -0.0157  0.6479
14510TIP3   OH265020   1.126   6.772  14.655  0.2359 -0.2646 -0.3340
14510TIP3    H165021   1.137   6.809  14.742 -1.6625 -0.0200 -0.1631
14510TIP3    H265022   1.166   6.836  14.596  0.0279  0.4032  0.2413
14511TIP3   OH265023   6.540   4.390   4.658  0.0480 -0.4772 -0.1526
14511TIP3    H165024   6.550   4.332   4.734  1.2839  1.9552  1.5930
14511TIP3    H265025   6.445   4.398   4.647 -0.1704  0.0291  1.8453
14512TIP3   OH265026   6.043   2.511  12.537  0.3237 -0.0179 -0.6346
14512TIP3    H165027   6.076   2.455  12.467 -0.1095 -0.7338 -0.2771
14512TIP3    H265028   6.038   2.454  12.613 -1.4488  0.1399 -0.6102
14513TIP3   OH265029   1.509   3.820   3.387 -0.2307 -0.5985 -0.5796
14513TIP3    H165030   1.433   3.815   3.445 -0.8443 -1.8760 -1.4496
14513TIP3    H265031   1.569   3.880   3.430 -3.1092  3.1203 -1.4719
14514TIP3   OH265032   2.714   5.181  16.541 -0.0025  0.4631  0.0156
14514TIP3    H165033   2.761   5.187  16.458 -0.7058  1.5187 -0.3089
14514TIP3    H265034   2.626   5.214  16.522 -0.3371  0.1761  1.0402
14515TIP3   OH265035   5.876   5.303  14.494 -0.4657 -0.2698 -0.2846
14515TIP3    H165036   5.957   5.355  14.495 -0.5720 -0.1112  1.3672
14515TIP3    H265037   5.816   5.350  14.551 -2.0081 -0.0011 -2.0488
14516TIP3   OH265038   6.699   1.795   0.350  0.0193 -0.9203  0.3058
14516TIP3    H165039   6.626   1.838   0.305  1.7334 -0.3005 -1.9945
14516TIP3    H265040   6.688   1.702   0.330  0.6737 -0.6681 -1.3503
14517TIP3   OH265041   0.729   1.341  11.693  0.2389 -0.1943  0.0784
14517TIP3    H165042   0.634   1.327  11.694  0.1094  0.4020 -1.8057
14517TIP3    H265043   0.750   1.365  11.783 -1.5171  0.4069  0.3563
14518TIP3   OH265044   3.052   2.339  15.791  0.4250 -0.2136  0.4609
14518TIP3    H165045   3.139   2.314  15.759  0.6961 -1.0894  1.8424
14518TIP3    H265046   3.065   2.427  15.827  0.4072  0.2503 -0.6631
14519TIP3   OH265047   2.673   4.086   5.719  0.3413  0.4532  0.2029
14519TIP3    H165048   2.596   4.066   5.772 -0.9804  0.8161 -1.5194
14519TIP3    H265049   2.691   4.005   5.671  2.1316 -0.1840  1.8921
14520TIP3   OH265050   1.312   4.318  16.217 -0.2627 -0.2063 -0.2069
14520TIP3    H165051   1.346   4.370  16.289  1.9819  1.1684 -2.1543
14520TIP3    H265052   1.276   4.240  16.258  0.7511  0.6379  2.3858
14521TIP3   OH265053   1.476   3.881  14.499 -0.3287  0.1040 -0.4373
14521TIP3    H165054   1.481   3.915  14.588 -0.1363 -0.7345 -0.1201
14521TIP3    H265055   1.567   3.871  14.472 -0.3796 -0.6003 -0.3540
14522TIP3   OH265056   3.011   0.190  13.910 -0.2484  0.5097  0.7018
14522TIP3    H165057   3.094   0.161  13.871 -0.7051  0.7709 -0.4724
14522TIP3    H265058   2.983   0.116  13.965  0.7941  0.4497  1.1738
14523TIP3   OH265059   5.559   4.590   0.017 -0.6121 -0.3985 -0.6500
14523TIP3    H165060   5.478   4.627   0.052 -0.3368 -0.5015  0.1107
14523TIP3    H265061   5.531   4.522  -0.044 -1.0995 -2.4229  1.7279
14524TIP3   OH265062   6.498   1.159   2.597 -0.4496  0.0912  0.7204
14524TIP3    H165063   6.482   1.082   2.651 -1.5727  0.7034  1.2900
14524TIP3    H265064   6.579   1.196   2.632  0.9625 -1.6880 -0.5869
14525TIP3   OH265065   2.452   1.926   5.259 -0.4761  0.0346  0.6630
14525TIP3    H165066   2.481   1.909   5.349  0.4887 -0.6118  0.2432
14525TIP3    H265067   2.442   2.021   5.255  2.2927  0.3852  0.6601
14526TIP3   OH265068   4.926   1.759  14.683 -0.0888 -0.2669  0.0190
14526TIP3    H165069   4.913   1.837  14.737  1.3767 -0.1048  0.1648
14526TIP3    H265070   4.865   1.770  14.611 -0.8894  0.3330  0.7724
14527TIP3   OH265071   2.760   5.745   4.921 -0.3604 -0.0164 -0.3230
14527TIP3    H165072   2.707   5.822   4.903 -2.2416 -1.0049  0.8447
14527TIP3    H265073   2.846   5.780   4.945 -0.6066  1.6164 -1.7665
14528TIP3   OH265074   2.620   5.080   5.053 -0.1686 -0.0414  0.3765
14528TIP3    H165075   2.670   5.034   4.985  2.2845  2.3482  0.4688
14528TIP3    H265076   2.621   5.021   5.128  1.3756 -0.6300 -0.0855
14529TIP3   OH265077   4.204   4.917  15.365  0.1146 -0.2691 -0.0154
14529TIP3    H165078   4.223   4.829  15.399 -1.0364 -0.0281  1.3259
14529TIP3    H265079   4.108   4.919  15.359  0.1499  0.8526 -0.1699
14530TIP3   OH265080   3.692   4.488  14.646  0.0715  0.6761  0.1118
14530TIP3    H165081   3.723   4.412  14.596  0.4681  1.4525 -0.8287
14530TIP3    H265082   3.741   4.562  14.611 -2.2138  1.7982 -0.8181
14531TIP3   OH265083   0.407   0.193  16.848 -0.6756 -0.4511 -0.0434
14531TIP3    H165084   0.334   0.176  16.908 -1.8944  1.3751 -0.9595
14531TIP3    H265085   0.477   0.135  16.878 -1.4955 -0.0964  2.6954
14532TIP3   OH265086   4.701   1.210   2.001  0.0270 -0.2589 -0.4353
14532TIP3    H165087   4.741   1.232   2.086  1.2410  2.7517 -1.7285
14532TIP3    H265088   4.650   1.287   1.978  1.1222 -0.3355 -3.2645
14533TIP3   OH265089   1.345   4.489   5.635 -0.2940  0.7512 -0.1110
14533TIP3    H165090   1.270   4.447   5.593 -0.8785  1.8355 -0.1637
14533TIP3    H265091   1.331   4.583   5.622  1.9896  0.9256 -1.7277
14534TIP3   OH265092   4.657   0.969   2.592 -0.6155 -0.5491  0.1785
14534TIP3    H165093   4.644   1.058   2.560 -0.2832 -0.5851 -0.0568
14534TIP3    H265094   4.743   0.943   2.557 -0.1161 -0.4818  1.3428
14535TIP3   OH265095   4.601   6.297   5.599 -0.0738  0.5135 -0.0573
14535TIP3    H165096   4.509   6.304   5.625 -0.7661 -0.8873 -1.9560
14535TIP3    H265097   4.623   6.383   5.563 -1.5590 -0.0070 -2.3108
14536TIP3   OH265098   2.415   4.871  13.254 -0.5932  0.5851 -0.4590
14536TIP3    H165099   2.379   4.796  13.206 -0.4300  0.0636  0.2226
14536TIP3    H265100   2.475   4.832  13.318  1.0595  1.4393 -1.4655
14537TIP3   OH265101   3.130   3.464  11.453  0.1116  0.1989 -0.2422
14537TIP3    H165102   3.143   3.551  11.490  0.1469  1.4273 -2.9972
14537TIP3    H265103   3.192   3.409  11.500  0.0115  1.6248  1.6262
14538TIP3   OH265104   1.693   4.568  12.323  0.0346  0.3378 -0.4405
14538TIP3    H165105   1.756   4.634  12.293  0.1729  0.2624 -0.3198
14538TIP3    H265106   1.696   4.500  12.256 -0.1044  0.4531 -0.5616
14539TIP3   OH265107   2.177   5.616   2.153  0.0295 -0.2988 -0.6808
14539TIP3    H165108   2.251   5.660   2.195 -0.9885  1.6474 -0.9106
14539TIP3    H265109   2.119   5.592   2.225 -0.9081  1.5392 -0.8064
14540TIP3   OH265110   3.623   3.586  10.579 -0.2712  0.2258 -0.1051
14540TIP3    H165111   3.581   3.594  10.494  0.5893 -1.2139 -0.6851
14540TIP3    H265112   3.716   3.586  10.560 -0.0551  0.9041  0.9300
14541TIP3   OH265113   4.585   4.668  17.234 -0.5405  0.3084 -0.1888
14541TIP3    H165114   4.506   4.635  17.192 -1.9944  1.5914  1.4754
14541TIP3    H265115   4.584   4.762  17.215  0.2934  0.4215  0.3102
14542TIP3   OH265116   3.768   1.107   5.273 -0.0815  0.2043 -0.4062
14542TIP3    H165117   3.833   1.039   5.254 -0.0079  0.7344 -2.1339
14542TIP3    H265118   3.784   1.130   5.364  0.3205 -1.6452  0.0117
14543TIP3   OH265119   2.566   4.863   3.675  0.5006 -0.1605 -0.2981
14543TIP3    H165120   2.514   4.866   3.595 -0.5377  0.1985  0.3834
14543TIP3    H265121   2.657   4.863   3.645  0.1081 -1.9863 -1.5303
14544TIP3   OH265122   4.528   3.296  14.787  0.3641 -0.2243 -0.4144
14544TIP3    H165123   4.570   3.381  14.800  0.2362 -0.2490  0.1822
14544TIP3    H265124   4.464   3.290  14.858 -1.2045  0.1526 -1.7582
14545TIP3   OH265125   2.786   2.306  10.880 -0.3192  0.4034  0.3891
14545TIP3    H165126   2.844   2.321  10.806 -2.1043 -1.1679 -1.4042
14545TIP3    H265127   2.822   2.229  10.924 -0.4661  0.0181 -0.1537
14546TIP3   OH265128   2.392   2.398   1.316 -0.2384 -0.6341 -0.0868
14546TIP3    H165129   2.440   2.470   1.276  0.8063 -0.1884  1.9079
14546TIP3    H265130   2.434   2.319   1.282  0.0438 -0.2693 -0.5866
14547TIP3   OH265131   6.068   0.795  15.781 -0.0300 -0.3931  0.0474
14547TIP3    H165132   6.100   0.861  15.720 -3.5772  1.2187 -0.1828
14547TIP3    H265133   6.059   0.840  15.864  1.7364 -1.7856  1.0450
14548TIP3   OH265134   2.875   5.479  17.259  0.4072  0.0947 -0.0374
14548TIP3    H165135   2.880   5.384  17.265  0.1265 -0.0036 -1.1312
14548TIP3    H265136   2.946   5.511  17.315 -1.4006 -0.6563  2.7773
14549TIP3   OH265137   0.321   4.709  14.786  0.4741 -0.2357  0.0454
14549TIP3    H165138   0.320   4.799  14.820  0.4562 -0.1661 -0.1334
14549TIP3    H265139   0.353   4.719  14.696  0.2556 -0.3826 -0.0471
14550TIP3   OH265140   2.964   2.701  13.942 -0.1444 -0.3959 -0.3240
14550TIP3    H165141   3.002   2.746  14.018 -0.9763 -2.9391  1.6671
14550TIP3    H265142   2.871   2.697  13.961 -0.0652 -3.0826 -0.3513
14551TIP3   OH265143   5.839   3.472   4.573  0.1760  0.0874  0.0077
14551TIP3    H165144   5.871   3.427   4.494  0.6202  0.4133  0.0011
14551TIP3    H265145   5.758   3.515   4.545 -0.7449 -1.4334  0.2351
14552TIP3   OH265146   6.459   6.335   5.792  0.1130 -0.7709 -0.5607
14552TIP3    H165147   6.539   6.282   5.792  0.4120 -0.3456 -1.8602
14552TIP3    H265148   6.430   6.335   5.883  1.2672 -1.4295 -0.1842
14553TIP3   OH265149   4.843   4.079  13.049 -0.5273  0.0060 -0.7010
14553TIP3    H165150   4.801   3.993  13.037 -1.4029  0.1695  1.0589
14553TIP3    H265151   4.791   4.121  13.117  2.3371  0.3159  1.3627
14554TIP3   OH265152   5.091   5.919  15.581 -0.1589 -0.3257 -0.1086
14554TIP3    H165153   5.131   6.006  15.573  0.9978 -0.7139  1.2165
14554TIP3    H265154   5.089   5.903  15.675 -2.0088 -0.9958 -0.2439
14555TIP3   OH265155   1.055   5.362   1.879  0.0294 -0.2850 -0.0309
14555TIP3    H165156   0.997   5.436   1.860  0.1651 -0.5561 -1.6160
14555TIP3    H265157   1.142   5.392   1.851  0.2644 -0.6627  0.2999
14556TIP3   OH265158   4.881   1.130  13.625 -0.2582  0.4957 -0.5144
14556TIP3    H165159   4.894   1.055  13.566  0.6749  1.9226 -2.1722
14556TIP3    H265160   4.873   1.205  13.566 -1.9105  1.6183  1.0993
14557TIP3   OH265161   5.202   4.290  13.954  0.0555  0.0867  0.4186
14557TIP3    H165162   5.194   4.306  14.048  1.0340 -0.0478  0.5311
14557TIP3    H265163   5.219   4.376  13.916 -0.5941  0.1777  0.3348
14558TIP3   OH265164   3.035   0.935  10.832  0.6461  0.3653  0.1695
14558TIP3    H165165   3.128   0.934  10.858  0.9300  1.8572 -0.7353
14558TIP3    H265166   3.037   0.924  10.736 -0.2390 -1.8859  0.3633
14559TIP3   OH265167   3.674   6.315   1.553 -0.1608 -0.5705 -0.0421
14559TIP3    H165168   3.592   6.309   1.602  0.5352 -2.0566  0.9691
14559TIP3    H265169   3.704   6.225   1.546  2.0906  0.0833  0.7925
14560TIP3   OH265170   4.636   1.355  14.853  0.2372  0.3795 -0.0880
14560TIP3    H165171   4.580   1.403  14.793 -1.2099 -0.0428  0.9031
14560TIP3    H265172   4.648   1.269  14.812 -1.9758 -0.4357  0.8994
14561TIP3   OH265173   0.358   0.082  14.962  0.1038 -0.0031 -0.2597
14561TIP3    H165174   0.430   0.072  15.024  1.1715 -2.6449 -1.8494
14561TIP3    H265175   0.345   0.177  14.956  2.3754  0.4480  1.2443
14562TIP3   OH265176   6.139   4.302  14.005  0.2574  0.4116 -0.6215
14562TIP3    H165177   6.131   4.213  13.973 -1.3363  0.9337 -1.7093
14562TIP3    H265178   6.232   4.324  13.992  0.2751 -0.4555 -2.0020
14563TIP3   OH265179   2.716   5.963   2.232 -0.0130  0.0445 -0.2411
14563TIP3    H165180   2.767   6.029   2.279  0.1863  0.1479 -0.6046
14563TIP3    H265181   2.780   5.902   2.197 -0.3200 -1.5989  1.9645
14564TIP3   OH265182   4.528   5.194  13.861  0.1769 -0.2122  0.2002
14564TIP3    H165183   4.583   5.126  13.821 -1.4457 -0.6209 -1.3699
14564TIP3    H265184   4.525   5.264  13.796 -1.1700 -0.1930  0.2882
14565TIP3   OH265185   3.000   5.404   3.076 -0.4853  0.0208  0.6511
14565TIP3    H165186   3.085   5.359   3.070  0.5502  1.6569  2.4320
14565TIP3    H265187   3.010   5.483   3.024 -0.6286  0.6172  1.5123
14566TIP3   OH265188   3.023   1.902  12.835  0.2584  0.1811  0.2645
14566TIP3    H165189   2.938   1.943  12.819  0.7296  1.5813  1.3296
14566TIP3    H265190   3.078   1.932  12.762  0.2581  0.4467  0.3752
14567TIP3   OH265191   4.217   1.073  13.436  0.3632  0.3254 -0.0727
14567TIP3    H165192   4.221   1.041  13.346 -0.5605  1.5105 -0.5556
14567TIP3    H265193   4.179   1.161  13.429 -1.6794 -0.3784  1.6699
14568TIP3   OH265194   4.761   1.394   2.233  0.7170 -0.2120 -0.0988
14568TIP3    H165195   4.812   1.458   2.282  2.6768 -0.6444 -1.5297
14568TIP3    H265196   4.818   1.318   2.225 -0.7619 -1.3300 -0.3246
14569TIP3   OH265197   5.434   0.234  16.690 -0.5315 -0.3881 -0.0482
14569TIP3    H165198   5.411   0.292  16.763  0.4052 -0.2997  0.1694
14569TIP3    H265199   5.380   0.155  16.704 -1.3083  0.1450  0.0166
14570TIP3   OH265200   3.642   6.261  16.380 -0.2405 -0.4805  0.5411
14570TIP3    H165201   3.721   6.254  16.326  0.6357  0.5104  1.6628
14570TIP3    H265202   3.571   6.233  16.323  1.0508 -2.3831 -0.1800
14571TIP3   OH265203   2.415   3.204   2.800  0.2933 -0.7798 -0.3082
14571TIP3    H165204   2.449   3.232   2.715 -0.8870 -2.0711 -1.2211
14571TIP3    H265205   2.461   3.122   2.819 -0.3027 -1.0973 -0.2437
14572TIP3   OH265206   0.964   4.562   4.776 -0.2880  0.2777 -0.4015
14572TIP3    H165207   1.044   4.514   4.794 -0.3332 -0.1280 -1.2406
14572TIP3    H265208   0.930   4.523   4.695 -0.5246  1.4744 -0.8920
14573TIP3   OH265209   6.345   4.261   1.386  0.2416 -0.8242  0.2737
14573TIP3    H165210   6.336   4.221   1.300  0.9974 -0.9602  0.2460
14573TIP3    H265211   6.439   4.280   1.393 -0.1222  1.0765  0.2398
14574TIP3   OH265212   0.661   5.857   1.458 -0.0525  0.4930  0.2176
14574TIP3    H165213   0.715   5.782   1.484 -0.5739 -0.5752 -1.7166
14574TIP3    H265214   0.690   5.878   1.370 -1.0464  1.5248  0.1332
14575TIP3   OH265215   1.495   5.162  12.656  0.0821  0.2133  0.6783
14575TIP3    H165216   1.408   5.125  12.642  0.6724 -0.4211 -1.5169
14575TIP3    H265217   1.483   5.257  12.648 -0.5514  0.1741  1.2073
14576TIP3   OH265218   5.201   4.076  11.550 -0.0405  0.4116  0.3807
14576TIP3    H165219   5.143   4.144  11.583  1.8678  1.5764  1.4115
14576TIP3    H265220   5.285   4.119  11.539  0.8074 -1.4043 -0.4633
14577TIP3   OH265221   2.629   3.527  17.186 -0.0770  0.1079  0.5900
14577TIP3    H165222   2.708   3.580  17.198  0.1296 -0.5369  2.2430
14577TIP3    H265223   2.557   3.587  17.202  0.0464  0.6991 -0.9194
14578TIP3   OH265224   0.914   1.343  12.160  0.5058 -0.4281  0.4067
14578TIP3    H165225   0.882   1.259  12.194 -0.5665 -0.3043 -0.2781
14578TIP3    H265226   1.009   1.338  12.171  0.4818 -1.8481  0.1453
14579TIP3   OH265227   3.840   5.542  16.760 -0.3464  0.5301 -0.5922
14579TIP3    H165228   3.935   5.530  16.754 -0.4670 -0.9948  0.1190
14579TIP3    H265229   3.827   5.589  16.842 -0.3119 -1.2001  0.4460
14580TIP3   OH265230   6.003   3.286   4.713  0.7174  0.1270 -0.2257
14580TIP3    H165231   5.948   3.208   4.724  1.8169 -0.5564  0.5794
14580TIP3    H265232   5.941   3.358   4.700 -0.2507 -1.1793 -3.0472
14581TIP3   OH265233   3.367   0.104   1.672 -0.2164 -0.0203 -0.7815
14581TIP3    H165234   3.371   0.184   1.724 -1.2022  0.7629 -1.8878
14581TIP3    H265235   3.300   0.121   1.606 -0.6119 -1.8485 -0.8864
14582TIP3   OH265236   4.231   5.834   0.014 -0.0843  0.2218  0.5246
14582TIP3    H165237   4.242   5.927  -0.004 -1.8461  0.0006 -2.0938
14582TIP3    H265238   4.138   5.824   0.035 -0.6196 -1.2959 -2.2115
14583TIP3   OH265239   1.097   3.117  12.386  0.5475  0.1749 -0.4974
14583TIP3    H165240   1.042   3.040  12.370 -0.7107  0.7542  0.8891
14583TIP3    H265241   1.035   3.186  12.410  1.8293  1.0269  0.4375
14584TIP3   OH265242   3.722   4.166  14.353  0.3878 -0.2491 -0.0325
14584TIP3    H165243   3.790   4.232  14.362 -1.3015  1.2551  2.6147
14584TIP3    H265244   3.751   4.110  14.281  2.6168  2.4513 -1.3205
14585TIP3   OH265245   4.341   5.599   3.950 -0.6982  0.2575  0.6559
14585TIP3    H165246   4.412   5.647   3.907 -0.0958 -1.1473  0.0434
14585TIP3    H265247   4.268   5.603   3.888  0.1804 -1.7926 -0.5740
14586TIP3   OH265248   0.934   1.288  15.926  0.1701 -0.0755 -0.0040
14586TIP3    H165249   0.912   1.284  15.832 -0.2910  1.1414  0.0337
14586TIP3    H265250   0.983   1.208  15.943  2.2206  0.7499 -1.8113
14587TIP3   OH265251   4.047   2.555  10.834 -0.4625 -0.1021 -0.2913
14587TIP3    H165252   3.974   2.504  10.867 -0.3564  0.7222  1.2348
14587TIP3    H265253   4.023   2.576  10.744 -0.7122 -2.4365 -0.7883
14588TIP3   OH265254   0.251   4.772  12.433  0.4527 -0.2711  0.0241
14588TIP3    H165255   0.320   4.782  12.498 -1.4537  1.4752  1.8999
14588TIP3    H265256   0.290   4.804  12.351  1.5737  1.6372  1.2560
14589TIP3   OH265257   4.489   4.127  11.666 -0.0229  0.3495  0.0245
14589TIP3    H165258   4.493   4.178  11.746  2.6997 -0.7687  0.6423
14589TIP3    H265259   4.545   4.174  11.604 -0.1780 -0.0775 -0.4471
14590TIP3   OH265260   5.965   0.693   5.748 -0.6493 -0.0697 -0.2511
14590TIP3    H165261   5.938   0.658   5.662 -0.3377 -0.3314 -0.2397
14590TIP3    H265262   5.885   0.690   5.800 -0.9480  0.5014 -0.6704
14591TIP3   OH265263   5.095   5.895   6.351  1.0679 -0.2171 -0.8053
14591TIP3    H165264   5.054   5.971   6.310 -0.1470 -0.9797 -1.0016
14591TIP3    H265265   5.151   5.933   6.420 -0.2588  0.8083 -0.2604
14592TIP3   OH265266   4.882   2.380  11.723  0.2146 -0.1411  0.0337
14592TIP3    H165267   4.888   2.460  11.776 -0.1687  0.3295 -0.6245
14592TIP3    H265268   4.971   2.346  11.722  0.1559 -0.3680  1.3008
14593TIP3   OH265269   0.436   6.119  13.243  0.1029  0.4229  0.0181
14593TIP3    H165270   0.376   6.187  13.274  0.0429  0.9629 -1.2475
14593TIP3    H265271   0.380   6.042  13.230 -0.2062  0.7314 -0.5138
14594TIP3   OH265272   0.282   3.118   5.350 -0.5263  0.3395 -0.1890
14594TIP3    H165273   0.366   3.103   5.305 -0.9094 -0.1621 -0.7350
14594TIP3    H265274   0.287   3.064   5.429 -0.4464  0.1039 -0.3560
14595TIP3   OH265275   2.619   0.021   3.367  0.1801 -0.3276 -0.0088
14595TIP3    H165276   2.699   0.022   3.420  0.6459  0.4163 -0.7216
14595TIP3    H265277   2.548   0.012   3.431  0.7853 -0.2537  0.6794
14596TIP3   OH265278   5.543   2.783   4.442  0.1017  0.7756 -0.4702
14596TIP3    H165279   5.602   2.735   4.383 -0.0838 -1.9555  1.5102
14596TIP3    H265280   5.475   2.720   4.465 -1.3203  2.6390  0.5634
14597TIP3   OH265281   0.528   2.101  12.664 -0.4457  0.4403 -0.5356
14597TIP3    H165282   0.513   2.081  12.572 -1.0978 -0.0526 -0.3204
14597TIP3    H265283   0.448   2.074  12.709  0.8872 -1.8856  0.5544
14598TIP3   OH265284   0.358   0.728  12.840  0.5700  0.0600  0.7640
14598TIP3    H165285   0.397   0.808  12.875 -0.1267  0.3229  0.9613
14598TIP3    H265286   0.364   0.664  12.912 -0.7957  0.5787  1.3624
14599TIP3   OH265287   6.379   4.174  15.896 -0.5713  0.0848  0.3439
14599TIP3    H165288   6.287   4.200  15.896 -0.0520  2.0492 -0.0331
14599TIP3    H265289   6.388   4.114  15.970 -1.7142  1.5046  1.6672
14600TIP3   OH265290   4.152   2.355  16.046  0.1441  0.1045  0.0098
14600TIP3    H165291   4.231   2.400  16.075  0.2942  0.0260 -0.2677
14600TIP3    H265292   4.097   2.425  16.009 -0.4333  0.3354  1.3022
14601TIP3   OH265293   0.395   1.090   0.916  0.1588  0.3046 -0.5763
14601TIP3    H165294   0.488   1.091   0.938 -0.1451  0.2611  0.7770
14601TIP3    H265295   0.360   1.170   0.957 -0.4989  0.0256 -0.5927
14602TIP3   OH265296   5.132   6.083   3.430  0.3010  0.0701 -0.3903
14602TIP3    H165297   5.095   6.000   3.459  1.0167  0.1211  0.7114
14602TIP3    H265298   5.225   6.078   3.454 -0.1589  2.1866  2.0492
14603TIP3   OH265299   6.505   0.855   4.931  0.2660 -0.5368  0.0444
14603TIP3    H165300   6.535   0.905   4.854  0.9880  0.7408  1.1274
14603TIP3    H265301   6.463   0.920   4.987  1.2441 -1.1202  1.4973
14604TIP3   OH265302   1.784   2.615   4.602  0.5382  0.8558 -0.2092
14604TIP3    H165303   1.721   2.561   4.649 -0.7011  2.2059 -0.2805
14604TIP3    H265304   1.826   2.667   4.671  1.5438 -0.0088 -0.1656
14605TIP3   OH265305   4.125   0.187   2.997  0.2344 -0.4182  0.2221
14605TIP3    H165306   4.134   0.277   3.027  1.7522 -0.0678 -1.1742
14605TIP3    H265307   4.142   0.133   3.074  0.2979  0.4829  0.8377
14606TIP3   OH265308   3.088   6.293  16.345 -0.0762 -0.8390  0.1322
14606TIP3    H165309   3.050   6.365  16.295 -0.1103 -0.6221  0.4741
14606TIP3    H265310   3.166   6.267  16.295  0.3120 -0.1266  0.3761
14607TIP3   OH265311   1.436   2.966  13.104 -0.0260 -0.1101 -0.1164
14607TIP3    H165312   1.359   3.013  13.138  0.8146  0.1333  1.4727
14607TIP3    H265313   1.424   2.968  13.009 -1.0618  1.5267  0.0144
14608TIP3   OH265314   2.153   2.724   1.215  0.6821 -0.4351 -0.0024
14608TIP3    H165315   2.093   2.798   1.205  2.5542  1.0936 -0.1889
14608TIP3    H265316   2.096   2.650   1.238 -1.2141  1.0504  0.2126
14609TIP3   OH265317   6.766   3.092   0.296 -0.2237 -0.9586 -0.3237
14609TIP3    H165318   6.850   3.077   0.253  0.0373  0.0534 -0.1841
14609TIP3    H265319   6.749   3.185   0.283 -0.0180 -0.5760  1.9638
14610TIP3   OH265320   0.201   1.722  14.679  0.1493  0.9830 -0.6621
14610TIP3    H165321   0.263   1.650  14.663  0.7840  1.1977  0.7532
14610TIP3    H265322   0.127   1.680  14.722  0.2502  1.0766 -0.3989
14611TIP3   OH265323   5.059   0.870  17.065 -0.1741  0.4190 -0.5732
14611TIP3    H165324   4.976   0.907  17.036  0.4184  1.0237 -1.4774
14611TIP3    H265325   5.124   0.899  17.001  0.9702  0.9707  0.7936
14612TIP3   OH265326   5.868   4.821   3.122  0.0588  0.1552 -0.2019
14612TIP3    H165327   5.813   4.752   3.085  2.4785 -1.7151 -0.4092
14612TIP3    H265328   5.864   4.892   3.058 -0.5421 -0.7230 -1.1496
14613TIP3   OH265329   3.827   1.906  14.617 -0.0420 -0.6859 -0.0100
14613TIP3    H165330   3.746   1.856  14.626 -0.8468  0.4832 -0.6160
14613TIP3    H265331   3.813   1.985  14.669  0.0421  0.3067 -1.4535
14614TIP3   OH265332   0.069   1.296  14.576 -0.4655 -0.3184  0.2600
14614TIP3    H165333   0.058   1.368  14.637  1.0434  0.2580 -0.1323
14614TIP3    H265334   0.048   1.218  14.627 -1.6410  0.3442  0.8179
14615TIP3   OH265335   4.975   5.269   4.124  0.4927 -0.3358 -0.5080
14615TIP3    H165336   5.041   5.199   4.129  1.2205  0.3685 -0.1531
14615TIP3    H265337   5.013   5.341   4.173 -0.3797  0.2204 -0.6440
14616TIP3   OH265338   2.096   6.332  16.912  0.2107  0.1913  0.3872
14616TIP3    H165339   2.149   6.356  16.988  2.1790 -3.8540  0.4367
14616TIP3    H265340   2.142   6.370  16.837  1.1588 -0.1482  0.7911
14617TIP3   OH265341   3.918   3.253   5.755  0.7860  0.2912  0.1482
14617TIP3    H165342   3.901   3.331   5.809  1.5490  0.4005  0.2297
14617TIP3    H265343   4.012   3.255   5.739  0.9208 -1.0142  0.7475
14618TIP3   OH265344   4.673   3.359  15.726  0.2638 -0.3649 -0.4685
14618TIP3    H165345   4.699   3.353  15.818 -1.5650 -2.2776 -0.0244
14618TIP3    H265346   4.753   3.382  15.679  0.7108  3.0791  1.8637
14619TIP3   OH265347   2.103   4.789   0.009 -0.0304  0.0369 -0.1290
14619TIP3    H165348   2.095   4.695  -0.005  1.4274  0.2482 -2.8230
14619TIP3    H265349   2.197   4.806  -0.000 -0.5054  2.0171 -1.7639
14620TIP3   OH265350   5.531   0.874  10.479 -0.0162  0.0441 -0.1455
14620TIP3    H165351   5.459   0.814  10.462  0.6598 -0.3525 -1.6976
14620TIP3    H265352   5.574   0.838  10.557 -0.8733 -0.2886  0.1794
14621TIP3   OH265353   0.073   1.967   5.720 -0.9041  0.0110  0.6184
14621TIP3    H165354   0.163   1.996   5.735  0.2190 -2.7731 -0.4141
14621TIP3    H265355   0.062   1.972   5.625 -1.0887 -1.7529  0.5398
14622TIP3   OH265356   2.933   1.984   0.652  0.0484 -0.0079 -0.0916
14622TIP3    H165357   2.857   2.041   0.667  0.5523  0.4439  0.8241
14622TIP3    H265358   2.898   1.895   0.658 -0.6485  0.1971 -0.9958
14623TIP3   OH265359   5.044   6.100   1.601 -0.2896  0.5752  0.2216
14623TIP3    H165360   5.045   6.098   1.505  1.4764  1.8475  0.1968
14623TIP3    H265361   4.989   6.025   1.625  0.4290 -0.6407 -1.7514
14624TIP3   OH265362   5.454   4.369  10.821  0.1386 -0.0101 -0.1682
14624TIP3    H165363   5.511   4.292  10.815  0.6974  0.3185  0.8008
14624TIP3    H265364   5.513   4.444  10.815 -0.1314  0.3341  1.2204
14625TIP3   OH265365   2.621   1.878  11.020 -0.4967  0.3236  0.2192
14625TIP3    H165366   2.647   1.945  11.083  2.1699  0.5325 -0.9979
14625TIP3    H265367   2.584   1.927  10.947  1.8735  0.5579 -0.8655
14626TIP3   OH265368   4.643   3.624  10.966 -0.3682  0.6495 -0.1480
14626TIP3    H165369   4.608   3.558  10.906 -0.0817  0.0011  0.3882
14626TIP3    H265370   4.710   3.669  10.915  1.7744 -1.6938  0.5178
14627TIP3   OH265371   1.207   6.304   5.348 -0.5151  0.4771 -0.5309
14627TIP3    H165372   1.234   6.237   5.410 -0.6310 -0.0530 -1.0481
14627TIP3    H265373   1.128   6.342   5.387 -1.5980 -1.0543 -1.1924
14628TIP3   OH265374   0.883   3.412  16.659  0.0104  0.0369 -0.7741
14628TIP3    H165375   0.865   3.506  16.659 -0.7147 -0.0928  0.5746
14628TIP3    H265376   0.800   3.372  16.631 -0.8629 -0.3852  2.2233
14629TIP3   OH265377   4.354   3.428   0.797 -0.1943  0.5081  0.2825
14629TIP3    H165378   4.313   3.351   0.758 -2.7481  1.5370  0.8343
14629TIP3    H265379   4.440   3.398   0.826 -1.3126 -2.2400  0.8717
14630TIP3   OH265380   6.753   0.206  14.940 -0.3223 -0.0773 -0.1040
14630TIP3    H165381   6.679   0.165  14.983 -0.4873 -0.6756 -0.9429
14630TIP3    H265382   6.815   0.134  14.924  1.3153  0.7249  2.3473
14631TIP3   OH265383   0.556   3.797  13.344 -0.1309  0.0827  0.6306
14631TIP3    H165384   0.572   3.842  13.427 -0.4203  0.3357  0.5490
14631TIP3    H265385   0.541   3.867  13.281 -1.2494 -0.1287  0.6407
14632TIP3   OH265386   3.015   3.646  14.099  0.4631  0.2520  0.1704
14632TIP3    H165387   2.956   3.593  14.152  2.6576 -0.2667  2.1728
14632TIP3    H265388   3.005   3.610  14.010 -0.3375 -1.5015  0.9311
14633TIP3   OH265389   2.525   3.402   0.103 -0.1953  0.1091 -0.2837
14633TIP3    H165390   2.575   3.444   0.173  0.6618 -1.8729  0.3316
14633TIP3    H265391   2.568   3.430   0.023  1.6570 -1.1976  0.2193
14634TIP3   OH265392   4.590   4.170  14.986  0.1618  0.1026 -0.1972
14634TIP3    H165393   4.536   4.132  15.055  0.6795 -0.8237 -0.2949
14634TIP3    H265394   4.670   4.199  15.030 -0.6539  2.0824  0.0690
14635TIP3   OH265395   1.657   6.466  13.839 -0.0661 -0.2202  0.4261
14635TIP3    H165396   1.675   6.384  13.793  1.5528  0.0723  0.5172
14635TIP3    H265397   1.717   6.529  13.801 -0.8980  0.7923  0.7660
14636TIP3   OH265398   4.856   5.018  15.584  0.2731 -0.6442 -0.0729
14636TIP3    H165399   4.773   5.035  15.628  1.1044  0.6942  1.0034
14636TIP3    H265400   4.876   4.927  15.605 -0.2019 -0.5322  0.8815
14637TIP3   OH265401   6.230   0.187   3.566 -0.4540 -0.0489 -0.1949
14637TIP3    H165402   6.281   0.107   3.556 -1.3134 -0.8827  1.8315
14637TIP3    H265403   6.139   0.158   3.561 -0.7729  0.8153  0.5153
14638TIP3   OH265404   4.162   3.099  17.238 -0.3738 -0.4361  0.5917
14638TIP3    H165405   4.125   3.173  17.191 -1.6852 -0.7904  1.0528
14638TIP3    H265406   4.122   3.022  17.198 -0.4492 -0.8064  1.3729
14639TIP3   OH265407   4.962   1.032   5.262 -0.0635 -0.5185  0.0018
14639TIP3    H165408   4.971   0.968   5.191  0.8005 -0.9377  0.4873
14639TIP3    H265409   4.908   0.987   5.327 -0.8250 -0.1469 -0.3568
14640TIP3   OH265410   6.450   4.523  16.409 -0.2056 -0.5147 -0.1809
14640TIP3    H165411   6.403   4.536  16.327  0.4273  0.8581 -0.3351
14640TIP3    H265412   6.384   4.538  16.477 -0.0442  1.2565 -0.3947
14641TIP3   OH265413   1.906   3.007   3.359  0.0279 -0.5856  0.1474
14641TIP3    H165414   1.885   3.087   3.310  1.4312 -0.0579  0.3745
14641TIP3    H265415   1.824   2.984   3.403  0.0455  1.7435  1.4830
14642TIP3   OH265416   1.771   5.853  14.405 -0.0642  0.0317  0.3457
14642TIP3    H165417   1.806   5.864  14.493 -0.6010  1.1801  0.4265
14642TIP3    H265418   1.841   5.882  14.347 -0.2569  0.6886  0.4443
14643TIP3   OH265419   4.714   3.205   4.843 -0.3879  0.3301 -0.1431
14643TIP3    H165420   4.753   3.118   4.851 -0.4067  0.2647 -0.6865
14643TIP3    H265421   4.719   3.243   4.930 -1.6997 -0.7867  0.4379
14644TIP3   OH265422   0.141   3.388  16.019 -0.5504  0.0895  0.3691
14644TIP3    H165423   0.164   3.384  16.112 -1.8160  0.0761  0.6851
14644TIP3    H265424   0.168   3.475  15.991  0.3941 -0.1296  0.5971
14645TIP3   OH265425   4.551   5.280  16.541 -0.0216 -0.4042 -0.3027
14645TIP3    H165426   4.520   5.359  16.584  1.0558 -0.8115  1.2759
14645TIP3    H265427   4.476   5.220  16.544  0.4010 -0.8869  2.2247
14646TIP3   OH265428   1.246   4.170   3.255 -0.0672 -0.7244  0.4907
14646TIP3    H165429   1.221   4.149   3.345  0.3216 -0.5858  0.6351
14646TIP3    H265430   1.323   4.227   3.264  0.1664 -0.9626  0.0670
14647TIP3   OH265431   0.404   4.465  14.548  0.2500 -0.0363 -0.4718
14647TIP3    H165432   0.456   4.435  14.623 -0.0197 -0.7274 -0.5514
14647TIP3    H265433   0.415   4.560  14.547 -0.8319  0.1162  1.2415
14648TIP3   OH265434   1.549   5.170   1.317  0.3245 -0.1780  0.0475
14648TIP3    H165435   1.589   5.232   1.378  1.3859 -0.4031 -0.4088
14648TIP3    H265436   1.620   5.110   1.294 -0.4835 -1.0547 -0.1675
14649TIP3   OH265437   4.453   1.198  12.438 -0.3537 -0.1751 -0.4397
14649TIP3    H165438   4.528   1.153  12.477  0.2793  0.6642 -0.6724
14649TIP3    H265439   4.377   1.160  12.482  0.2993  0.1361  0.9829
14650TIP3   OH265440   2.668   4.226   1.777 -0.2516 -0.4334  0.6582
14650TIP3    H165441   2.624   4.300   1.734  0.0836 -0.6664 -0.0953
14650TIP3    H265442   2.615   4.210   1.855 -0.7325  0.1552  0.4666
14651TIP3   OH265443   0.555   4.884  14.891 -0.0002 -0.6944  0.5068
14651TIP3    H165444   0.601   4.861  14.810 -2.2647 -2.3176 -0.3456
14651TIP3    H265445   0.594   4.826  14.957  0.4179 -0.8139  0.1631
14652TIP3   OH265446   6.080   3.555   0.545  0.0305  0.1970 -0.1841
14652TIP3    H165447   6.144   3.522   0.608 -1.0484  0.7310  1.2277
14652TIP3    H265448   6.132   3.602   0.479  1.0441  1.2434  1.3352
14653TIP3   OH265449   2.856   2.757  11.593  0.0338  0.3964 -0.1220
14653TIP3    H165450   2.926   2.743  11.530 -0.0865  0.5765 -0.2949
14653TIP3    H265451   2.889   2.826  11.651 -0.4116  1.2202 -0.8266
14654TIP3   OH265452   5.902   5.987   4.744  0.0472  0.8204 -0.3282
14654TIP3    H165453   5.971   5.921   4.735  0.5124  0.8385  2.4283
14654TIP3    H265454   5.949   6.070   4.737 -0.1583  0.8481 -1.3819
14655TIP3   OH265455   3.019   4.435  10.719  0.3094 -0.2904 -0.5702
14655TIP3    H165456   3.026   4.358  10.663 -1.2316  0.4474 -1.8163
14655TIP3    H265457   3.088   4.494  10.687 -0.4041  0.0292 -1.5359
14656TIP3   OH265458   1.828   3.511  15.326  0.1270  0.1627 -0.1664
14656TIP3    H165459   1.798   3.570  15.257  0.8274 -0.0500 -0.6615
14656TIP3    H265460   1.913   3.479  15.294 -1.1121 -2.5923 -0.7894
14657TIP3   OH265461   0.536   0.526   0.367  0.0454 -0.6252  0.3697
14657TIP3    H165462   0.475   0.457   0.395 -0.7048 -0.1616 -0.0929
14657TIP3    H265463   0.608   0.522   0.429 -2.5108  1.7439  3.6438
14658TIP3   OH265464   6.597   2.051   5.475 -0.3428  0.3849 -0.4285
14658TIP3    H165465   6.636   2.112   5.413  1.9412  1.3005  1.8223
14658TIP3    H265466   6.539   2.106   5.528 -0.3741  0.0852 -0.1548
14659TIP3   OH265467   0.969   2.608   0.014 -0.0293  0.0501 -0.3080
14659TIP3    H165468   0.922   2.679   0.057  0.8273 -0.2814  1.2183
14659TIP3    H265469   1.000   2.646  -0.068 -1.2467  0.8463 -0.4231
14660TIP3   OH265470   3.135   4.082  17.210 -0.4198  0.2833  0.2153
14660TIP3    H165471   3.114   4.103  17.301  0.0277 -1.7222  0.8045
14660TIP3    H265472   3.223   4.043  17.214 -0.1453  0.7209 -1.1517
14661TIP3   OH265473   4.008   6.783  13.752  0.0957  1.1104 -0.5188
14661TIP3    H165474   4.047   6.733  13.824 -2.5200  1.1497  0.9810
14661TIP3    H265475   4.073   6.851  13.732  0.8718  1.1017  1.8011
14662TIP3   OH265476   6.378   5.089   1.985  0.1005 -0.1417 -0.2755
14662TIP3    H165477   6.308   5.025   1.995 -0.6436  0.9644  1.7199
14662TIP3    H265478   6.457   5.036   1.971 -1.0109 -1.3987 -2.0673
14663TIP3   OH265479   0.076   5.883  14.963 -0.9032  0.3486  0.9689
14663TIP3    H165480   0.111   5.808  14.915 -0.3128  0.2311  1.5827
14663TIP3    H265481   0.099   5.958  14.909  0.1751  0.2581  1.2868
14664TIP3   OH265482   4.335   0.531  13.974 -0.0425 -0.3433  0.0068
14664TIP3    H165483   4.393   0.607  13.965  1.6481 -1.3675  2.0708
14664TIP3    H265484   4.354   0.495  14.060 -2.7250 -1.5813  0.1515
14665TIP3   OH265485   6.143   3.160   4.299 -0.2043  0.5721 -0.3068
14665TIP3    H165486   6.160   3.090   4.236 -0.5089  0.0662  0.1787
14665TIP3    H265487   6.180   3.128   4.381  0.7727  1.5061 -0.3648
14666TIP3   OH265488   5.199   0.239   1.248 -0.4735 -0.4979  0.2410
14666TIP3    H165489   5.105   0.252   1.234 -0.1463  0.4089 -1.2006
14666TIP3    H265490   5.216   0.151   1.216 -0.7650 -0.5147  0.1313
14667TIP3   OH265491   6.611   1.295  11.713  0.0474  0.1950  0.3281
14667TIP3    H165492   6.668   1.224  11.681  0.3958  0.2685  0.7823
14667TIP3    H265493   6.522   1.263  11.698  0.1685  1.1237 -2.7841
14668TIP3   OH265494   4.861   2.167   3.332  0.2673 -0.1707 -0.3283
14668TIP3    H165495   4.778   2.176   3.285  0.5697 -0.0852 -0.8469
14668TIP3    H265496   4.908   2.248   3.312  0.4028 -0.1405  0.1117
14669TIP3   OH265497   5.546   4.505  11.608 -0.1589  0.2150  0.4756
14669TIP3    H165498   5.637   4.506  11.578  0.1983  0.4574  1.5495
14669TIP3    H265499   5.526   4.596  11.627 -0.4890  0.1068  0.6471
14670TIP3   OH265500   5.104   0.535  16.164 -0.2544  0.5085 -0.0960
14670TIP3    H165501   5.079   0.457  16.113 -1.1570  1.4910 -1.1868
14670TIP3    H265502   5.145   0.593  16.100  1.3809  0.5012  0.9366
14671TIP3   OH265503   6.131   4.608   5.133  0.4430 -0.4740  0.4959
14671TIP3    H165504   6.080   4.647   5.204 -0.0044  0.8766 -0.5548
14671TIP3    H265505   6.125   4.513   5.150  1.8210 -0.1252  3.2489
14672TIP3   OH265506   3.606   4.599   2.444 -0.7654  0.4117  0.5933
14672TIP3    H165507   3.531   4.557   2.485 -1.8205  0.8294 -0.8657
14672TIP3    H265508   3.595   4.583   2.350  0.0479  1.9218  0.2134
14673TIP3   OH265509   2.338   3.385  11.338 -0.0043  0.0108 -0.6031
14673TIP3    H165510   2.278   3.405  11.410  1.6218  1.5763  0.3560
14673TIP3    H265511   2.409   3.334  11.379 -1.2244 -2.9131 -1.9549
14674TIP3   OH265512   1.966   4.008  15.511 -0.6810 -0.5173 -0.5977
14674TIP3    H165513   1.872   4.025  15.517 -0.7648 -1.2109  0.2302
14674TIP3    H265514   1.982   3.940  15.577  0.7730  1.0946  0.7861
14675TIP3   OH265515   5.425   1.062   2.280 -0.4019 -0.3440 -0.3077
14675TIP3    H165516   5.489   1.004   2.237  0.7938  0.9125 -0.2668
14675TIP3    H265517   5.478   1.117   2.337 -1.5766  0.5469 -0.0686
14676TIP3   OH265518   6.506   0.317   0.845  0.0882 -0.5912  0.2246
14676TIP3    H165519   6.416   0.291   0.867 -0.2425 -0.2810 -0.7196
14676TIP3    H265520   6.550   0.326   0.929 -0.2887 -2.4610  0.6375
14677TIP3   OH265521   6.288   4.389   4.571  0.5847  0.2113 -0.0878
14677TIP3    H165522   6.250   4.476   4.581 -0.0658 -0.3066  2.1502
14677TIP3    H265523   6.262   4.361   4.483  0.0089  1.8779 -0.4589
14678TIP3   OH265524   5.823   5.380  14.203  0.5410 -0.0437  0.7175
14678TIP3    H165525   5.907   5.406  14.165  1.4611 -1.1159  1.9909
14678TIP3    H265526   5.846   5.335  14.284 -1.3396  0.7510  1.7065
14679TIP3   OH265527   6.126   0.416   5.215 -0.4222 -0.1188  0.1817
14679TIP3    H165528   6.221   0.411   5.231 -0.4804 -0.6743  0.3562
14679TIP3    H265529   6.113   0.372   5.131 -0.4834  0.2893 -0.0278
14680TIP3   OH265530   5.070   3.904  13.646  0.2970 -0.2202  0.7821
14680TIP3    H165531   5.028   3.907  13.732 -1.2874  1.7379 -0.0140
14680TIP3    H265532   4.998   3.911  13.584  1.6495  1.5428 -0.6488
14681TIP3   OH265533   0.562   1.975   0.147 -0.1938 -0.3642 -0.0853
14681TIP3    H165534   0.565   1.938   0.059  0.1653  0.2751 -0.3420
14681TIP3    H265535   0.603   1.909   0.203 -0.6230 -0.8646 -0.3610
14682TIP3   OH265536   5.948   6.179   1.955 -0.3569  0.3526  0.1455
14682TIP3    H165537   5.978   6.260   1.914 -0.2282 -0.1030 -0.6791
14682TIP3    H265538   6.026   6.124   1.961 -0.3149  0.5389  1.3019
14683TIP3   OH265539   3.290   2.324   1.700 -0.4761  0.1146 -0.3060
14683TIP3    H165540   3.277   2.230   1.702 -0.8611  0.1902  1.3715
14683TIP3    H265541   3.223   2.357   1.641 -0.2546 -0.6663 -1.0023
14684TIP3   OH265542   5.538   6.804  16.954 -0.2029  0.1043  0.4424
14684TIP3    H165543   5.509   6.883  17.000 -0.4028  0.1360  0.2602
14684TIP3    H265544   5.597   6.761  17.016 -0.4877  0.1376  0.7385
14685TIP3   OH265545   4.886   5.499  16.699 -0.9696 -0.1370  0.5399
14685TIP3    H165546   4.930   5.484  16.615  0.8901 -1.2226  1.6612
14685TIP3    H265547   4.829   5.574  16.684 -1.0723 -0.6677 -1.8400
14686TIP3   OH265548   2.762   3.050  11.595  0.1104  0.3733  0.1657
14686TIP3    H165549   2.850   3.086  11.606 -0.6795  2.1216  0.9389
14686TIP3    H265550   2.716   3.074  11.675 -0.5759 -2.0674  0.5288
14687TIP3   OH265551   6.794   2.863   0.757 -0.4965  0.7874 -0.2091
14687TIP3    H165552   6.814   2.840   0.848  2.4853 -0.2422 -1.0865
14687TIP3    H265553   6.784   2.778   0.713 -0.5643  1.2860 -1.1540
14688TIP3   OH265554   4.038   1.981  12.860 -0.2031  0.2200 -0.0961
14688TIP3    H165555   4.021   2.061  12.810  0.5102  0.4403  0.0008
14688TIP3    H265556   4.131   1.986  12.881 -0.5870  0.3845  1.6673
14689TIP3   OH265557   2.369   0.410  16.765  0.1728  1.2854 -0.0291
14689TIP3    H165558   2.461   0.428  16.748 -0.3472  1.6787 -2.6051
14689TIP3    H265559   2.328   0.496  16.769 -0.3483  1.0569 -0.4308
14690TIP3   OH265560   3.917   1.436   4.304 -0.1034 -0.5428  0.3020
14690TIP3    H165561   3.861   1.396   4.371 -1.1056  0.9205  0.3747
14690TIP3    H265562   4.006   1.427   4.337 -0.4014 -1.9097  0.7301
14691TIP3   OH265563   0.634   2.657  12.518 -0.2451  0.1494 -0.3128
14691TIP3    H165564   0.681   2.597  12.576 -0.0744 -0.0037 -0.6047
14691TIP3    H265565   0.596   2.723  12.576  0.2970  0.2487 -0.0697
14692TIP3   OH265566   4.307   1.396   1.938 -0.4153 -0.9127  0.1856
14692TIP3    H165567   4.224   1.399   1.890 -0.4785 -0.0145  0.3445
14692TIP3    H265568   4.284   1.362   2.024 -0.5295 -1.1798  0.0505
14693TIP3   OH265569   2.238   3.387  13.069 -0.2145 -0.0365 -0.5169
14693TIP3    H165570   2.190   3.470  13.063  0.0877  0.0745 -1.7253
14693TIP3    H265571   2.171   3.321  13.085 -0.3623  0.5387  1.3266
14694TIP3   OH265572   3.982   5.211   5.775 -0.1955  0.3907 -0.2876
14694TIP3    H165573   3.912   5.160   5.816 -1.6300  0.3513 -2.6807
14694TIP3    H265574   4.030   5.250   5.848 -1.1845 -1.5979  1.4739
14695TIP3   OH265575   1.742   1.517  13.834 -0.7455 -0.3141  0.5172
14695TIP3    H165576   1.816   1.460  13.811  1.3755  1.8272  1.7774
14695TIP3    H265577   1.719   1.559  13.751 -0.0238 -0.4307  0.2448
14696TIP3   OH265578   2.667   2.755  14.913  0.1955  0.1810 -0.0281
14696TIP3    H165579   2.743   2.742  14.970 -0.2564  0.3485  0.6258
14696TIP3    H265580   2.677   2.843  14.878 -0.4217  0.7543  1.1874
14697TIP3   OH265581   6.776   1.114  13.507 -0.5697  0.2322  0.7233
14697TIP3    H165582   6.684   1.132  13.529 -0.1441  2.2065  1.0265
14697TIP3    H265583   6.820   1.112  13.592 -0.1280  0.5664  0.5015
14698TIP3   OH265584   4.393   3.204   1.071 -0.2240 -0.4890 -0.1034
14698TIP3    H165585   4.483   3.235   1.065 -0.1900 -0.0632  2.1952
14698TIP3    H265586   4.396   3.114   1.039  1.2232 -0.8305  0.9607
14699TIP3   OH265587   6.185   2.501  11.406  0.2446 -0.0399 -0.1438
14699TIP3    H165588   6.219   2.589  11.388 -1.0348  0.4382 -0.3491
14699TIP3    H265589   6.246   2.442  11.362  1.4789  0.7053  0.5449
14700TIP3   OH265590   4.238   2.211   1.214  0.1650 -0.1680  0.4023
14700TIP3    H165591   4.250   2.119   1.189  1.4211  0.1670 -0.2998
14700TIP3    H265592   4.260   2.260   1.134  0.4600  0.7830  1.0633
14701TIP3   OH265593   0.760   4.011  16.431 -0.1424 -0.7965 -0.0430
14701TIP3    H165594   0.776   4.037  16.341  0.6089 -1.0378  0.0178
14701TIP3    H265595   0.701   3.936  16.426 -0.0566 -0.8422 -0.3336
14702TIP3   OH265596   2.160   6.068   1.122  0.5843  0.1654  0.4140
14702TIP3    H165597   2.175   6.156   1.157  0.9380  1.1401 -2.0733
14702TIP3    H265598   2.071   6.046   1.149  0.0544  1.7978  0.0771
14703TIP3   OH265599   0.641   3.227   4.132 -0.0393  0.6874 -0.0538
14703TIP3    H165600   0.636   3.213   4.227  0.4533 -0.7041 -0.2160
14703TIP3    H265601   0.560   3.188   4.099  1.4422 -2.0870 -0.5390
14704TIP3   OH265602   0.683   5.317   6.452  0.4297  0.6690 -0.1626
14704TIP3    H165603   0.703   5.223   6.452  0.0564  0.5901  0.1284
14704TIP3    H265604   0.594   5.323   6.418 -0.1162  0.7942  1.2844
14705TIP3   OH265605   0.885   5.477  11.257 -0.4347 -0.2596  0.0613
14705TIP3    H165606   0.858   5.496  11.346 -0.2210  1.1415 -0.1510
14705TIP3    H265607   0.856   5.553  11.206  0.5074 -0.4736 -0.8359
14706TIP3   OH265608   1.639   4.220   5.242  0.4107  0.0847  0.1567
14706TIP3    H165609   1.552   4.211   5.203  1.5022 -1.2395 -2.0951
14706TIP3    H265610   1.699   4.196   5.171  2.6596  2.1391  1.2983
14707TIP3   OH265611   3.113   4.804  12.072  0.9089 -0.1259 -0.0638
14707TIP3    H165612   3.063   4.844  12.143  0.9640  1.9567 -1.1884
14707TIP3    H265613   3.199   4.788  12.110  0.3372 -0.8979  0.9399
14708TIP3   OH265614   4.918   1.953  15.082  0.2008  0.3098  0.4089
14708TIP3    H165615   5.011   1.955  15.059  0.6564  2.0613  2.2532
14708TIP3    H265616   4.914   1.900  15.161 -0.0759  1.7125  1.3653
14709TIP3   OH265617   2.693   0.504   3.355  0.4987 -0.1670  0.0592
14709TIP3    H165618   2.733   0.419   3.335  2.5689  0.7155  0.3324
14709TIP3    H265619   2.728   0.563   3.289  0.3268  0.8244  0.8442
14710TIP3   OH265620   6.741   0.180  15.624  0.0991 -0.5293 -0.2118
14710TIP3    H165621   6.712   0.111  15.564 -0.4530  1.2455 -2.0369
14710TIP3    H265622   6.667   0.240  15.628  0.6659  0.0928  1.1774
14711TIP3   OH265623   5.696   2.746   5.908 -0.3095 -0.3908 -0.1866
14711TIP3    H165624   5.732   2.688   5.841  0.6911 -0.1922  0.1666
14711TIP3    H265625   5.771   2.767   5.964 -1.1370 -0.6001  1.0287
14712TIP3   OH265626   1.376   2.563   1.437 -0.6064 -0.5436 -0.2205
14712TIP3    H165627   1.343   2.596   1.521  3.1206  2.5162  0.1540
14712TIP3    H265628   1.415   2.478   1.459  0.4102  0.2628  1.1838
14713TIP3   OH265629   5.202   4.991  13.351 -0.3661  0.1951 -0.2721
14713TIP3    H165630   5.232   5.047  13.279 -3.2797  1.7670 -0.3450
14713TIP3    H265631   5.146   4.926  13.309 -0.7807  0.1410  0.3605
14714TIP3   OH265632   5.363   5.877   3.148 -0.1665 -0.1371 -0.0304
14714TIP3    H165633   5.313   5.958   3.135 -0.3648 -0.4428 -1.2012
14714TIP3    H265634   5.297   5.808   3.147 -0.1581 -0.2010  2.3991
14715TIP3   OH265635   0.557   4.170   1.858 -0.2935  0.0730  0.6508
14715TIP3    H165636   0.515   4.093   1.897  0.8988 -0.2503  1.3224
14715TIP3    H265637   0.572   4.228   1.933  1.3676 -0.2485  0.5812
14716TIP3   OH265638   4.668   5.407  11.109 -0.0404  0.2966  0.1360
14716TIP3    H165639   4.691   5.489  11.065  0.2723 -0.4238 -1.0623
14716TIP3    H265640   4.634   5.434  11.194 -0.1285  1.6800 -0.3327
14717TIP3   OH265641   1.017   4.840   6.621 -0.4528  0.3892 -0.5886
14717TIP3    H165642   1.017   4.934   6.605  1.2206  0.5312  0.0935
14717TIP3    H265643   1.108   4.813   6.606 -0.7107 -0.9535  0.1292
14718TIP3   OH265644   4.103   2.333  13.929 -0.2399 -0.8461 -0.6939
14718TIP3    H165645   4.033   2.394  13.906  0.6898  0.6742  0.4216
14718TIP3    H265646   4.124   2.354  14.020  1.2910 -1.6593 -0.8470
14719TIP3   OH265647   1.591   1.728   0.335  0.0121 -0.3891 -0.4938
14719TIP3    H165648   1.621   1.645   0.370  2.1463 -0.2872 -2.0124
14719TIP3    H265649   1.495   1.723   0.340  0.1545 -2.3731  0.6486
14720TIP3   OH265650   0.034   4.059   0.346  0.3676  0.2893  0.3695
14720TIP3    H165651   0.080   4.074   0.428  1.8673 -4.3211  0.5368
14720TIP3    H265652  -0.045   4.011   0.371 -0.3836  0.9426 -0.6901
14721TIP3   OH265653   3.013   3.977  13.558 -0.3755 -0.4337 -0.2612
14721TIP3    H165654   3.089   3.994  13.614 -0.2392 -0.1317 -0.5363
14721TIP3    H265655   3.050   3.952  13.474 -0.5829 -0.7590 -0.2536
14722TIP3   OH265656   3.340   0.613   4.092  0.4188  0.0700  0.1453
14722TIP3    H165657   3.384   0.561   4.160  0.0130  0.4035  0.6631
14722TIP3    H265658   3.247   0.601   4.110  0.3286  1.5032  0.6642
14723TIP3   OH265659   1.366   3.776  12.393 -0.0718  0.0863  0.3443
14723TIP3    H165660   1.377   3.812  12.481 -0.7695  0.1689  0.4015
14723TIP3    H265661   1.455   3.762  12.362  0.1941 -1.5373  1.7157
14724TIP3   OH265662   1.981   0.309  15.130  0.2249 -0.0545  0.3208
14724TIP3    H165663   2.002   0.395  15.167 -1.6768  0.6599 -0.2357
14724TIP3    H265664   1.988   0.321  15.036  1.4492 -0.9326  0.2822
14725TIP3   OH265665   2.991   3.191  13.576 -0.3103 -0.2759  0.2141
14725TIP3    H165666   2.953   3.119  13.626 -1.3210 -1.3791 -2.0614
14725TIP3    H265667   3.038   3.147  13.504  0.4825  1.2905 -0.2340
14726TIP3   OH265668   5.641   5.619   3.494 -0.4680 -0.2328  0.1948
14726TIP3    H165669   5.611   5.656   3.577 -1.2475  0.8177 -0.5414
14726TIP3    H265670   5.721   5.666   3.474  1.7074 -2.9457  2.0932
14727TIP3   OH265671   4.544   6.287  12.586 -0.1128 -0.1822 -0.2582
14727TIP3    H165672   4.536   6.327  12.499 -0.7326  1.7514  0.6736
14727TIP3    H265673   4.454   6.283  12.619  0.0181 -1.7014 -0.0289
14728TIP3   OH265674   2.926   5.068   2.427  0.7274 -0.0776  0.6331
14728TIP3    H165675   2.931   5.132   2.356  1.9777  0.0813  0.8380
14728TIP3    H265676   2.869   5.108   2.492  1.4367  0.8081  0.7210
14729TIP3   OH265677   5.395   3.132  12.525 -0.0741  0.2966  1.0806
14729TIP3    H165678   5.305   3.166  12.525  0.1626  0.9702 -0.1312
14729TIP3    H265679   5.397   3.074  12.448  1.0437  1.7248  0.0041
14730TIP3   OH265680   5.248   5.581  15.611  0.1897  0.4057 -0.1433
14730TIP3    H165681   5.298   5.569  15.692 -1.5921  3.2518  1.4402
14730TIP3    H265682   5.160   5.550  15.632  0.2880 -1.0448 -1.7582
14731TIP3   OH265683   5.830   4.726  11.872 -0.5350 -0.3518  0.0107
14731TIP3    H165684   5.894   4.776  11.822 -0.8789 -1.5244 -1.6866
14731TIP3    H265685   5.838   4.637  11.837 -0.5857 -1.2725  2.2915
14732TIP3   OH265686   5.698   1.991   1.143 -0.4038  0.1073  1.0090
14732TIP3    H165687   5.712   1.897   1.142 -2.4775 -0.2593 -2.3185
14732TIP3    H265688   5.785   2.029   1.137  0.3779 -1.6019  1.3042
14733TIP3   OH265689   6.583   0.170   5.658  0.0613  0.5777  0.3096
14733TIP3    H165690   6.518   0.099   5.659  1.1788 -0.5345 -2.4558
14733TIP3    H265691   6.531   0.250   5.663 -1.5018 -0.3199 -1.1345
14734TIP3   OH265692   0.444   5.029   0.687 -0.1345 -0.9280  0.3904
14734TIP3    H165693   0.368   5.055   0.739 -0.8399 -1.0658 -0.5505
14734TIP3    H265694   0.419   4.945   0.649  0.2209 -0.6433 -0.4786
14735TIP3   OH265695   1.447   2.887   1.840  0.5204 -0.0361 -0.0553
14735TIP3    H165696   1.435   2.936   1.759  1.6199  0.0702 -0.1738
14735TIP3    H265697   1.380   2.920   1.899 -1.5593 -1.5121 -1.5527
14736TIP3   OH265698   3.773   5.290  16.112 -0.1282  0.2865 -0.4929
14736TIP3    H165699   3.689   5.317  16.074  0.3264  2.7749  0.1835
14736TIP3    H265700   3.826   5.370  16.113  1.4639 -0.7462  1.1812
14737TIP3   OH265701   4.543   4.458  11.572 -0.4371 -0.1908  0.2400
14737TIP3    H165702   4.466   4.502  11.608 -0.1015  0.1150  0.5814
14737TIP3    H265703   4.592   4.527  11.527  0.3861 -0.0890  1.2701
14738TIP3   OH265704   3.506   5.338   3.131 -0.5608  0.0994  0.8747
14738TIP3    H165705   3.598   5.324   3.152 -0.2022 -0.8026 -1.1862
14738TIP3    H265706   3.507   5.397   3.055 -1.5587 -2.3361 -1.0918
14739TIP3   OH265707   2.957   1.505  13.951  0.2180  0.3602 -0.1041
14739TIP3    H165708   2.971   1.410  13.950  1.5802  0.5598 -1.2147
14739TIP3    H265709   2.862   1.515  13.948 -0.0004 -0.9804  1.4336
14740TIP3   OH265710   4.186   2.463   5.243 -0.4373  0.1283 -0.6130
14740TIP3    H165711   4.119   2.531   5.249  0.4202  1.2473 -3.1734
14740TIP3    H265712   4.269   2.511   5.250  0.1448 -0.9166 -0.2832
14741TIP3   OH265713   3.914   0.763  15.890 -0.0474  0.3161  0.2319
14741TIP3    H165714   3.875   0.843  15.855  2.2384  0.6042 -1.7462
14741TIP3    H265715   3.854   0.694  15.862  0.1464  0.8844 -1.6689
14742TIP3   OH265716   1.023   2.410   3.144  0.1374  0.1423  0.5211
14742TIP3    H165717   1.037   2.352   3.069  1.5816  0.5496  0.4627
14742TIP3    H265718   1.053   2.496   3.114 -0.9542  0.6954  0.9759
14743TIP3   OH265719   0.661   3.167  11.567  0.0305 -0.1133 -0.5132
14743TIP3    H165720   0.610   3.233  11.519 -1.1995 -0.2215  0.6065
14743TIP3    H265721   0.603   3.090  11.569  1.4314 -1.2180 -1.7756
14744TIP3   OH265722   3.711   6.521  13.836 -0.5882 -0.1439 -0.5216
14744TIP3    H165723   3.628   6.490  13.799 -0.4476 -0.0696 -0.9006
14744TIP3    H265724   3.714   6.614  13.813  0.3051 -0.4766 -1.8316
14745TIP3   OH265725   3.585   2.565   5.650  0.0745  0.0682 -0.1662
14745TIP3    H165726   3.589   2.514   5.569  1.5308  0.7368 -0.5249
14745TIP3    H265727   3.574   2.499   5.719  3.3867 -0.8762 -0.4818
14746TIP3   OH265728   6.499   0.344   1.655 -0.2881 -0.0546  0.1447
14746TIP3    H165729   6.563   0.284   1.617  0.3666 -0.5175  1.9560
14746TIP3    H265730   6.438   0.362   1.583  0.5140 -1.4750 -0.9179
14747TIP3   OH265731   0.057   3.904  14.771 -0.2125  0.0923  0.2728
14747TIP3    H165732   0.032   3.955  14.694 -0.0570 -0.1035  0.0953
14747TIP3    H265733  -0.027   3.884  14.814 -0.5649 -2.4868 -1.5231
14748TIP3   OH265734   3.974   2.658   1.894  0.3059 -0.5007 -0.1683
14748TIP3    H165735   3.985   2.579   1.842 -0.0836 -0.0702 -0.9139
14748TIP3    H265736   3.972   2.627   1.985  2.7173 -1.0794 -0.2823
14749TIP3   OH265737   5.434   6.335  13.842  0.2052 -0.3902 -0.0147
14749TIP3    H165738   5.500   6.317  13.910  1.2588 -0.1969 -0.9795
14749TIP3    H265739   5.447   6.266  13.777 -2.6062 -2.2138  1.2379
14750TIP3   OH265740   1.319   5.168  13.151 -0.4848 -0.5240  0.3820
14750TIP3    H165741   1.315   5.096  13.214  0.6715  0.1190  1.1986
14750TIP3    H265742   1.332   5.246  13.204 -1.4427  0.2736 -0.5239
14751TIP3   OH265743   2.941   5.597   3.591  0.1622 -0.0838 -0.0723
14751TIP3    H165744   2.957   5.652   3.514 -0.1481  0.6601  0.3974
14751TIP3    H265745   3.028   5.580   3.627  0.1468  1.3940  0.6819
14752TIP3   OH265746   1.684   1.053  13.881 -0.3522 -0.3390 -0.0252
14752TIP3    H165747   1.605   1.105  13.892 -0.1493 -0.2778  1.2912
14752TIP3    H265748   1.741   1.080  13.953  1.4849  0.6940 -1.8070
14753TIP3   OH265749   6.688   1.437  11.197  0.0663 -0.0369  0.1000
14753TIP3    H165750   6.691   1.517  11.145 -2.7449 -0.8394 -1.4415
14753TIP3    H265751   6.705   1.367  11.133  0.1617 -0.8162  0.9631
14754TIP3   OH265752   3.017   5.127   1.623  0.3098  0.1852 -0.2869
14754TIP3    H165753   3.019   5.199   1.560 -0.8021 -1.0050 -1.7208
14754TIP3    H265754   3.033   5.049   1.570  3.3766 -0.5087  1.4888
14755TIP3   OH265755   2.483   4.587   3.152  0.8198 -0.1844 -0.4718
14755TIP3    H165756   2.400   4.635   3.150 -0.4390 -2.3489 -2.4378
14755TIP3    H265757   2.550   4.655   3.139 -0.5622  1.6349  1.4393
14756TIP3   OH265758   1.921   1.734  16.076 -0.3337 -0.2541 -0.2869
14756TIP3    H165759   1.964   1.779  16.148 -0.1917 -0.7173 -0.0766
14756TIP3    H265760   1.849   1.792  16.051  0.9736  0.9582 -1.2604
14757TIP3   OH265761   0.626   6.753   4.200 -0.3996  0.4518  0.0389
14757TIP3    H165762   0.562   6.684   4.217  1.0073 -0.3715  2.1989
14757TIP3    H265763   0.644   6.791   4.286  1.5120  1.1152 -0.6231
14758TIP3   OH265764   3.298   3.728  12.396  0.4507  0.3888  0.0827
14758TIP3    H165765   3.211   3.725  12.436 -0.1939  1.0514 -1.2363
14758TIP3    H265766   3.315   3.821  12.380  1.0570  0.2040 -0.4017
14759TIP3   OH265767   4.455   3.746  12.988 -0.7090  0.0733  0.0170
14759TIP3    H165768   4.477   3.683  12.919 -0.8742 -0.0762  0.0998
14759TIP3    H265769   4.505   3.824  12.966  0.3505 -0.4502  0.5080
14760TIP3   OH265770   2.154   6.272   1.303  0.5465  0.0440  0.3338
14760TIP3    H165771   2.149   6.362   1.271 -1.4873  0.1586  0.8469
14760TIP3    H265772   2.165   6.281   1.398 -0.9460 -0.2113  0.5471
14761TIP3   OH265773   1.616   5.013   4.972  0.0640 -0.1032 -0.0442
14761TIP3    H165774   1.537   5.055   4.939  0.0915 -0.2009 -0.2336
14761TIP3    H265775   1.591   4.921   4.984  0.1522 -0.1365 -0.1170
14762TIP3   OH265776   2.716   4.029   4.108  0.1389 -0.8922  0.4613
14762TIP3    H165777   2.733   4.099   4.171  1.2123 -2.4719  1.9719
14762TIP3    H265778   2.629   3.996   4.131  0.2674 -1.0506  0.7207
14763TIP3   OH265779   0.307   2.347   1.917 -0.1075  0.4670 -0.1254
14763TIP3    H165780   0.282   2.431   1.879 -1.0102 -0.3583 -1.4027
14763TIP3    H265781   0.282   2.354   2.009  0.5759  1.8893 -0.0405
14764TIP3   OH265782   4.682   0.422   3.390 -0.6799 -0.6190  0.5204
14764TIP3    H165783   4.620   0.432   3.462 -1.7561 -0.6532 -0.4028
14764TIP3    H265784   4.628   0.405   3.313  0.3622  1.3555 -0.6797
14765TIP3   OH265785   5.434   0.081  14.322 -0.1682 -0.1041 -0.1510
14765TIP3    H165786   5.481   0.073  14.239 -2.1677 -4.4387 -0.9912
14765TIP3    H265787   5.355   0.131  14.300  1.4079  2.6604  0.1874
14766TIP3   OH265788   4.675   6.236  13.732 -0.2534  0.1292 -0.2908
14766TIP3    H165789   4.709   6.163  13.680 -1.1104 -0.0592 -0.5812
14766TIP3    H265790   4.636   6.194  13.809 -2.5236  0.1379 -1.4166
14767TIP3   OH265791   6.161   5.274   2.811  0.0571 -0.1611 -0.7198
14767TIP3    H165792   6.234   5.213   2.826  0.0391 -0.1897 -0.7504
14767TIP3    H265793   6.116   5.278   2.895 -0.9352 -1.4875 -1.1606
14768TIP3   OH265794   5.417   5.029   4.615 -0.0050  0.7409  0.6422
14768TIP3    H165795   5.502   4.984   4.615  0.5126  1.7180 -0.2773
14768TIP3    H265796   5.355   4.963   4.581  0.3038 -0.0958  1.6683
14769TIP3   OH265797   5.204   5.725  14.627  0.3032  0.3416  0.1885
14769TIP3    H165798   5.244   5.802  14.668  0.4895  0.4018 -0.1034
14769TIP3    H265799   5.245   5.651  14.671 -1.8590  0.3951  2.3759
14770TIP3   OH265800   4.417   0.492  13.013  0.1866  0.2795  0.2535
14770TIP3    H165801   4.472   0.537  13.078 -2.3415 -0.7173  3.1953
14770TIP3    H265802   4.360   0.560  12.980  0.6891  0.5461 -0.0774
14771TIP3   OH265803   4.124   3.968  12.478  0.2642  0.0481  0.1434
14771TIP3    H165804   4.121   4.023  12.556  0.4023  0.6790 -0.2881
14771TIP3    H265805   4.189   4.011  12.422  0.5113 -0.6662 -0.1177
14772TIP3   OH265806   0.030   2.334  14.583  0.1117  0.5211  0.1597
14772TIP3    H165807  -0.033   2.313  14.653  0.8091  1.1672  0.9950
14772TIP3    H265808   0.084   2.404  14.620  0.8861  0.4429 -0.8100
14773TIP3   OH265809   2.517   0.898  12.977  0.8009 -0.4611  0.0200
14773TIP3    H165810   2.534   0.804  12.968  0.8103 -0.4112 -0.4509
14773TIP3    H265811   2.433   0.912  12.933 -0.0757 -0.5627  1.6217
14774TIP3   OH265812   0.100   6.624  12.751  0.2032  0.2449 -0.3965
14774TIP3    H165813   0.029   6.604  12.690  0.7224  0.3458 -1.0402
14774TIP3    H265814   0.160   6.679  12.701  0.3653  0.7757  0.3798
14775TIP3   OH265815   0.152   6.583  11.169 -0.0444  0.2395 -0.5584
14775TIP3    H165816   0.115   6.638  11.238 -0.4123 -0.4872 -0.1630
14775TIP3    H265817   0.076   6.547  11.123  0.1813 -0.1251 -0.6543
14776TIP3   OH265818   6.361   0.158  12.937  0.4348 -0.3047 -0.0430
14776TIP3    H165819   6.301   0.116  12.875 -1.0614 -1.5302  2.1474
14776TIP3    H265820   6.354   0.251  12.917 -0.9824 -0.5729 -0.8744
14777TIP3   OH265821   3.410   2.671  11.369  0.1915 -0.5897  0.5560
14777TIP3    H165822   3.429   2.579  11.385  3.2630  0.2171  1.8856
14777TIP3    H265823   3.477   2.699  11.307 -0.8578  0.6924 -0.0153
14778TIP3   OH265824   1.530   3.491   0.971  0.4122  0.3033 -0.0367
14778TIP3    H165825   1.454   3.538   1.004  1.1288  2.4182 -1.3054
14778TIP3    H265826   1.500   3.453   0.888  1.0857  2.2545 -1.2028
14779TIP3   OH265827   5.473   6.084  15.777  0.1866 -0.3248  0.0817
14779TIP3    H165828   5.456   6.006  15.723 -0.6577 -0.3388  0.3482
14779TIP3    H265829   5.386   6.122  15.789  0.7025  1.1591 -0.7870
14780TIP3   OH265830   3.470   6.191  12.840 -0.2874  0.0510 -0.0034
14780TIP3    H165831   3.468   6.147  12.925 -0.9769  0.7367  0.3428
14780TIP3    H265832   3.381   6.225  12.828  0.1981  1.2373 -0.3188
14781TIP3   OH265833   2.208   0.338   0.441  0.3337  0.3710 -0.4418
14781TIP3    H165834   2.301   0.361   0.437  0.4988 -0.5586 -2.7001
14781TIP3    H265835   2.164   0.404   0.387 -0.2563  0.4941  0.1777
14782TIP3   OH265836   4.856   0.695   0.505  0.0244  0.2354  0.4073
14782TIP3    H165837   4.910   0.738   0.439 -0.5934  0.5639  0.1157
14782TIP3    H265838   4.916   0.633   0.548 -0.0602 -1.5257 -1.8780
14783TIP3   OH265839   0.619   1.095  12.540  0.0277 -0.2060 -0.2592
14783TIP3    H165840   0.692   1.125  12.486 -0.5053  0.9135 -0.3732
14783TIP3    H265841   0.633   1.138  12.624  1.1486 -2.3651  0.6842
14784TIP3   OH265842   4.169   4.832   1.641 -0.4264  0.5390 -0.4328
14784TIP3    H165843   4.204   4.920   1.648  2.4225 -0.4188 -2.0640
14784TIP3    H265844   4.120   4.819   1.723  1.8530  2.4454  1.2963
14785TIP3   OH265845   5.485   5.553  12.549 -0.1693  0.3354 -0.4218
14785TIP3    H165846   5.444   5.470  12.524  0.3253 -0.5472  1.5873
14785TIP3    H265847   5.415   5.618  12.542 -1.6250 -0.9446  1.7790
14786TIP3   OH265848   1.725   5.529   2.309 -0.1824 -0.7261 -0.4793
14786TIP3    H165849   1.641   5.514   2.352  0.1761 -0.6207  0.2599
14786TIP3    H265850   1.790   5.495   2.371  0.4300  0.8241 -0.2642
14787TIP3   OH265851   4.259   2.885  12.444 -0.5434  0.1945 -0.0531
14787TIP3    H165852   4.283   2.978  12.449 -0.2564  0.0258  2.4059
14787TIP3    H265853   4.321   2.847  12.383  1.4100  1.0218  1.3618
14788TIP3   OH265854   6.067   2.885   4.775 -0.6688 -0.8491 -0.0670
14788TIP3    H165855   6.076   2.873   4.870 -1.5770  0.4563  0.1963
14788TIP3    H265856   6.025   2.805   4.745 -0.6660 -1.1366  0.6805
14789TIP3   OH265857   1.776   6.791  14.308 -0.1829 -0.1406  0.3857
14789TIP3    H165858   1.697   6.799  14.361 -1.0506 -0.2576 -0.8681
14789TIP3    H265859   1.764   6.709  14.260 -0.1120  0.7187 -1.1222
14790TIP3   OH265860   6.729   4.996   4.684  0.4062 -0.2256  0.0133
14790TIP3    H165861   6.711   5.060   4.615  0.7132  1.1907  1.2393
14790TIP3    H265862   6.798   5.036   4.737  0.5814 -1.5523  0.8124
14791TIP3   OH265863   4.228   2.335  11.904  0.0812 -0.2818 -0.3975
14791TIP3    H165864   4.323   2.324  11.900  0.2119  0.3640  0.8290
14791TIP3    H265865   4.215   2.428  11.923 -0.7928 -0.3823 -0.4916
14792TIP3   OH265866   3.884   4.139   2.870 -0.0826 -0.2277  0.0633
14792TIP3    H165867   3.914   4.120   2.958 -0.0314 -0.9002 -0.0962
14792TIP3    H265868   3.863   4.054   2.833 -0.9912  0.1306 -0.2566
14793TIP3   OH265869   1.204   2.271  13.704 -0.0582 -0.1826 -0.0018
14793TIP3    H165870   1.276   2.333  13.699 -0.2663  0.2458  1.9841
14793TIP3    H265871   1.203   2.228  13.618  1.0402  1.4750 -0.8608
14794TIP3   OH265872   1.807   0.340   4.353 -0.0132  0.1505  0.8408
14794TIP3    H165873   1.731   0.351   4.295  2.2413 -0.1566 -2.3198
14794TIP3    H265874   1.779   0.275   4.417 -2.6868  0.6179  0.2069
14795TIP3   OH265875   5.425   3.763  17.033  0.1008 -0.0766 -0.0151
14795TIP3    H165876   5.488   3.751  16.962 -1.1898 -1.1395 -1.0229
14795TIP3    H265877   5.341   3.736  16.995 -0.5976 -0.7867  1.9685
14796TIP3   OH265878   3.781   0.870   2.303 -0.1356  0.1053  0.5324
14796TIP3    H165879   3.752   0.863   2.212  2.9879 -1.8223 -0.3999
14796TIP3    H265880   3.717   0.819   2.353 -1.4046  0.4911 -0.6852
14797TIP3   OH265881   0.865   6.678   6.181 -0.2587 -0.0823  0.3228
14797TIP3    H165882   0.779   6.640   6.198 -0.3955  1.1479  2.6577
14797TIP3    H265883   0.852   6.772   6.192  0.7667  0.4044 -2.2357
14798TIP3   OH265884   0.457   4.468  11.095  0.7714  0.3732  0.1496
14798TIP3    H165885   0.448   4.448  11.002 -0.7743  2.9470 -0.2875
14798TIP3    H265886   0.550   4.482  11.108  1.3832 -2.7074 -0.3873
14799TIP3   OH265887   3.000   5.249  15.780  0.2562  0.3897 -0.3758
14799TIP3    H165888   3.093   5.268  15.777  0.1223  1.1440  0.1268
14799TIP3    H265889   2.995   5.154  15.795  0.9479  0.4768  0.4538
14800TIP3   OH265890   0.945   4.903   4.160 -0.0133  0.2248 -0.2513
14800TIP3    H165891   0.853   4.879   4.150 -0.4476  1.8850 -0.2770
14800TIP3    H265892   0.978   4.842   4.227 -1.2207 -0.1439  0.0198
14801TIP3   OH265893   2.100   6.560   1.352  0.1420  0.3176  0.5867
14801TIP3    H165894   2.048   6.640   1.357 -0.1085  0.3826 -2.2715
14801TIP3    H265895   2.187   6.586   1.384 -0.8258  0.8347  2.9183
14802TIP3   OH265896   2.131   4.566  13.113 -0.1558  0.3451 -0.5897
14802TIP3    H165897   2.098   4.626  13.047 -2.2784  0.9059  0.9424
14802TIP3    H265898   2.080   4.585  13.192  2.4285 -0.1629  1.3125
14803TIP3   OH265899   1.811   2.565   2.115 -0.3569 -0.4113 -0.5465
14803TIP3    H165900   1.883   2.597   2.169 -1.7907  1.2367  0.4610
14803TIP3    H265901   1.846   2.487   2.072  1.2314 -1.0810  1.8460
14804TIP3   OH265902   0.360   6.167  12.507 -0.4914 -0.0189  0.2062
14804TIP3    H165903   0.360   6.117  12.426  0.0964  0.0120  0.1876
14804TIP3    H265904   0.452   6.182  12.527 -0.6049 -0.5701  1.2161
14805TIP3   OH265905   1.878   1.327   6.475 -0.0725 -0.3669 -0.7073
14805TIP3    H165906   1.872   1.422   6.484  0.1835 -0.5721  2.2525
14805TIP3    H265907   1.972   1.309   6.481 -0.1671 -0.8465 -0.6685
14806TIP3   OH265908   2.815   5.056   0.470 -0.0745 -0.8064 -0.4386
14806TIP3    H165909   2.888   5.071   0.531  1.9873  0.7675 -3.1949
14806TIP3    H265910   2.802   5.140   0.427 -3.7849 -1.0009  0.2172
14807TIP3   OH265911   2.951   0.083  15.094 -0.6118  0.1168  0.0132
14807TIP3    H165912   2.861   0.055  15.107 -0.1840 -0.5752  1.5063
14807TIP3    H265913   3.004   0.018  15.139  0.6914  0.0978 -1.4861
14808TIP3   OH265914   2.227   3.421   1.309 -0.1878 -0.1724  0.5448
14808TIP3    H165915   2.177   3.376   1.377 -0.8513 -0.6524 -0.2431
14808TIP3    H265916   2.171   3.495   1.283 -0.5192 -0.7317 -0.3621
14809TIP3   OH265917   4.270   3.307  11.781  0.1340  0.3775  0.0024
14809TIP3    H165918   4.286   3.246  11.710  0.9503 -0.9888  1.3388
14809TIP3    H265919   4.194   3.358  11.752 -1.4967 -2.2621 -0.4895
14810TIP3   OH265920   4.341   5.534  14.914  0.2317  0.9274  0.2672
14810TIP3    H165921   4.331   5.486  14.832 -0.6601 -0.3341  1.0896
14810TIP3    H265922   4.276   5.604  14.910  1.1944  1.7838 -0.7234
14811TIP3   OH265923   1.523   4.775   0.994 -0.3496 -0.5300 -0.2505
14811TIP3    H165924   1.438   4.771   0.949  0.1640 -0.1371 -1.2941
14811TIP3    H265925   1.501   4.783   1.086 -1.4478 -0.9494 -0.4611
14812TIP3   OH265926   5.981   5.453  15.240  0.3306 -0.6175  0.4811
14812TIP3    H165927   6.074   5.470  15.248  0.3610 -1.7161  3.5292
14812TIP3    H265928   5.974   5.357  15.241 -0.7634 -0.5567 -0.5590
14813TIP3   OH265929   5.365   5.382  12.837  0.0428 -0.2738  0.2043
14813TIP3    H165930   5.415   5.415  12.912 -0.3549  1.0793 -0.1182
14813TIP3    H265931   5.350   5.289  12.858  1.1773 -0.2664  1.1135
14814TIP3   OH265932   2.344   5.257   1.953  0.3736 -0.5061 -0.2209
14814TIP3    H165933   2.345   5.252   1.858 -0.1807  0.3712 -0.2787
14814TIP3    H265934   2.311   5.171   1.981 -0.7285 -0.3141 -0.8760
14815TIP3   OH265935   0.211   4.953  14.867  0.1174  0.6300  0.3055
14815TIP3    H165936   0.182   4.985  14.781  0.5335  0.3657  0.0624
14815TIP3    H265937   0.289   5.005  14.886 -0.0141  0.7357  0.5575
14816TIP3   OH265938   2.687   0.083  13.409 -0.1217 -0.1299 -0.2761
14816TIP3    H165939   2.608   0.045  13.371  0.3384 -2.3104  0.8441
14816TIP3    H265940   2.735   0.008  13.444  3.7789  0.8076 -3.3052
14817TIP3   OH265941   2.459   6.416  13.310 -0.2328 -0.3175 -0.0431
14817TIP3    H165942   2.521   6.477  13.350 -0.8675  1.4879 -1.7447
14817TIP3    H265943   2.431   6.459  13.230 -2.4301 -1.8535 -0.1512
14818TIP3   OH265944   4.846   3.942  11.145 -0.5337  0.2795 -0.2591
14818TIP3    H165945   4.782   3.961  11.077 -1.4116 -0.8396  0.2367
14818TIP3    H265946   4.857   4.025  11.192 -2.5755  0.1692  0.4494
14819TIP3   OH265947   0.019   4.547   4.288 -0.0957  0.0270 -0.8843
14819TIP3    H165948   0.024   4.460   4.328 -2.3167  1.0254  1.7162
14819TIP3    H265949  -0.075   4.562   4.275  0.1622  2.5994 -0.0169
14820TIP3   OH265950   4.017   6.019   1.595 -0.3087  0.0761  0.0860
14820TIP3    H165951   4.086   6.040   1.659  0.1241  0.0795 -0.3726
14820TIP3    H265952   4.007   5.924   1.601 -1.9573  0.3554  1.8512
14821TIP3   OH265953   5.005   6.095   3.816  0.5035  0.2846  0.0679
14821TIP3    H165954   5.045   6.030   3.873 -0.0482  0.2347  0.3955
14821TIP3    H265955   5.079   6.147   3.783  0.7573  0.7462  1.3637
14822TIP3   OH265956   2.790   6.222   2.449  0.0965 -0.2314 -0.0328
14822TIP3    H165957   2.769   6.255   2.537 -1.0355 -1.7601  0.2979
14822TIP3    H265958   2.830   6.136   2.465 -0.9077 -0.8992 -1.0343
14823TIP3   OH265959   0.514   4.699  17.093  0.6286  0.0929 -0.4868
14823TIP3    H165960   0.555   4.780  17.061  0.3956  0.5336  0.3290
14823TIP3    H265961   0.586   4.636  17.096  1.2182  0.8138  0.7609
14824TIP3   OH265962   0.184   1.658  13.196  0.3949 -0.4519  0.0178
14824TIP3    H165963   0.128   1.683  13.123 -0.1495  0.4656  0.7444
14824TIP3    H265964   0.134   1.681  13.274  0.3230 -2.8639  0.7094
14825TIP3   OH265965   2.902   2.139  12.277  0.1328  0.3417  0.2795
14825TIP3    H165966   2.924   2.212  12.335  1.4154 -0.3593  0.6917
14825TIP3    H265967   2.984   2.118  12.233  0.5171 -2.8059  2.3907
14826TIP3   OH265968   0.901   4.769  15.504  0.4683  0.4746  0.3286
14826TIP3    H165969   0.851   4.784  15.424 -0.2290  3.7977  1.3131
14826TIP3    H265970   0.896   4.851  15.552  4.5954  0.0485  1.7610
14827TIP3   OH265971   5.221   5.955   4.460  0.2158  0.4105  0.3209
14827TIP3    H165972   5.292   5.997   4.510  0.0837  0.0223  0.8435
14827TIP3    H265973   5.228   5.862   4.483  0.4453  0.1572 -0.7510
14828TIP3   OH265974   5.826   5.300   3.583 -0.3667 -0.2392 -0.0140
14828TIP3    H165975   5.864   5.216   3.610  0.7595  0.4807  0.7278
14828TIP3    H265976   5.855   5.312   3.493  0.5126 -0.1010  0.2717
14829TIP3   OH265977   3.010   3.379   3.520  0.1189  0.0845 -0.0125
14829TIP3    H165978   2.939   3.394   3.459  0.4955  0.2865 -0.4058
14829TIP3    H265979   3.087   3.417   3.477  0.5442 -0.5020  0.2199
14830TIP3   OH265980   2.673   3.102   3.725  0.3326 -0.4222 -0.3886
14830TIP3    H165981   2.745   3.118   3.665  1.7396 -1.1893  1.0489
14830TIP3    H265982   2.602   3.158   3.694  2.2549  1.9875 -0.5550
14831TIP3   OH265983   6.720   6.018   4.110  0.5943 -0.9780 -0.2604
14831TIP3    H165984   6.662   5.943   4.125  0.0949 -0.8078 -1.3000
14831TIP3    H265985   6.773   5.992   4.035 -1.5489  0.8417 -2.4621
14832TIP3   OH265986   6.130   5.058   2.417  0.0082 -0.7867  0.5715
14832TIP3    H165987   6.179   5.132   2.451  1.6920 -1.2268 -0.8011
14832TIP3    H265988   6.129   4.995   2.489  0.4502 -0.2994  1.0099
14833TIP3   OH265989   3.460   2.156   5.559 -0.3243 -0.3261  0.3883
14833TIP3    H165990   3.555   2.157   5.561 -0.3243  0.2848  0.1236
14833TIP3    H265991   3.436   2.073   5.600  0.3256 -0.6490  0.1170
14834TIP3   OH265992   2.806   6.195   3.177 -0.4405  0.2233 -0.2113
14834TIP3    H165993   2.716   6.202   3.145 -0.3121 -0.6464 -0.7816
14834TIP3    H265994   2.856   6.255   3.122 -0.2358 -1.2052 -1.6305
14835TIP3   OH265995   5.468   0.440   3.508  0.0043 -0.3796 -0.1735
14835TIP3    H165996   5.486   0.532   3.529  1.5633 -0.7957  0.4431
14835TIP3    H265997   5.543   0.413   3.455 -0.5113 -1.2590 -0.4593
14836TIP3   OH265998   0.222   3.655   1.605  0.1363  0.2449  0.5250
14836TIP3    H165999   0.132   3.634   1.577  0.2186  0.8092 -0.1825
14836TIP3    H266000   0.269   3.670   1.523  0.4248  1.7671  0.9473
14837TIP3   OH266001   3.628   1.764   3.490  0.7031 -0.6405  0.0888
14837TIP3    H166002   3.687   1.735   3.560  1.4793  0.1142 -0.2374
14837TIP3    H266003   3.678   1.832   3.444 -0.4757  0.1092 -0.1074
14838TIP3   OH266004   1.986   0.522   2.809 -0.1144  0.2292  0.4357
14838TIP3    H166005   1.976   0.449   2.870  0.1728 -0.0918  0.1007
14838TIP3    H266006   1.939   0.494   2.731  0.1230  0.3444  0.2532
14839TIP3   OH266007   5.200   6.599  12.574 -0.0675  0.3915 -0.0238
14839TIP3    H166008   5.193   6.545  12.495  0.0408  2.2222 -1.3239
14839TIP3    H266009   5.196   6.689  12.542 -0.6986  1.1698  2.1365
14840TIP3   OH266010   3.346   0.285  14.504  0.2138 -0.1574  0.1613
14840TIP3    H166011   3.307   0.362  14.462 -0.2010 -0.5678 -0.1994
14840TIP3    H266012   3.297   0.274  14.585  0.3070 -0.0141  0.2391
14841TIP3   OH266013   0.092   4.062  15.002  0.3807  0.0028 -0.0881
14841TIP3    H166014   0.182   4.084  15.028  0.5304 -1.7365  0.8981
14841TIP3    H266015   0.100   4.036  14.911  0.7999  0.2774 -0.1372
14842TIP3   OH266016   0.074   3.731  15.468  0.0299 -0.1471 -0.5058
14842TIP3    H166017   0.030   3.657  15.426 -0.8801  0.3255 -0.3951
14842TIP3    H266018   0.091   3.792  15.396 -2.2799  1.0355 -0.0951
14843TIP3   OH266019   5.365   0.846   2.643  0.3875 -0.5366 -0.0890
14843TIP3    H166020   5.379   0.751   2.641 -1.2597 -0.7793 -2.8306
14843TIP3    H266021   5.446   0.881   2.606  0.8988 -0.8693  0.6897
14844TIP3   OH266022   4.792   4.819  13.415  0.3462 -0.9380 -1.0251
14844TIP3    H166023   4.702   4.803  13.386 -0.2543  2.0383 -0.9127
14844TIP3    H266024   4.841   4.832  13.333  0.3919 -1.1537 -1.0321
14845TIP3   OH266025   1.839   6.201  16.137  0.4707  0.1506  0.3316
14845TIP3    H166026   1.810   6.286  16.104  0.1079  0.2160  0.7990
14845TIP3    H266027   1.772   6.177  16.202 -0.4336 -1.3367 -1.0925
14846TIP3   OH266028   5.593   0.659   6.752  0.2348  0.0465 -0.2178
14846TIP3    H166029   5.656   0.686   6.819 -1.1448 -1.0495  1.5295
14846TIP3    H266030   5.610   0.566   6.739 -2.1528 -0.6653  1.5279
14847TIP3   OH266031   5.416   3.067   4.253  0.0131 -0.3376  0.2159
14847TIP3    H166032   5.485   3.015   4.212  0.3616 -0.0203  0.3932
14847TIP3    H266033   5.353   3.003   4.287  0.2454 -0.6286  0.0953
14848TIP3   OH266034   4.248   1.285   5.568  0.0252  0.4605 -0.0915
14848TIP3    H166035   4.332   1.285   5.522  2.3759 -0.6841  3.9498
14848TIP3    H266036   4.231   1.193   5.588 -1.4544  0.8253  0.4355
14849TIP3   OH266037   4.687   1.254   5.910 -0.2014 -0.1082 -1.0288
14849TIP3    H166038   4.742   1.176   5.910  0.5662  0.4209 -1.9352
14849TIP3    H266039   4.618   1.235   5.847 -1.2957 -0.9173  0.3767
14850TIP3   OH266040   3.658   2.518   2.451  0.5137 -0.6584  0.2225
14850TIP3    H166041   3.752   2.536   2.445  0.3969  0.0598  0.5524
14850TIP3    H266042   3.627   2.577   2.519 -0.1086 -1.1834  0.3980
14851TIP3   OH266043   0.911   0.319   6.503 -0.9527  0.0937 -0.1527
14851TIP3    H166044   0.936   0.400   6.457  0.1241 -1.0433 -1.6041
14851TIP3    H266045   0.979   0.256   6.479 -2.0300 -1.3747  0.6184
14852TIP3   OH266046   4.215   4.942   0.428 -0.3036 -0.1105  0.3660
14852TIP3    H166047   4.300   4.940   0.471 -1.3957  3.0098  2.8694
14852TIP3    H266048   4.188   5.034   0.432 -4.3708 -1.2361  0.8786
14853TIP3   OH266049   6.289   0.571  15.789  0.3272 -0.1246 -0.2104
14853TIP3    H166050   6.361   0.563  15.851 -1.7576 -1.5147  2.1178
14853TIP3    H266051   6.215   0.527  15.831 -1.6794  0.5069 -2.8846
14854TIP3   OH266052   5.007   6.070   2.133 -0.5516 -0.2303  0.6025
14854TIP3    H166053   5.095   6.038   2.149 -0.9238 -1.1596  0.8147
14854TIP3    H266054   4.970   6.009   2.069 -0.1166  1.7251 -1.6047
14855TIP3   OH266055   1.070   4.451   3.308  0.2704 -0.6544 -0.2180
14855TIP3    H166056   1.102   4.508   3.238 -0.1488  0.3985  0.4257
14855TIP3    H266057   0.983   4.423   3.279 -0.1110  0.1778  0.0757
14856TIP3   OH266058   3.021   1.348   5.417 -0.0241 -0.4973  0.1834
14856TIP3    H166059   2.965   1.314   5.486 -0.5637  0.2051  0.1040
14856TIP3    H266060   3.110   1.333   5.448 -0.2609 -0.6172  0.8102
14857TIP3   OH266061   5.219   3.977  13.132  0.5370  0.4208 -0.1168
14857TIP3    H166062   5.274   3.899  13.135 -0.1575 -0.0328  0.9598
14857TIP3    H266063   5.137   3.951  13.173  0.3298  1.7490  0.3474
14858TIP3   OH266064   5.202   2.713   6.801  0.4493  0.1497  0.3005
14858TIP3    H166065   5.179   2.622   6.784  1.6043 -0.5472  2.3622
14858TIP3    H266066   5.120   2.754   6.827 -0.2959 -0.0021 -1.6821
14859TIP3   OH266067   5.187   6.682  11.455  0.2663  0.1385 -0.1456
14859TIP3    H166068   5.246   6.755  11.438 -1.9104  2.0053  0.1180
14859TIP3    H266069   5.126   6.683  11.382 -0.7543 -0.4027  0.6890
14860TIP3   OH266070   1.884   6.589  13.730 -0.1067  0.2100  0.5930
14860TIP3    H166071   1.943   6.514  13.733  0.9719  1.0727  1.5555
14860TIP3    H266072   1.883   6.615  13.637 -1.1337 -1.4720  0.1177
14861TIP3   OH266073   0.451   4.385  11.765 -0.3557 -0.5807  0.0393
14861TIP3    H166074   0.466   4.310  11.821  0.1180  0.1053  0.8425
14861TIP3    H266075   0.445   4.460  11.825  0.2048  0.1647 -0.8084
14862TIP3   OH266076   0.062   1.195  12.267 -0.1454  0.1650 -0.0264
14862TIP3    H166077   0.021   1.202  12.353 -2.3067 -0.8934 -0.9416
14862TIP3    H266078   0.155   1.183  12.286  0.0483  4.0515  2.0591
14863TIP3   OH266079   3.705   3.122   3.408  0.7248 -0.7545  0.3368
14863TIP3    H166080   3.686   3.028   3.405  1.6632 -0.9184 -0.6287
14863TIP3    H266081   3.752   3.134   3.491  0.6308 -1.1435  0.4468
14864TIP3   OH266082   5.266   5.443   4.808 -0.1274  0.6850  0.0869
14864TIP3    H166083   5.252   5.371   4.870 -0.8659  1.4152  0.7721
14864TIP3    H266084   5.361   5.445   4.796 -0.0717 -0.2056  0.2953
14865TIP3   OH266085   0.570   5.415   4.305  0.1133 -0.3274 -0.1754
14865TIP3    H166086   0.513   5.485   4.337  0.1336 -0.6781  0.6506
14865TIP3    H266087   0.523   5.334   4.326  0.3254 -0.5725 -0.6582
14866TIP3   OH266088   5.801   2.037   3.216 -0.5982  0.1202  0.5032
14866TIP3    H166089   5.776   2.129   3.202  1.1502  0.3668 -1.0876
14866TIP3    H266090   5.765   1.991   3.141 -0.9687 -0.4131  1.0049
14867TIP3   OH266091   4.439   6.610  16.082 -0.2380  0.6341  0.2973
14867TIP3    H166092   4.481   6.524  16.076 -0.6630  0.3559  1.3221
14867TIP3    H266093   4.347   6.594  16.062 -0.2015  0.9613 -0.1553
14868TIP3   OH266094   4.162   0.894  17.116 -0.1931  0.0325 -0.5364
14868TIP3    H166095   4.183   0.847  17.197 -1.3153  3.7991  2.1029
14868TIP3    H266096   4.069   0.876  17.102 -0.6576  1.4799  0.5518
14869TIP3   OH266097   1.316   3.733  16.715  0.6284  0.5161 -0.0744
14869TIP3    H166098   1.287   3.747  16.625  0.7971  0.1717 -0.1839
14869TIP3    H266099   1.342   3.641  16.718  2.3515  0.9901 -0.1622
14870TIP3   OH266100   1.676   0.448  11.992  0.1877 -0.3582 -0.1824
14870TIP3    H166101   1.653   0.368  11.944 -0.8104  1.3701 -2.7236
14870TIP3    H266102   1.754   0.425  12.041 -1.3692 -3.5663  0.9442
14871TIP3   OH266103   3.357   4.726   2.865  0.7010 -0.1260 -0.0188
14871TIP3    H166104   3.318   4.804   2.904  1.3123  0.4406 -0.5457
14871TIP3    H266105   3.290   4.693   2.805  0.6966  0.3536 -0.2774
14872TIP3   OH266106   1.878   3.445   4.695  0.3253  0.0030 -0.4989
14872TIP3    H166107   1.923   3.381   4.641  1.3068  0.3666 -0.1192
14872TIP3    H266108   1.922   3.441   4.780 -0.7978 -0.1246  0.0933
14873TIP3   OH266109   5.094   1.421   1.129 -0.4502  0.0108  0.6066
14873TIP3    H166110   5.088   1.512   1.100 -1.1180 -0.1661  0.1824
14873TIP3    H266111   5.037   1.416   1.206  0.6918  0.2869  1.4804
14874TIP3   OH266112   6.490   4.246   5.311  0.2995 -0.0125 -0.0337
14874TIP3    H166113   6.440   4.219   5.234  0.9125  1.4580 -0.9695
14874TIP3    H266114   6.424   4.269   5.376 -0.2183 -2.0015  0.1574
14875TIP3   OH266115   3.084   2.631  13.060 -0.0905 -0.0119 -0.4270
14875TIP3    H166116   3.036   2.670  12.987 -2.4121 -1.7845  0.1086
14875TIP3    H266117   3.018   2.618  13.129  1.4626 -1.0573  0.9092
14876TIP3   OH266118   4.722   0.603  11.035  0.2026  0.2238  0.2356
14876TIP3    H166119   4.729   0.549  11.114 -0.1479  0.9300  0.7591
14876TIP3    H266120   4.698   0.542  10.966 -1.0588 -0.1606  0.9970
14877TIP3   OH266121   1.565   2.090  16.437 -0.0149  0.4992 -0.8742
14877TIP3    H166122   1.604   2.041  16.365 -2.0232  0.8971 -2.2857
14877TIP3    H266123   1.599   2.179  16.427  1.2334  0.1132 -0.1422
14878TIP3   OH266124   3.902   1.218  13.601 -0.0247  0.9893  0.1644
14878TIP3    H166125   3.817   1.252  13.574  0.4734  1.6809 -0.5585
14878TIP3    H266126   3.882   1.154  13.669 -1.0773  1.5872  0.4228
14879TIP3   OH266127   5.429   2.726   5.807 -0.4187  0.2592  0.4140
14879TIP3    H166128   5.511   2.738   5.758  0.2724  0.3177  1.5825
14879TIP3    H266129   5.443   2.771   5.890 -1.9293  0.9455  0.3113
14880TIP3   OH266130   3.635   6.010   5.253 -0.2108 -0.1242  0.1766
14880TIP3    H166131   3.603   5.948   5.187  2.7787 -0.3934 -1.1426
14880TIP3    H266132   3.607   5.973   5.336 -1.1409 -1.6249 -0.7780
14881TIP3   OH266133   3.172   4.338  16.546  0.1892  0.4777  0.3900
14881TIP3    H166134   3.249   4.355  16.601  0.7738  2.2896 -0.9305
14881TIP3    H266135   3.188   4.388  16.466 -1.1051 -1.3356 -1.0498
14882TIP3   OH266136   2.980   1.591  16.971 -0.3452 -0.0329  0.3447
14882TIP3    H166137   2.944   1.559  16.888  0.0661  0.8656 -0.1866
14882TIP3    H266138   2.928   1.548  17.038 -1.7120  0.4303 -0.4028
14883TIP3   OH266139   5.887   4.661   2.867  0.1859 -0.2030 -0.4954
14883TIP3    H166140   5.967   4.671   2.919  1.3761 -0.4268 -2.2089
14883TIP3    H266141   5.860   4.570   2.882  0.4388 -0.2185 -0.1277
14884TIP3   OH266142   3.875   1.203   3.860 -0.1237 -0.3552 -0.2746
14884TIP3    H166143   3.799   1.145   3.869 -0.3996  0.1191  0.5324
14884TIP3    H266144   3.853   1.280   3.913  1.2028 -0.5246  0.5575
14885TIP3   OH266145   3.421   2.960   3.440 -0.2670 -0.0670  0.1050
14885TIP3    H166146   3.391   2.893   3.377  0.9788  0.0364 -0.6120
14885TIP3    H266147   3.515   2.948   3.445 -0.0123  1.7089 -0.1091
14886TIP3   OH266148   5.102   6.599  15.553 -0.0045  0.0298 -0.0110
14886TIP3    H166149   5.137   6.577  15.467 -0.1131  2.1348 -0.6204
14886TIP3    H266150   5.158   6.550  15.614  1.4833  0.2518 -1.1547
14887TIP3   OH266151   2.625   1.549  16.967 -0.0740  0.2827  0.2771
14887TIP3    H166152   2.553   1.547  16.904  0.6293  0.3119 -0.5443
14887TIP3    H266153   2.704   1.541  16.913  0.5839  1.3183  1.0643
14888TIP3   OH266154   4.382   6.612  11.604  0.1218 -0.1409 -0.1621
14888TIP3    H166155   4.445   6.677  11.635 -1.0327  0.2287  1.5342
14888TIP3    H266156   4.347   6.650  11.523  1.6563 -0.1008 -0.8265
14889TIP3   OH266157   2.000   6.515   4.978  0.5671 -1.3226 -0.2612
14889TIP3    H166158   2.001   6.500   4.883 -0.9218  2.9973 -1.1045
14889TIP3    H266159   2.089   6.544   4.999  0.2027  0.2924 -0.8775
14890TIP3   OH266160   4.349   5.114  16.604  0.3453 -0.1562  0.0370
14890TIP3    H166161   4.314   5.088  16.689 -1.4568 -1.4821 -1.0620
14890TIP3    H266162   4.300   5.060  16.541  2.4916 -0.0665 -1.7482
14891TIP3   OH266163   4.024   5.705   5.346  0.0834  0.0549 -0.0577
14891TIP3    H166164   3.992   5.645   5.279 -1.7468  0.4714  0.3996
14891TIP3    H266165   4.118   5.687   5.352 -0.0331 -1.1570 -1.5237
14892TIP3   OH266166   0.608   4.913  16.933  0.1440  0.7841 -0.1763
14892TIP3    H166167   0.691   4.958  16.947 -0.0332  1.0364  0.0622
14892TIP3    H266168   0.543   4.983  16.929 -0.1836  0.5282  0.5731
14893TIP3   OH266169   5.141   5.699   1.877 -0.3299 -0.0791 -0.6494
14893TIP3    H166170   5.090   5.739   1.947  1.8895  1.8979 -0.0985
14893TIP3    H266171   5.094   5.721   1.797 -1.8963 -0.7931  0.0529
14894TIP3   OH266172   3.672   2.446  16.704 -0.1884 -0.8544  0.3799
14894TIP3    H166173   3.608   2.484  16.764  0.3403 -0.9091  0.9863
14894TIP3    H266174   3.633   2.364  16.674 -0.5712 -0.6909  0.4364
14895TIP3   OH266175   5.257   6.796   3.837 -0.4963 -0.4701 -0.1919
14895TIP3    H166176   5.283   6.850   3.762  1.2635 -1.6521 -0.4722
14895TIP3    H266177   5.339   6.776   3.882 -1.4403 -0.4905  1.5842
14896TIP3   OH266178   0.114   1.938  14.853 -0.2663  0.3859 -0.2120
14896TIP3    H166179   0.174   1.890  14.795 -0.6781  0.3093 -0.5804
14896TIP3    H266180   0.170   1.999  14.900  0.5839 -1.8574  1.7655
14897TIP3   OH266181   5.698   5.743  17.175 -0.1708  0.0632 -0.5152
14897TIP3    H166182   5.609   5.769  17.155 -0.9092 -1.8652  0.1003
14897TIP3    H266183   5.718   5.786  17.258 -0.1391  1.3498 -1.1917
14898TIP3   OH266184   5.745   6.597  14.414  0.4464  0.6624  0.1614
14898TIP3    H166185   5.763   6.630  14.326  1.6337  1.3341  0.6536
14898TIP3    H266186   5.822   6.546  14.438 -0.7041 -1.1885  0.0509
14899TIP3   OH266187   6.694   1.503  16.445 -0.6156  0.3915 -0.1455
14899TIP3    H166188   6.674   1.426  16.392 -0.8161 -0.2387  0.8151
14899TIP3    H266189   6.770   1.477  16.497 -1.1582  0.5710  0.7460
14900TIP3   OH266190   4.280   3.302   6.748  0.5392 -0.2164  0.4489
14900TIP3    H166191   4.259   3.208   6.742 -1.7993  0.3555 -1.0226
14900TIP3    H266192   4.290   3.330   6.657  0.9598  1.0211  0.8676
14901TIP3   OH266193   0.844   0.703   5.791  0.0758  0.4431 -0.1538
14901TIP3    H166194   0.757   0.707   5.752 -1.5870 -0.7218  3.2062
14901TIP3    H266195   0.862   0.792   5.820  1.0579  1.1795 -2.8787
14902TIP3   OH266196   4.296   6.261   2.227  0.2947  0.1197 -0.0765
14902TIP3    H166197   4.330   6.266   2.137  0.8398 -0.2819  0.1036
14902TIP3    H266198   4.373   6.272   2.282  0.1395 -0.8244  0.3377
14903TIP3   OH266199   4.859   0.038   6.533  0.3837  0.2751 -0.5014
14903TIP3    H166200   4.775   0.020   6.491  0.0613 -2.3711  1.1594
14903TIP3    H266201   4.840   0.106   6.597 -0.6387 -0.6702  0.2263
14904TIP3   OH266202   4.560   2.861   3.369  0.0323 -0.2661  0.6074
14904TIP3    H166203   4.502   2.929   3.332 -0.1746 -1.1150 -0.6506
14904TIP3    H266204   4.522   2.779   3.340  2.2028 -0.8309 -0.7202
14905TIP3   OH266205   3.631   3.333   4.798 -0.3766 -0.1418  0.5752
14905TIP3    H166206   3.685   3.396   4.750 -0.0996 -2.1277 -1.7884
14905TIP3    H266207   3.558   3.385   4.831  0.5945  1.6857 -0.0874
14906TIP3   OH266208   4.615   1.642  15.738 -0.2157 -0.5887  0.2103
14906TIP3    H166209   4.632   1.719  15.683  0.3473 -0.6517  0.2918
14906TIP3    H266210   4.606   1.677  15.827 -0.6291 -0.5444  0.1546
14907TIP3   OH266211   1.061   1.410   3.141 -0.1640 -0.0033 -0.1728
14907TIP3    H166212   1.101   1.482   3.092  0.3328 -0.4413 -0.4279
14907TIP3    H266213   0.988   1.449   3.188 -0.8240  0.3712 -1.4961
14908TIP3   OH266214   0.149   5.519  12.075 -0.4554  0.2496  0.5118
14908TIP3    H166215   0.132   5.603  12.032  0.9741  0.1108 -0.3381
14908TIP3    H266216   0.071   5.467  12.057 -1.1462  1.2346  0.6349
14909TIP3   OH266217   2.209   0.032  13.422  0.0551  0.4003  0.3255
14909TIP3    H166218   2.172   0.064  13.504  0.1304  2.6565 -0.4836
14909TIP3    H266219   2.234  -0.058  13.440 -3.6964 -0.4902  1.5773
14910TIP3   OH266220   5.999   0.975   2.748  0.0439  0.3293 -0.6556
14910TIP3    H166221   6.019   1.054   2.697  0.4517  0.3868 -0.4143
14910TIP3    H266222   5.916   0.995   2.792  0.9628  1.2833  0.7072
14911TIP3   OH266223   1.427   3.277   3.851 -0.1701  0.5781  0.1132
14911TIP3    H166224   1.338   3.311   3.839 -0.3885  0.1466  0.5246
14911TIP3    H266225   1.419   3.211   3.920  0.6332  1.2258  0.8445
14912TIP3   OH266226   6.403   1.464   1.701  0.0774  0.0382  0.3439
14912TIP3    H166227   6.445   1.514   1.631  0.5266 -0.1014  0.5116
14912TIP3    H266228   6.440   1.501   1.782  0.9957 -1.0798  0.4521
14913TIP3   OH266229   2.571   5.905  16.393 -0.4466 -0.1336 -0.1948
14913TIP3    H166230   2.554   5.961  16.318 -2.6336  0.3430  0.6441
14913TIP3    H266231   2.612   5.962  16.458  1.1588 -0.4772 -0.8816
14914TIP3   OH266232   3.732   5.662   5.833  0.0005  0.1132  0.4661
14914TIP3    H166233   3.703   5.623   5.915  0.0346 -0.2910  0.2888
14914TIP3    H266234   3.719   5.593   5.768 -0.7339  0.6882  0.0008
14915TIP3   OH266235   3.666   1.697   6.551  0.1379 -0.4131 -0.2987
14915TIP3    H166236   3.588   1.752   6.556 -0.6245 -1.5768  0.8675
14915TIP3    H266237   3.638   1.619   6.502  0.0914 -1.5735  1.5109
14916TIP3   OH266238   1.968   6.003  16.023  0.3785 -0.5494  0.0354
14916TIP3    H166239   1.918   6.071  16.068  1.2676  0.1472 -0.0159
14916TIP3    H266240   1.931   6.000  15.935 -0.0083 -0.5002  0.1940
14917TIP3   OH266241   6.310   1.753   1.350  0.6177  0.2134 -0.1853
14917TIP3    H166242   6.299   1.686   1.417 -1.1565  0.5710 -0.0927
14917TIP3    H266243   6.390   1.799   1.375  1.0655 -0.9429  0.5496
14918TIP3   OH266244   0.914   3.608   6.086 -0.7409 -0.6146 -0.0864
14918TIP3    H166245   0.909   3.515   6.108  1.7258 -0.7312  0.0574
14918TIP3    H266246   0.873   3.652   6.161  0.2009 -1.4763  0.9524
14919TIP3   OH266247   5.782   6.259  11.161 -0.2086 -0.0308 -0.0813
14919TIP3    H166248   5.842   6.191  11.131  0.1759  1.2661 -2.3336
14919TIP3    H266249   5.716   6.265  11.092 -1.7717 -0.0010  1.3899
14920TIP3   OH266250   4.986   4.326   3.832 -0.2706  0.4771 -0.4917
14920TIP3    H166251   5.012   4.264   3.764  1.6399  0.5092  0.2001
14920TIP3    H266252   5.059   4.386   3.840 -0.7452  0.8685  1.1344
14921TIP3   OH266253   4.034   3.725   3.126  0.4659 -0.3263  0.0604
14921TIP3    H166254   4.002   3.682   3.047 -1.2407  0.4442  0.3118
14921TIP3    H266255   4.098   3.789   3.093  1.7247 -1.8158 -0.4516
14922TIP3   OH266256   5.882   4.272   0.761  0.2237  0.4319  0.3744
14922TIP3    H166257   5.974   4.298   0.755  0.6859 -1.4847 -1.3921
14922TIP3    H266258   5.866   4.221   0.681 -2.1070 -0.1060  1.1455
14923TIP3   OH266259   3.842   0.999  16.914  0.4692  0.3067  0.1999
14923TIP3    H166260   3.902   0.927  16.899 -0.4905 -0.4437 -0.0744
14923TIP3    H266261   3.884   1.075  16.873  1.8196  0.0776  1.1245
14924TIP3   OH266262   3.768   5.492  16.399  0.0932 -0.3129 -0.8999
14924TIP3    H166263   3.735   5.559  16.459  0.4064 -1.3779  0.4936
14924TIP3    H266264   3.710   5.417  16.414  1.1444 -1.1158 -0.7735
14925TIP3   OH266265   2.512   4.961   4.331  0.3731 -0.2017  0.1551
14925TIP3    H166266   2.517   5.056   4.324 -0.4767 -0.2813 -1.7123
14925TIP3    H266267   2.479   4.945   4.419  1.8482  1.1896  0.9833
14926TIP3   OH266268   5.347   2.187  14.680  0.0497 -0.7574 -0.1269
14926TIP3    H166269   5.261   2.221  14.705  1.3143  1.9565  0.8124
14926TIP3    H266270   5.379   2.142  14.758  0.7145  0.8580  0.5479
14927TIP3   OH266271   2.848   3.303   4.998 -0.3746  0.4039 -0.1707
14927TIP3    H166272   2.935   3.292   5.036 -0.7094 -1.7858  0.0673
14927TIP3    H266273   2.788   3.272   5.066 -1.2285  0.4393 -0.8974
14928TIP3   OH266274   4.453   6.339  11.532  0.1096  0.1667  0.0171
14928TIP3    H166275   4.451   6.353  11.437  0.0230 -0.8188 -0.1262
14928TIP3    H266276   4.426   6.423  11.569  0.8967  0.7902 -0.8083
14929TIP3   OH266277   1.608   5.049   0.447 -0.5959  0.4176 -0.3010
14929TIP3    H166278   1.586   5.017   0.535  0.5259  0.2854 -0.0635
14929TIP3    H266279   1.524   5.050   0.401 -0.9127 -1.3481  0.1821
14930TIP3   OH266280   4.995   6.006  14.390 -0.1026 -0.2585  0.6109
14930TIP3    H166281   5.091   6.013  14.388 -0.0040 -1.7074 -1.1227
14930TIP3    H266282   4.966   6.055  14.313 -0.4698 -3.2292 -1.2171
14931TIP3   OH266283   5.972   4.770  16.397  0.3762 -0.4100 -0.3231
14931TIP3    H166284   5.923   4.827  16.457 -1.7749 -0.8350 -1.6078
14931TIP3    H266285   5.904   4.717  16.354  2.0056 -1.1854 -2.0062
14932TIP3   OH266286   0.329   1.664  13.736  0.1080  0.1216  0.0257
14932TIP3    H166287   0.418   1.657  13.769 -0.1411 -0.9000  0.4952
14932TIP3    H266288   0.278   1.603  13.790 -0.7981  0.4016 -0.4955
14933TIP3   OH266289   2.222   0.517   3.912 -0.3677 -0.1961 -0.1946
14933TIP3    H166290   2.160   0.518   3.985 -0.0719  1.6427  0.0595
14933TIP3    H266291   2.297   0.568   3.945 -0.5551  1.3125 -2.0551
14934TIP3   OH266292   3.980   4.090   6.573 -0.7382  0.4134 -0.0291
14934TIP3    H166293   3.911   4.035   6.609 -1.0535 -0.2309 -1.5654
14934TIP3    H266294   3.940   4.177   6.568 -0.7605  0.4621  0.9625
14935TIP3   OH266295   2.339   4.649   5.038 -0.0942 -0.0192  0.2968
14935TIP3    H166296   2.341   4.743   5.018 -0.6370 -0.0487  0.0842
14935TIP3    H266297   2.264   4.639   5.096 -1.0635 -0.5747 -1.0294
14936TIP3   OH266298   0.672   3.729   5.034  0.6200 -0.1347 -0.2481
14936TIP3    H166299   0.616   3.653   5.052  1.7542 -0.9818 -0.2134
14936TIP3    H266300   0.748   3.716   5.092  0.9663  0.8670 -0.4737
14937TIP3   OH266301   0.706   1.780   4.634 -0.2811  0.1980 -0.1114
14937TIP3    H166302   0.690   1.689   4.656  1.2520  0.3900  1.9620
14937TIP3    H266303   0.731   1.821   4.717 -0.5783  2.4188 -1.0707
14938TIP3   OH266304   4.331   2.555   2.711  0.3302  0.1844 -0.0898
14938TIP3    H166305   4.372   2.501   2.643 -0.0042  0.3972 -0.4642
14938TIP3    H266306   4.375   2.640   2.701  1.9457 -0.4370  1.5011
14939TIP3   OH266307   5.855   3.912  12.724 -0.3499  0.7388 -0.3015
14939TIP3    H166308   5.827   3.940  12.637  3.9554  3.0278 -1.1387
14939TIP3    H266309   5.830   3.820  12.730 -1.7381  0.8598 -3.5162
14940TIP3   OH266310   5.417   3.351   3.743 -0.5883 -0.1743 -0.0167
14940TIP3    H166311   5.453   3.436   3.768 -1.7068  0.5182 -0.7613
14940TIP3    H266312   5.481   3.315   3.681  0.4755 -0.4153  1.1813
14941TIP3   OH266313   5.364   5.127  17.250 -0.3578 -0.0746 -0.0132
14941TIP3    H166314   5.321   5.158  17.330  0.6396  2.0593 -0.2753
14941TIP3    H266315   5.316   5.168  17.179  0.9182  0.8277 -0.3737
14942TIP3   OH266316   1.791   3.308  14.765 -0.3510 -0.5294  0.3151
14942TIP3    H166317   1.815   3.362  14.840  0.8890 -0.2098 -0.2980
14942TIP3    H266318   1.791   3.368  14.690 -0.4231 -1.0774 -0.1344
14943TIP3   OH266319   4.365   5.173   3.525  0.0998  0.2210 -0.0609
14943TIP3    H166320   4.405   5.246   3.478 -0.1512  1.0145  0.9337
14943TIP3    H266321   4.277   5.167   3.489  0.4877 -0.3341 -0.9445
14944TIP3   OH266322   1.961   5.435  12.916 -0.6420  0.4845 -0.1049
14944TIP3    H166323   1.932   5.345  12.929 -1.0523  1.0206  3.1806
14944TIP3    H266324   2.051   5.436  12.949 -0.5031  1.2076 -0.4801
14945TIP3   OH266325   2.936   1.227  11.593 -0.1390 -0.7383  0.2548
14945TIP3    H166326   2.910   1.316  11.570 -1.6868 -0.6950  2.0663
14945TIP3    H266327   2.916   1.175  11.515 -2.1979 -0.0358  0.2888
14946TIP3   OH266328   1.469   0.730  14.719 -0.1143 -0.0808 -0.3752
14946TIP3    H166329   1.488   0.679  14.641 -1.4358 -0.4631 -0.4629
14946TIP3    H266330   1.417   0.672  14.774  1.6874 -0.1766  1.2743
14947TIP3   OH266331   2.370   3.447  13.732  0.1205 -0.3200 -0.0897
14947TIP3    H166332   2.408   3.399  13.806 -0.8859  0.0638  0.6945
14947TIP3    H266333   2.443   3.459  13.671  0.6122 -1.9494  0.1585
14948TIP3   OH266334   5.012   3.887   0.163  0.3519 -0.6499  0.1308
14948TIP3    H166335   5.053   3.821   0.107 -0.1919  0.4515 -1.6381
14948TIP3    H266336   5.085   3.931   0.206  0.7516 -1.9091  0.7660
14949TIP3   OH266337   1.159   1.090   1.968 -0.0167  0.2252  0.1987
14949TIP3    H166338   1.143   1.077   2.061  1.1152  2.2757  0.6936
14949TIP3    H266339   1.092   1.153   1.941 -0.2867 -0.2983 -0.3742
14950TIP3   OH266340   0.350   4.549  11.478  0.0154  0.5634  0.4876
14950TIP3    H166341   0.306   4.508  11.552 -0.6010  0.5096  0.0901
14950TIP3    H266342   0.371   4.637  11.507 -0.7827  0.7468  0.5086
14951TIP3   OH266343   0.483   0.318   4.390  0.2366  0.8443  0.3654
14951TIP3    H166344   0.564   0.271   4.411 -0.4814 -0.0327  1.2688
14951TIP3    H266345   0.429   0.254   4.345 -0.3789  1.0970  0.7370
14952TIP3   OH266346   3.595   4.072   0.138 -0.1418 -0.6631 -0.0312
14952TIP3    H166347   3.659   4.120   0.086  0.9963 -0.7572  1.2545
14952TIP3    H266348   3.522   4.134   0.150 -0.5861 -0.7570 -1.9881
14953TIP3   OH266349   1.175   4.965   4.036  0.4030  0.6854  0.5620
14953TIP3    H166350   1.233   4.933   4.105 -1.0812 -1.7679  0.7422
14953TIP3    H266351   1.088   4.963   4.074 -0.4017 -0.4203 -1.2611
14954TIP3   OH266352   2.241   0.395   2.561 -0.0145 -0.8565 -0.0687
14954TIP3    H166353   2.282   0.351   2.636 -2.5128 -0.5434  1.5645
14954TIP3    H266354   2.160   0.346   2.548 -1.8966  1.9906  0.5003
14955TIP3   OH266355   1.129   6.626   5.327 -0.0680 -0.6939 -0.0094
14955TIP3    H166356   1.054   6.625   5.268  1.3857 -3.5423 -1.9276
14955TIP3    H266357   1.101   6.575   5.403 -0.6305 -0.3171  0.0389
14956TIP3   OH266358   6.171   4.845   1.276  0.6405  0.0990 -0.2917
14956TIP3    H166359   6.183   4.875   1.366  0.7949  2.7631 -1.1502
14956TIP3    H266360   6.241   4.887   1.227  1.0041 -1.9040 -1.5681
14957TIP3   OH266361   5.473   5.126   5.268 -0.2578 -0.2566  0.1073
14957TIP3    H166362   5.412   5.194   5.295  1.8447  1.6659  0.0815
14957TIP3    H266363   5.559   5.163   5.284  0.9310 -3.2978  1.0561
14958TIP3   OH266364   2.723   3.821  11.356 -0.0828 -0.1816  0.2201
14958TIP3    H166365   2.782   3.754  11.391  0.0226 -1.2576 -1.9189
14958TIP3    H266366   2.643   3.773  11.335 -0.5000  0.6358 -0.0744
14959TIP3   OH266367   3.421   3.202  16.801  0.3646 -0.2495 -0.4529
14959TIP3    H166368   3.379   3.225  16.884  0.7539 -0.8467 -0.0918
14959TIP3    H266369   3.489   3.268  16.790  1.2276 -0.9835  0.3965
14960TIP3   OH266370   1.801   6.250  16.622  0.8373  0.0291 -0.1236
14960TIP3    H166371   1.895   6.257  16.606  1.0225 -0.9003  0.4622
14960TIP3    H266372   1.782   6.158  16.607  0.2130  0.0164  0.7278
14961TIP3   OH266373   1.863   6.535  11.710 -0.8206  0.7723 -0.1658
14961TIP3    H166374   1.938   6.543  11.652 -1.1582  2.0841 -0.4433
14961TIP3    H266375   1.853   6.441  11.724  1.1408  0.6003  0.2403
14962TIP3   OH266376   6.493   3.434   5.048 -0.4484 -0.0279 -0.1916
14962TIP3    H166377   6.562   3.416   5.112 -1.0253 -0.8765  0.2055
14962TIP3    H266378   6.424   3.371   5.069 -1.2663  0.6840 -0.7038
14963TIP3   OH266379   4.911   4.612  17.105  0.3084  0.2131 -0.1625
14963TIP3    H166380   4.895   4.586  17.196 -1.0853  1.0264 -0.1507
14963TIP3    H266381   4.824   4.612  17.065  0.3753  3.7340 -0.4486
14964TIP3   OH266382   4.203   1.630  11.812  0.4584 -0.5058 -0.1654
14964TIP3    H166383   4.262   1.599  11.881  1.2189  0.2183 -0.4949
14964TIP3    H266384   4.127   1.664  11.860  0.5480 -0.9246  0.2764
14965TIP3   OH266385   4.298   1.524   5.824  0.6786  0.3891 -0.1021
14965TIP3    H166386   4.316   1.592   5.889  0.6564 -1.3541  1.7429
14965TIP3    H266387   4.206   1.502   5.836  1.3389 -1.8053  1.0804
14966TIP3   OH266388   6.129   0.105  14.347  0.1238  0.3169  0.2957
14966TIP3    H166389   6.050   0.156  14.333  0.5466  0.4676 -1.6545
14966TIP3    H266390   6.137   0.050  14.270  0.5238 -1.5967  1.6570
14967TIP3   OH266391   2.209   6.601   3.348  0.2864  0.2486 -0.3134
14967TIP3    H166392   2.113   6.599   3.348  0.2365  0.5204  2.4723
14967TIP3    H266393   2.231   6.694   3.351  0.7252  0.3020 -3.4472
14968TIP3   OH266394   2.482   5.043  10.170  0.2868  0.3901 -0.1317
14968TIP3    H166395   2.417   4.975  10.188  2.4855 -1.6097  0.5167
14968TIP3    H266396   2.468   5.108  10.238 -1.3135  0.1968 -0.2644
14969TIP3   OH266397   1.413   1.955  14.956  0.4398  0.1843  0.2222
14969TIP3    H166398   1.507   1.947  14.941  0.3204 -1.1356  0.0994
14969TIP3    H266399   1.382   2.010  14.885  1.1775  0.9410  0.4811
14970TIP3   OH266400   1.165   1.952  15.841 -0.7383  0.5626  0.4574
14970TIP3    H166401   1.240   2.011  15.847  1.5311 -1.8512 -2.3727
14970TIP3    H266402   1.138   1.938  15.932  2.6202  1.0635  1.5975
14971TIP3   OH266403   2.651   6.816   0.230 -0.0075  0.2588  0.0259
14971TIP3    H166404   2.619   6.727   0.214 -2.7151  0.9892  1.0341
14971TIP3    H266405   2.693   6.842   0.148  0.0043 -1.6195 -0.5836
14972TIP3   OH266406   1.398   6.697   0.928 -0.2775  0.3592  0.2392
14972TIP3    H166407   1.430   6.739   0.849  2.2737  0.9907  1.5643
14972TIP3    H266408   1.408   6.603   0.913  0.6539  0.4974 -0.0011
14973TIP3   OH266409   3.997   2.757  11.196  0.2212 -0.3709  0.1500
14973TIP3    H166410   4.061   2.688  11.212 -0.0704 -0.6537  0.0930
14973TIP3    H266411   3.972   2.747  11.104  1.5785  0.9908 -0.3862
14974TIP3   OH266412   0.302   2.838   5.821  0.2296 -0.3253 -0.4017
14974TIP3    H166413   0.244   2.889   5.878 -1.6533 -0.5410 -2.0698
14974TIP3    H266414   0.247   2.812   5.748  2.0833 -1.8019 -1.3188
14975TIP3   OH266415   2.411   6.762   1.894 -0.0149  0.5024 -0.5100
14975TIP3    H166416   2.435   6.670   1.887  0.1242  0.5531 -0.6986
14975TIP3    H266417   2.398   6.791   1.803 -1.8584  0.1916 -0.3753
14976TIP3   OH266418   4.832   0.020   1.545 -0.1821  0.5370  0.3284
14976TIP3    H166419   4.895  -0.047   1.521  1.4909  2.5142 -0.9334
14976TIP3    H266420   4.784   0.038   1.464 -0.7806  0.7189  0.7164
14977TIP3   OH266421   3.718   2.104  17.228 -0.0120 -0.3115  0.6748
14977TIP3    H166422   3.624   2.108  17.248 -0.1265  0.6529 -0.0104
14977TIP3    H266423   3.743   2.196  17.215  1.2420 -0.4883  1.8372
14978TIP3   OH266424   5.744   4.630  11.440 -0.8538  0.4034 -0.5773
14978TIP3    H166425   5.838   4.613  11.444 -0.9104  0.3846  0.6431
14978TIP3    H266426   5.729   4.700  11.503 -1.8500 -0.4359  0.1199
14979TIP3   OH266427   4.001   3.377  16.379  0.3649 -0.0841 -0.2917
14979TIP3    H166428   4.015   3.388  16.473  1.4168  0.0523 -0.4644
14979TIP3    H266429   3.937   3.444  16.356 -1.9464 -1.8134  0.8164
14980TIP3   OH266430   2.201   2.635  13.863 -0.4143 -0.0583 -0.1795
14980TIP3    H166431   2.200   2.667  13.953 -0.4871  0.3428 -0.3181
14980TIP3    H266432   2.161   2.706  13.812  0.4487  0.1050 -0.6521
14981TIP3   OH266433   3.509   6.670   1.693 -0.4351 -0.4123 -0.4256
14981TIP3    H166434   3.458   6.751   1.692 -0.0338 -0.0748  2.3449
14981TIP3    H266435   3.444   6.600   1.682 -1.0839  0.1705 -0.3169
14982TIP3   OH266436   1.351   5.176   4.562 -0.2819 -0.2304  0.6872
14982TIP3    H166437   1.433   5.212   4.595  1.3526 -1.5305 -1.7605
14982TIP3    H266438   1.300   5.157   4.640  0.3388  3.7185  2.1513
14983TIP3   OH266439   2.478   3.596  10.995  0.1678 -0.0290 -0.2607
14983TIP3    H166440   2.422   3.672  10.977  1.8896  1.4730  0.6596
14983TIP3    H266441   2.416   3.527  11.019 -1.4737  0.8638 -1.7159
14984TIP3   OH266442   4.937   2.855  12.140  0.2692 -0.8496 -0.6633
14984TIP3    H166443   4.987   2.817  12.068  0.9676  0.3260 -0.8037
14984TIP3    H266444   4.866   2.793  12.155  2.6449 -3.3686  0.5706
14985TIP3   OH266445   6.201   1.945  15.033 -0.1663 -0.0229 -0.3831
14985TIP3    H166446   6.224   2.037  15.047 -0.5436  0.2182 -1.3077
14985TIP3    H266447   6.275   1.910  14.983 -0.3975 -0.0111 -0.7355
14986TIP3   OH266448   1.280   1.570   3.692 -0.1280  0.2345 -0.3032
14986TIP3    H166449   1.187   1.571   3.667 -0.1105 -0.7820 -0.4029
14986TIP3    H266450   1.282   1.621   3.773 -0.6813  0.7678 -0.6146
14987TIP3   OH266451   5.914   0.248  15.406  0.5745 -0.3899  0.3289
14987TIP3    H166452   5.824   0.229  15.431  0.0775 -0.6458 -1.5765
14987TIP3    H266453   5.959   0.163  15.410  0.3527 -0.5361 -0.1608
14988TIP3   OH266454   3.285   3.869  13.931 -0.0145  0.0309  0.2166
14988TIP3    H166455   3.328   3.882  14.015 -2.3373 -0.4846  1.5110
14988TIP3    H266456   3.268   3.775  13.926 -1.4209  0.2904 -0.0595
14989TIP3   OH266457   3.025   0.067  15.944  0.1312  0.3856 -0.0101
14989TIP3    H166458   2.981   0.024  16.017  0.5820  0.4853  0.3202
14989TIP3    H266459   2.957   0.121  15.904 -0.3588 -0.3945 -0.2468
14990TIP3   OH266460   5.640   3.670  12.914  0.4050  0.0275  0.3134
14990TIP3    H166461   5.632   3.603  12.982 -0.0024 -1.9075 -1.5923
14990TIP3    H266462   5.683   3.626  12.841  0.0017  1.8022 -1.0449
14991TIP3   OH266463   1.403   2.596   0.559 -0.2542 -0.1206  1.2677
14991TIP3    H166464   1.318   2.569   0.595 -0.5315  0.9240  1.4130
14991TIP3    H266465   1.401   2.564   0.468 -0.1169 -1.5412  1.7472
14992TIP3   OH266466   5.821   3.540   0.126  0.2913 -0.4050  0.1432
14992TIP3    H166467   5.866   3.609   0.175  1.2502  0.7366 -2.2666
14992TIP3    H266468   5.730   3.569   0.121  0.4746  0.1669  0.0591
14993TIP3   OH266469   4.291   4.570   1.687 -0.2836 -0.1002 -0.0595
14993TIP3    H166470   4.238   4.648   1.668  1.0065  0.4576 -1.4096
14993TIP3    H266471   4.248   4.500   1.639 -1.4583 -0.2510  1.1710
14994TIP3   OH266472   5.105   4.923   2.490 -0.2343 -0.1712  0.2914
14994TIP3    H166473   5.158   4.863   2.542 -1.8340 -2.2351 -0.3457
14994TIP3    H266474   5.156   4.939   2.411  0.3655 -0.3924  0.6322
14995TIP3   OH266475   6.402   0.152   2.251 -0.2238  0.1352 -0.5821
14995TIP3    H166476   6.326   0.179   2.200  0.4828  0.3715 -1.5277
14995TIP3    H266477   6.477   0.188   2.203  0.4771 -0.0428  0.3686
14996TIP3   OH266478   6.559   0.972  12.810  0.2887  0.0579  0.4679
14996TIP3    H166479   6.507   0.891  12.808 -1.2870  1.0501  0.1416
14996TIP3    H266480   6.547   1.007  12.898 -0.9436  1.1166 -0.0955
14997TIP3   OH266481   3.970   5.310   1.983 -0.2902  0.0085 -0.4193
14997TIP3    H166482   3.904   5.246   1.954 -0.3063  0.3376 -1.1012
14997TIP3    H266483   3.973   5.298   2.078 -0.6092 -0.7081 -0.4893
14998TIP3   OH266484   2.610   3.517  14.779  0.6949 -0.1866  0.0412
14998TIP3    H166485   2.517   3.541  14.775  0.1012 -2.1868  0.9867
14998TIP3    H266486   2.653   3.593  14.819 -0.7610  0.2004  0.9133
14999TIP3   OH266487   4.244   0.067   3.235  0.5544 -0.1444  0.0399
14999TIP3    H166488   4.311   0.003   3.212 -0.4734 -1.4193  0.5122
14999TIP3    H266489   4.287   0.126   3.298  1.4852 -0.3908 -0.3585
15000TIP3   OH266490   0.786   1.462   6.050  0.0591 -0.0893 -0.1628
15000TIP3    H166491   0.815   1.533   6.108  3.4022 -2.1426  0.8696
15000TIP3    H266492   0.863   1.441   5.997 -1.3198 -1.9012 -1.5396
15001TIP3   OH266493   2.550   5.928   0.927  0.3958  0.3084  0.0777
15001TIP3    H166494   2.466   5.970   0.906  1.0077  1.0578 -0.9192
15001TIP3    H266495   2.570   5.956   1.016 -1.6768 -1.9624  1.3078
15002TIP3   OH266496   1.655   1.606   1.784 -0.3935  0.6205  0.0659
15002TIP3    H166497   1.703   1.643   1.858 -2.1149 -0.0080  1.5683
15002TIP3    H266498   1.675   1.512   1.787 -0.9426  0.4995  0.1411
15003TIP3   OH266499   5.572   6.100   0.399  0.0135 -0.6315  0.1692
15003TIP3    H166500   5.619   6.184   0.405 -2.3746  0.6269  2.1730
15003TIP3    H266501   5.606   6.048   0.471 -0.6303 -0.2320  0.7741
15004TIP3   OH266502   5.465   0.564   2.710 -0.0349 -0.0236 -0.1176
15004TIP3    H166503   5.385   0.512   2.720 -1.2873  1.4265 -2.0298
15004TIP3    H266504   5.519   0.514   2.649  1.0951 -1.6097  2.1320
15005TIP3   OH266505   3.543   4.539  16.862  0.1833 -0.9290  0.0641
15005TIP3    H166506   3.476   4.551  16.796 -0.5369  1.2412  1.1424
15005TIP3    H266507   3.615   4.595  16.834  0.5107 -1.2203  0.3071
15006TIP3   OH266508   3.275   0.423  12.410  0.6284  0.3693 -0.4187
15006TIP3    H166509   3.345   0.459  12.355  1.5881 -0.9686 -0.1103
15006TIP3    H266510   3.322   0.376  12.479 -0.5852 -0.5507 -0.2175
15007TIP3   OH266511   3.565   1.864  13.145  0.2750 -1.0918 -0.1833
15007TIP3    H166512   3.566   1.903  13.232  0.6606 -1.1766 -0.1491
15007TIP3    H266513   3.472   1.854  13.124  0.1798 -1.8885  0.5782
15008TIP3   OH266514   4.632   0.989   5.817  0.5820 -0.5661  0.0161
15008TIP3    H166515   4.622   0.919   5.752  1.9288 -1.7565  1.0697
15008TIP3    H266516   4.727   1.002   5.824  0.3802  0.8407  0.4059
15009TIP3   OH266517   1.005   4.951  11.390 -0.3263 -0.1688  0.8038
15009TIP3    H166518   1.100   4.941  11.378 -0.5354 -1.0064 -0.2244
15009TIP3    H266519   0.986   5.039  11.358 -0.1306 -0.5989 -0.5376
15010TIP3   OH266520   5.622   6.703   5.552  0.3625 -0.4040 -0.7636
15010TIP3    H166521   5.681   6.776   5.534  0.5124 -0.3983 -0.2240
15010TIP3    H266522   5.660   6.629   5.504  1.5519 -0.7453  0.6950
15011TIP3   OH266523   3.538   1.835   0.234 -0.7010 -0.7227 -0.1327
15011TIP3    H166524   3.622   1.880   0.235  0.0719 -2.1046 -0.8039
15011TIP3    H266525   3.480   1.891   0.284 -0.6627  2.6821 -3.7006
15012TIP3   OH266526   6.365   3.438  12.788  0.0189 -0.0437  0.4022
15012TIP3    H166527   6.293   3.427  12.725 -0.0579 -0.2318  0.5247
15012TIP3    H266528   6.439   3.465  12.734  0.4060 -1.8513 -0.0091
15013TIP3   OH266529   2.291   3.045  16.796  0.5522  0.0983 -0.2242
15013TIP3    H166530   2.252   3.025  16.712  0.7047 -0.8309 -0.0734
15013TIP3    H266531   2.246   2.988  16.858  0.2365  0.9861  0.3718
15014TIP3   OH266532   0.521   0.186  11.691 -0.4670 -0.1747  0.1126
15014TIP3    H166533   0.541   0.248  11.621 -2.2980 -1.0712 -1.2424
15014TIP3    H266534   0.593   0.123  11.689 -1.0731 -0.8154 -1.6991
15015TIP3   OH266535   3.300   0.206   0.324 -0.1980  0.1968  0.2334
15015TIP3    H166536   3.349   0.233   0.246  0.1370 -1.1446 -0.0292
15015TIP3    H266537   3.210   0.198   0.294 -0.0749 -0.2861 -0.0078
15016TIP3   OH266538   2.773   2.092   2.218  0.2378 -0.7079  0.1013
15016TIP3    H166539   2.815   2.137   2.292 -0.7853 -0.8447  0.7688
15016TIP3    H266540   2.727   2.018   2.258  0.6314 -1.4604 -0.8118
15017TIP3   OH266541   5.644   6.662  15.478  0.4966 -0.2085 -0.3822
15017TIP3    H166542   5.709   6.595  15.495  0.4424  0.1348  1.3495
15017TIP3    H266543   5.589   6.626  15.408  0.3991 -2.0230  0.5903
15018TIP3   OH266544   6.001   3.908  11.296  0.5264  0.2410  0.4787
15018TIP3    H166545   6.065   3.932  11.362  0.7134  0.0371  0.3749
15018TIP3    H266546   5.937   3.979  11.295  0.7273  0.4190  0.6151
15019TIP3   OH266547   1.330   1.701  11.905  0.4287 -0.1982 -1.0759
15019TIP3    H166548   1.389   1.739  11.971 -0.4519 -0.7510  0.0467
15019TIP3    H266549   1.301   1.619  11.944 -3.3666  1.4000 -0.3227
15020TIP3   OH266550   6.079   3.470   3.439 -0.4914  0.2573  0.3602
15020TIP3    H166551   6.089   3.390   3.387  1.8481  1.4624 -1.1116
15020TIP3    H266552   6.104   3.540   3.380 -0.8233  1.9538  2.1922
15021TIP3   OH266553   3.595   5.519  13.800  0.1178 -0.1341  0.1927
15021TIP3    H166554   3.579   5.514  13.894  0.5902 -0.6190  0.2600
15021TIP3    H266555   3.536   5.586  13.768 -0.9622 -0.8653  0.6362
15022TIP3   OH266556   3.956   2.695  12.074 -0.0465  0.2728 -0.5136
15022TIP3    H166557   3.958   2.612  12.121 -0.0126  0.3991 -0.2896
15022TIP3    H266558   3.894   2.749  12.124 -2.2467 -0.5605 -2.2309
15023TIP3   OH266559   0.861   4.605  16.779 -0.6202  0.5437 -0.3184
15023TIP3    H166560   0.861   4.554  16.698 -0.9638  1.0150 -0.6203
15023TIP3    H266561   0.768   4.616  16.801 -0.5220  0.2022  0.2747
15024TIP3   OH266562   4.060   6.018   5.300  0.2387  0.0208 -0.0439
15024TIP3    H166563   4.031   5.935   5.337  3.0107  0.0178  2.3591
15024TIP3    H266564   4.156   6.015   5.307  0.4101  3.3061 -0.0889
15025TIP3   OH266565   4.386   6.508  12.986  0.1251 -0.1411 -0.2508
15025TIP3    H166566   4.329   6.434  13.007 -0.0642  0.7056  2.4997
15025TIP3    H266567   4.447   6.513  13.060  1.5024  1.1283 -1.4443
15026TIP3   OH266568   3.255   1.577  11.512 -0.5404 -0.2172 -0.1846
15026TIP3    H166569   3.333   1.619  11.547 -1.1301  2.6422 -2.1559
15026TIP3    H266570   3.183   1.618  11.560 -1.0775  0.3004 -1.4295
15027TIP3   OH266571   5.546   2.143   1.704  0.3653 -0.0225 -0.2706
15027TIP3    H166572   5.602   2.126   1.780 -0.2970 -0.7179  0.0692
15027TIP3    H266573   5.567   2.233   1.679 -0.8936  0.9655  2.0287
15028TIP3   OH266574   2.476   4.817   1.958 -0.6557 -0.1860 -0.1747
15028TIP3    H166575   2.418   4.884   1.995  1.5071  0.7255  1.6093
15028TIP3    H266576   2.466   4.742   2.016  0.1518  0.0681  0.2972
15029TIP3   OH266577   0.846   1.189  12.466 -0.1562 -0.3639 -0.7275
15029TIP3    H166578   0.850   1.146  12.381  1.4913  0.8416 -1.2782
15029TIP3    H266579   0.914   1.145  12.518 -0.4415 -0.3770 -0.3581
15030TIP3   OH266580   6.034   6.602   5.583  0.6172 -0.2125  0.1304
15030TIP3    H166581   5.943   6.573   5.578  0.7722 -1.0125  1.7273
15030TIP3    H266582   6.032   6.676   5.644  1.0181 -0.1309  0.0456
15031TIP3   OH266583   6.782   0.157   4.534  0.2422 -0.0356  0.4008
15031TIP3    H166584   6.698   0.111   4.533  0.8186 -1.1743  2.0431
15031TIP3    H266585   6.823   0.130   4.616  0.7428  3.1800  1.2813
15032TIP3   OH266586   3.774   6.241  11.661  0.1320  0.1841 -0.5934
15032TIP3    H166587   3.852   6.206  11.704 -0.4036  1.0950  1.1660
15032TIP3    H266588   3.709   6.171  11.669  0.1674  0.1836 -0.3109
15033TIP3   OH266589   0.513   6.805  12.951  0.0768  0.0754 -0.3275
15033TIP3    H166590   0.476   6.729  12.996 -0.3163  0.4276 -0.0473
15033TIP3    H266591   0.496   6.878  13.011  2.7483 -0.0194  0.6150
15034TIP3   OH266592   5.175   0.470   1.406  0.3948  0.0471  0.2553
15034TIP3    H166593   5.118   0.530   1.358 -0.0440 -0.6732 -0.1389
15034TIP3    H266594   5.181   0.393   1.350  1.9012  0.1801  0.2131
15035TIP3   OH266595   5.456   1.817  14.481 -0.7984 -0.2890  0.1292
15035TIP3    H166596   5.369   1.835  14.517 -0.9478 -1.6573  0.5074
15035TIP3    H266597   5.489   1.744  14.534  0.4446  0.0001 -0.2310
15036TIP3   OH266598   5.611   2.760   0.640 -0.3103  0.1251 -0.0886
15036TIP3    H166599   5.671   2.832   0.659 -0.1324  0.0107 -0.2127
15036TIP3    H266600   5.641   2.689   0.696  0.2834 -0.2495 -0.8726
15037TIP3   OH266601   4.865   4.584   3.912 -0.0569 -0.3041  0.1467
15037TIP3    H166602   4.803   4.549   3.977  0.1893 -0.9182  0.0511
15037TIP3    H266603   4.868   4.518   3.843  0.9149 -0.4038  0.2810
15038TIP3   OH266604   4.705   5.280  13.468  0.1873  0.4041  0.5245
15038TIP3    H166605   4.770   5.350  13.471 -1.8151  2.4058 -0.8248
15038TIP3    H266606   4.720   5.237  13.384  0.8189 -0.1847  0.9398
15039TIP3   OH266607   5.037   1.443  11.175  0.3051  0.3910  0.2645
15039TIP3    H166608   5.016   1.512  11.239 -0.8025  1.4939 -1.2559
15039TIP3    H266609   4.954   1.397  11.163  0.5790  0.0277 -0.2001
15040TIP3   OH266610   5.008   5.713   0.494 -0.9183  0.3625 -0.3982
15040TIP3    H166611   5.075   5.646   0.488  0.1325  1.0317  2.8468
15040TIP3    H266612   5.021   5.768   0.417  2.1676  0.3311  0.0554
15041TIP3   OH266613   3.896   3.340  10.978 -0.2371 -0.6866  0.3873
15041TIP3    H166614   3.902   3.418  10.923 -0.0398 -0.4761  0.7018
15041TIP3    H266615   3.878   3.269  10.918 -2.3715 -0.1031  0.2835
15042TIP3   OH266616   1.810   4.398  13.056  0.1724  0.5736 -0.6452
15042TIP3    H166617   1.893   4.416  13.012  0.5821  0.2682 -0.0097
15042TIP3    H266618   1.820   4.308  13.089 -1.1751 -0.2041 -2.2765
15043TIP3   OH266619   0.149   2.178  11.590  0.2133  0.9548 -0.4054
15043TIP3    H166620   0.085   2.118  11.628 -0.8111  0.5137 -2.7394
15043TIP3    H266621   0.208   2.200  11.662 -1.4800 -0.0928  1.3276
15044TIP3   OH266622   4.246   4.149  12.178  0.0810 -0.1914 -0.3277
15044TIP3    H166623   4.265   4.243  12.177 -0.0215 -0.1534  0.8447
15044TIP3    H266624   4.151   4.144  12.165 -0.0687 -0.0753  0.6495
15045TIP3   OH266625   6.674   1.992   4.497 -0.2515 -0.1580  0.5694
15045TIP3    H166626   6.722   2.070   4.525  0.2962 -0.7574  1.2883
15045TIP3    H266627   6.629   1.962   4.576  0.7048 -1.4199  0.6460
15046TIP3   OH266628   0.034   4.699   2.902  0.6929 -0.2482  0.3174
15046TIP3    H166629   0.054   4.791   2.919  0.3764 -0.2283  0.5738
15046TIP3    H266630  -0.035   4.677   2.964 -0.6894 -0.0802 -1.1016
15047TIP3   OH266631   5.232   6.188  13.375  0.1033 -0.0766  0.2825
15047TIP3    H166632   5.180   6.234  13.440 -0.6421  1.0054 -1.0595
15047TIP3    H266633   5.178   6.114  13.347  0.0672 -0.0429  0.2641
15048TIP3   OH266634   0.069   2.830  17.013  0.1520 -0.3332  0.1184
15048TIP3    H166635   0.091   2.920  16.991  1.1293 -0.8207 -0.8902
15048TIP3    H266636   0.137   2.803  17.074 -1.2142  0.2220  1.9591
15049TIP3   OH266637   5.257   2.879  14.122  0.1731 -0.1016  0.1918
15049TIP3    H166638   5.351   2.892  14.134 -0.0019 -0.3254  1.9639
15049TIP3    H266639   5.237   2.923  14.039  1.7930  0.1535 -0.0793
15050TIP3   OH266640   0.423   0.155   2.472 -0.7260  0.3034  0.0174
15050TIP3    H166641   0.379   0.238   2.455  1.1901  1.6081  1.1914
15050TIP3    H266642   0.425   0.147   2.567  0.0334 -0.5810 -0.0638
15051TIP3   OH266643   4.130   1.154   4.663  0.0172  0.3211  0.0358
15051TIP3    H166644   4.077   1.166   4.742  2.1054 -1.7520  1.8180
15051TIP3    H266645   4.116   1.063   4.638  0.8153  0.4445 -0.9202
15052TIP3   OH266646   3.454   4.262  12.626  0.2099  0.0245 -0.2699
15052TIP3    H166647   3.435   4.269  12.533  1.1804 -0.2833 -0.4969
15052TIP3    H266648   3.500   4.178  12.635  2.1043  1.0831  0.1400
15053TIP3   OH266649   0.185   6.746  12.421 -0.3880 -0.2232  0.4968
15053TIP3    H166650   0.275   6.715  12.414 -0.1148  1.0085 -1.4387
15053TIP3    H266651   0.154   6.753  12.331 -1.9008  0.8937  1.0812
15054TIP3   OH266652   5.831   4.116   0.527  0.3975  0.5985 -0.4816
15054TIP3    H166653   5.811   4.034   0.482  0.9025 -0.5345  1.2717
15054TIP3    H266654   5.884   4.166   0.465 -1.1855  0.2362 -2.1231
15055TIP3   OH266655   3.168   4.445  15.648  0.4815  0.1437  0.6685
15055TIP3    H166656   3.136   4.536  15.645  0.4767  0.1363  0.4710
15055TIP3    H266657   3.207   4.436  15.735 -0.7852 -0.0955  1.2144
15056TIP3   OH266658   4.455   5.393  13.688  0.7534  0.0447 -0.3822
15056TIP3    H166659   4.382   5.454  13.675  0.0740 -0.2253  1.9698
15056TIP3    H266660   4.533   5.449  13.682  0.2155  0.8650  0.0974
15057TIP3   OH266661   6.113   3.834  16.726  0.4482 -0.4110 -0.1650
15057TIP3    H166662   6.161   3.914  16.745 -0.1434 -0.7803  3.2734
15057TIP3    H266663   6.110   3.787  16.810 -2.0717 -2.4629 -1.3181
15058TIP3   OH266664   3.190   1.729  16.064 -0.3533 -0.1594 -0.0765
15058TIP3    H166665   3.202   1.660  15.999 -1.3271 -1.8544  1.5115
15058TIP3    H266666   3.107   1.770  16.041  0.3062  0.6108 -1.1219
15059TIP3   OH266667   6.238   0.641   5.762 -0.0536  0.0236  0.0844
15059TIP3    H166668   6.144   0.631   5.778 -0.2090 -0.9498 -1.3219
15059TIP3    H266669   6.262   0.721   5.809 -1.6460  0.4479  0.2108
15060TIP3   OH266670   5.190   1.150  16.710  0.0344  0.0524 -0.0866
15060TIP3    H166671   5.190   1.096  16.789 -0.8116 -0.0455 -0.1407
15060TIP3    H266672   5.098   1.174  16.698  0.0660 -0.4205 -1.3708
15061TIP3   OH266673   1.227   5.383   3.453  0.8860 -0.3383 -0.0062
15061TIP3    H166674   1.273   5.416   3.377 -0.4167 -1.9001 -1.5257
15061TIP3    H266675   1.243   5.288   3.452 -3.5304 -1.1645 -1.4821
15062TIP3   OH266676   2.453   0.372   3.650 -0.2345  0.6700  0.6196
15062TIP3    H166677   2.531   0.428   3.646 -0.2123  0.5651 -0.5553
15062TIP3    H266678   2.405   0.392   3.570  1.3504 -3.3061 -1.4276
15063TIP3   OH266679   1.419   1.905   4.552 -0.2633  0.1145  0.7928
15063TIP3    H166680   1.497   1.852   4.567  0.9047  1.8814  1.1864
15063TIP3    H266681   1.371   1.901   4.634 -1.1252 -1.8123  0.2114
15064TIP3   OH266682   2.587   4.231   5.196  0.4156 -0.3942  0.5171
15064TIP3    H166683   2.675   4.268   5.193 -0.7826  2.5680  0.7929
15064TIP3    H266684   2.576   4.187   5.112  1.7339  0.1768  0.0486
15065TIP3   OH266685   4.946   2.852   0.031 -0.6367 -0.1273 -0.1419
15065TIP3    H166686   5.013   2.856   0.099 -1.2525  0.1594  0.4630
15065TIP3    H266687   4.864   2.842   0.080 -0.9832 -1.0187 -0.8858
15066TIP3   OH266688   0.765   3.631  13.091  0.3923 -0.7701 -0.3317
15066TIP3    H166689   0.742   3.724  13.088  1.3453 -0.5551 -1.3960
15066TIP3    H266690   0.758   3.607  13.183  0.1948  0.3761 -0.0447
15067TIP3   OH266691   6.261   5.805   1.345  0.6046 -0.4041 -0.5406
15067TIP3    H166692   6.330   5.785   1.408 -0.8022  0.7500  1.4105
15067TIP3    H266693   6.189   5.840   1.397 -0.4098  1.1317 -2.8548
15068TIP3   OH266694   5.885   4.546  16.951 -0.2699 -0.3906 -0.0181
15068TIP3    H166695   5.827   4.599  17.005 -1.4428 -0.0117 -1.6126
15068TIP3    H266696   5.917   4.605  16.884  2.8255 -0.3423  1.4504
15069TIP3   OH266697   4.841   4.812   2.509  0.6266  0.0038 -0.4143
15069TIP3    H166698   4.925   4.855   2.495  0.1075 -0.0106 -4.0175
15069TIP3    H266699   4.776   4.879   2.486 -0.3185 -0.5326  0.6655
15070TIP3   OH266700   4.140   4.834   2.867 -0.1123 -0.1688 -0.0025
15070TIP3    H166701   4.093   4.914   2.844 -0.0383  0.3938  1.7256
15070TIP3    H266702   4.161   4.794   2.783 -0.1296  1.6371 -0.9089
15071TIP3   OH266703   1.774   2.629  13.867 -0.1505  0.1060  0.6124
15071TIP3    H166704   1.851   2.622  13.811  0.5450 -2.2556  1.7751
15071TIP3    H266705   1.702   2.596  13.813 -0.0014  0.4766  0.1842
15072TIP3   OH266706   2.122   5.776   3.767  0.2807  0.1550  0.1261
15072TIP3    H166707   2.126   5.717   3.843  0.5901  0.4507  0.3421
15072TIP3    H266708   2.082   5.723   3.698 -0.4490  0.0421  0.6369
15073TIP3   OH266709   0.309   6.213   0.870 -0.3026 -0.1934 -0.6490
15073TIP3    H166710   0.391   6.197   0.822 -0.0369  1.4913 -0.7628
15073TIP3    H266711   0.337   6.242   0.957 -0.7952 -0.2194 -0.4800
15074TIP3   OH266712   4.952   3.607  12.878 -1.5749 -0.6534 -0.5690
15074TIP3    H166713   4.999   3.665  12.937  0.1815 -2.4143 -0.1996
15074TIP3    H266714   4.961   3.648  12.792  0.5570 -0.9022 -0.4827
15075TIP3   OH266715   4.044   6.619   3.526  0.1046  0.0101 -0.2706
15075TIP3    H166716   4.015   6.638   3.437 -1.2637  0.5548  0.2643
15075TIP3    H266717   4.013   6.695   3.577  2.1527  0.4122  0.4039
15076TIP3   OH266718   6.350   3.501  16.893 -0.0028 -0.2971 -0.9654
15076TIP3    H166719   6.334   3.473  16.802  1.2776  1.2477 -1.6923
15076TIP3    H266720   6.336   3.421  16.945  0.5529 -1.5401 -2.6658
15077TIP3   OH266721   2.102   1.781  17.235  0.8489 -0.3462 -0.0121
15077TIP3    H166722   2.191   1.808  17.212  1.4403 -1.8684  0.4688
15077TIP3    H266723   2.061   1.861  17.268  2.6863 -0.0600  1.7222
15078TIP3   OH266724   3.584   2.907   2.654 -0.3986  0.3741 -0.2820
15078TIP3    H166725   3.522   2.971   2.689 -0.3035 -0.7310  2.0307
15078TIP3    H266726   3.555   2.823   2.689  1.1583 -0.4486 -0.8949
15079TIP3   OH266727   3.729   6.040  12.994 -1.0226 -0.1100 -0.0567
15079TIP3    H166728   3.663   5.986  12.951 -0.6887  0.5214 -1.4012
15079TIP3    H266729   3.684   6.078  13.070 -1.5047 -1.5564  0.4017
15080TIP3   OH266730   1.607   3.220  13.713 -0.6120  0.5833  0.3999
15080TIP3    H166731   1.697   3.251  13.705 -0.3167 -0.5865 -0.9966
15080TIP3    H266732   1.605   3.176  13.799  0.2457  0.2902  0.2770
15081TIP3   OH266733   0.670   5.542  15.984 -0.0047 -0.7028  0.0502
15081TIP3    H166734   0.758   5.544  16.020 -0.3457 -1.0027  0.9016
15081TIP3    H266735   0.679   5.581  15.897  0.7826  0.2002  0.5241
15082TIP3   OH266736   2.141   4.219   0.450 -0.4343 -0.1492 -0.0332
15082TIP3    H166737   2.169   4.309   0.463 -0.9334 -0.2640  2.2061
15082TIP3    H266738   2.222   4.168   0.452 -0.2778  0.1064  0.3839
15083TIP3   OH266739   2.014   5.175   1.870 -0.4354  0.1521 -0.2762
15083TIP3    H166740   1.930   5.140   1.902 -0.4635  0.9847  0.5674
15083TIP3    H266741   2.060   5.203   1.949  0.2277  0.6113 -0.8232
15084TIP3   OH266742   5.478   5.974  13.148  0.0658  0.0551 -0.1186
15084TIP3    H166743   5.516   6.021  13.222 -1.6141  0.3541  0.5674
15084TIP3    H266744   5.548   5.972  13.082  0.6291  2.2612  0.3800
15085TIP3   OH266745   3.313   1.977   4.320  0.0513 -0.3393  0.8186
15085TIP3    H166746   3.375   1.915   4.360  0.9042  0.2174  0.3707
15085TIP3    H266747   3.302   2.045   4.386  1.1833  0.3961  0.2679
15086TIP3   OH266748   6.303   5.611  13.234 -0.5338 -0.4856 -0.0139
15086TIP3    H166749   6.217   5.569  13.237 -1.2380  1.0322  2.1285
15086TIP3    H266750   6.329   5.619  13.326  1.6034 -0.2840 -0.5990
15087TIP3   OH266751   0.520   0.624   6.463  0.4106 -0.2941 -0.3550
15087TIP3    H166752   0.545   0.692   6.401 -2.0803  2.0611  1.1066
15087TIP3    H266753   0.445   0.581   6.423  0.4060 -0.5125 -0.1160
15088TIP3   OH266754   5.301   1.074  12.445 -0.1837 -0.1052  0.0483
15088TIP3    H166755   5.362   1.134  12.402 -0.6427  0.1123 -0.2961
15088TIP3    H266756   5.355   0.998  12.468  0.7238  1.0047  1.7233
15089TIP3   OH266757   5.483   2.847  11.432 -0.1859  0.1187 -0.1769
15089TIP3    H166758   5.552   2.814  11.374 -0.1347  1.0418 -0.6434
15089TIP3    H266759   5.493   2.942  11.429  0.2120  0.1485  1.8356
15090TIP3   OH266760   6.332   4.548   3.157 -0.7956  0.0079 -0.0276
15090TIP3    H166761   6.334   4.455   3.132 -1.2926 -0.0087 -0.0058
15090TIP3    H266762   6.408   4.586   3.113 -0.0594 -0.5960  0.6933
15091TIP3   OH266763   1.441   1.337   1.062  0.1300  0.1100  0.1947
15091TIP3    H166764   1.450   1.421   1.107 -1.0490 -0.3862  1.3952
15091TIP3    H266765   1.524   1.292   1.079  0.4254  0.6805  0.2844
15092TIP3   OH266766   5.697   3.584  16.103 -0.2625  0.2714  0.8825
15092TIP3    H166767   5.778   3.538  16.082 -0.5529  0.6007 -1.1103
15092TIP3    H266768   5.631   3.515  16.112 -0.2880  0.1556 -0.1202
15093TIP3   OH266769   6.201   4.436  12.010  0.0878  0.4813  0.3112
15093TIP3    H166770   6.168   4.349  12.031  1.2011 -0.2786 -0.9958
15093TIP3    H266771   6.190   4.444  11.915 -0.0802  1.7991  0.4266
15094TIP3   OH266772   3.326   1.349   4.713 -1.0811  0.2399  0.3931
15094TIP3    H166773   3.418   1.372   4.711 -0.7803 -0.5792  2.6942
15094TIP3    H266774   3.289   1.388   4.634  1.0278  1.3834 -0.0590
15095TIP3   OH266775   0.201   5.442  14.099  0.3692 -0.0143  0.1693
15095TIP3    H166776   0.216   5.348  14.111  0.0504 -0.1823 -0.7343
15095TIP3    H266777   0.150   5.448  14.019 -1.4011  0.8004  1.3459
15096TIP3   OH266778   4.449   4.299  13.929 -0.4592 -0.2092 -0.2246
15096TIP3    H166779   4.371   4.258  13.893 -0.1544 -0.3007 -0.7872
15096TIP3    H266780   4.518   4.234  13.917 -0.1947  0.0607 -0.1762
15097TIP3   OH266781   2.863   5.426  10.718 -0.9348 -0.2653 -0.6655
15097TIP3    H166782   2.775   5.426  10.679 -2.0539 -0.7692  1.7860
15097TIP3    H266783   2.882   5.334  10.735 -0.2810 -0.0755 -0.3736
15098TIP3   OH266784   5.947   2.032   4.605 -0.1952  0.5587  0.5470
15098TIP3    H166785   5.874   2.007   4.661 -0.0857 -0.2465  0.3331
15098TIP3    H266786   5.960   2.125   4.623  0.2253  0.1874  2.3207
15099TIP3   OH266787   1.990   3.611   0.796  0.5057  0.3527 -0.0609
15099TIP3    H166788   1.970   3.599   0.889  0.4563 -1.2065 -0.2568
15099TIP3    H266789   1.961   3.700   0.777 -1.7095 -0.1302  0.8506
15100TIP3   OH266790   4.945   1.149  16.614 -0.2797 -0.3342 -0.2542
15100TIP3    H166791   4.987   1.141  16.529 -0.8382 -3.1480 -0.2874
15100TIP3    H266792   4.854   1.127  16.599 -0.6187  0.2239  0.8851
15101TIP3   OH266793   5.298   5.287  11.919  0.5544  0.0153  0.1285
15101TIP3    H166794   5.375   5.276  11.862  0.5573 -0.1593  0.1666
15101TIP3    H266795   5.279   5.199  11.951  0.4013  0.0751  0.2025
15102TIP3   OH266796   6.283   5.021  16.904  0.5702  0.2757  0.9952
15102TIP3    H166797   6.263   4.945  16.850 -0.5561 -1.1162  3.3178
15102TIP3    H266798   6.313   5.088  16.841 -0.9578 -1.1841 -1.3565
15103TIP3   OH266799   1.479   6.129   6.394  0.3378 -0.3989  0.1282
15103TIP3    H166800   1.424   6.052   6.381  1.6624 -0.9772 -2.3213
15103TIP3    H266801   1.513   6.119   6.483 -0.4558 -2.0289  0.2650
15104TIP3   OH266802   5.470   1.200  16.169 -0.8223 -0.0634  0.4959
15104TIP3    H166803   5.550   1.154  16.147 -0.0113  0.6152  1.9934
15104TIP3    H266804   5.475   1.282  16.119 -1.3550 -0.7178 -0.6543
15105TIP3   OH266805   6.036   2.489  15.770  0.2988  0.1109 -0.1473
15105TIP3    H166806   5.995   2.403  15.756  1.2722 -0.4318  0.2881
15105TIP3    H266807   5.991   2.547  15.709 -1.1436 -0.4650  0.3594
15106TIP3   OH266808   1.708   6.814  13.131  0.1877  0.0944 -0.3125
15106TIP3    H166809   1.658   6.734  13.147 -0.0640  0.7704  2.5078
15106TIP3    H266810   1.660   6.858  13.061 -1.0498 -1.0281 -0.1975
15107TIP3   OH266811   1.694   6.230  12.721 -0.1599  0.4652  0.5718
15107TIP3    H166812   1.696   6.259  12.812 -0.9854 -1.8145  1.3426
15107TIP3    H266813   1.708   6.310  12.670  1.1158  1.6399  2.7035
15108TIP3   OH266814   2.466   1.161  10.936  0.4814  0.0125 -0.6423
15108TIP3    H166815   2.539   1.171  10.875  0.4388  1.8838 -0.4208
15108TIP3    H266816   2.498   1.196  11.018 -0.1054 -0.7355 -0.0845
15109TIP3   OH266817   5.524   4.196   2.944 -0.1241  0.9961  0.2096
15109TIP3    H166818   5.591   4.180   3.010 -2.7066  1.0470  2.9538
15109TIP3    H266819   5.535   4.288   2.920  0.9786  0.9156  0.3921
15110TIP3   OH266820   4.116   0.884   4.695 -0.0806 -0.0981  0.5593
15110TIP3    H166821   4.123   0.899   4.789  2.5137  1.7868  0.1081
15110TIP3    H266822   4.121   0.789   4.686 -0.0186 -0.2852  2.2931
15111TIP3   OH266823   2.015   6.555   5.272  0.5936  0.4382 -0.2885
15111TIP3    H166824   2.099   6.572   5.314 -0.0909  1.0709  0.8851
15111TIP3    H266825   2.033   6.557   5.178  1.8581  0.6948 -0.0476
15112TIP3   OH266826   5.668   6.606  17.121 -0.1437  0.8675 -0.1135
15112TIP3    H166827   5.761   6.595  17.101  0.4773  3.7096  0.9694
15112TIP3    H266828   5.663   6.598  17.217 -1.0987  0.2809 -0.2003
15113TIP3   OH266829   6.587   1.224  13.008 -0.1137  0.4533 -0.4493
15113TIP3    H166830   6.504   1.195  13.047  0.3747 -0.5119 -0.0954
15113TIP3    H266831   6.623   1.286  13.072  0.3055 -0.5217  0.2737
15114TIP3   OH266832   0.605   0.124  14.598  0.4598 -0.4844  0.4356
15114TIP3    H166833   0.549   0.200  14.614 -0.6254 -1.0195 -0.7465
15114TIP3    H266834   0.635   0.134  14.508  2.5176 -0.0634  1.1475
15115TIP3   OH266835   2.625   3.202   4.445 -0.1473 -0.0514 -0.5243
15115TIP3    H166836   2.593   3.273   4.501  1.1196  0.4999 -0.5038
15115TIP3    H266837   2.559   3.194   4.376 -1.6643 -0.6546  0.9570
15116TIP3   OH266838   1.014   3.974   3.437 -0.2133  0.0806 -0.6505
15116TIP3    H166839   0.974   3.966   3.524 -1.4560  0.8260 -1.1373
15116TIP3    H266840   0.996   3.890   3.395  0.1956 -0.2005 -0.2568
15117TIP3   OH266841   6.329   5.752  16.042  0.5785  0.4807  0.2015
15117TIP3    H166842   6.330   5.779  16.134  0.9205 -0.3125  0.4386
15117TIP3    H266843   6.238   5.762  16.016  0.4207  0.4182  0.7165
15118TIP3   OH266844   6.160   6.655   4.410  0.1459  1.3873 -0.1383
15118TIP3    H166845   6.151   6.727   4.472 -0.1676  0.9322  0.3478
15118TIP3    H266846   6.238   6.607   4.439 -1.1527 -0.0113  1.1346
15119TIP3   OH266847   0.748   1.274   1.334  0.0469  0.0280  0.1644
15119TIP3    H166848   0.732   1.262   1.241 -0.1183  0.8924  0.0781
15119TIP3    H266849   0.835   1.315   1.338  0.7659 -1.4978  0.4680
15120TIP3   OH266850   3.289   4.185  11.914  0.3103  0.2951  0.0940
15120TIP3    H166851   3.329   4.099  11.922  1.5203  0.9427  1.1565
15120TIP3    H266852   3.360   4.243  11.888 -0.2683  1.1698  0.4246
15121TIP3   OH266853   0.640   3.960   3.036 -0.2375 -0.4532  0.3652
15121TIP3    H166854   0.582   3.915   2.976  0.4195  1.1247 -1.4941
15121TIP3    H266855   0.709   3.897   3.055  0.0718 -0.6374 -1.3180
15122TIP3   OH266856   0.366   6.542  14.241 -0.0770  0.7862 -0.5937
15122TIP3    H166857   0.283   6.523  14.284  0.7613 -0.3328  0.5718
15122TIP3    H266858   0.430   6.545  14.312  1.1319  0.0952 -1.6159
15123TIP3   OH266859   6.098   4.817  14.606  0.2709 -0.0705 -0.3391
15123TIP3    H166860   6.058   4.874  14.671 -0.0308 -0.8591  0.1776
15123TIP3    H266861   6.188   4.848  14.597  0.1440  0.3967  0.0321
15124TIP3   OH266862   3.714   3.420  13.892  0.3546  0.3975 -0.6452
15124TIP3    H166863   3.688   3.336  13.853  2.6334  0.0912 -1.5763
15124TIP3    H266864   3.753   3.396  13.976 -2.3933  0.8715  0.8297
15125TIP3   OH266865   3.914   5.042  11.366  0.3937 -0.2249 -0.0672
15125TIP3    H166866   3.945   4.963  11.409 -1.5073 -0.5805  0.6891
15125TIP3    H266867   3.923   5.023  11.272 -0.4841 -1.5304  0.1002
15126TIP3   OH266868   5.124   6.663  12.147  0.5817 -0.2733 -0.3655
15126TIP3    H166869   5.202   6.608  12.147  0.0323 -1.0536 -0.5982
15126TIP3    H266870   5.056   6.608  12.109 -0.2072  0.2290  0.3161
15127TIP3   OH266871   4.359   6.169   2.535 -0.0243  0.0128  0.4878
15127TIP3    H166872   4.336   6.258   2.564  0.1090  0.2062  0.0054
15127TIP3    H266873   4.274   6.126   2.523 -0.1188  0.3557 -0.1358
15128TIP3   OH266874   5.393   2.135   2.591  0.2137 -0.3731  0.2779
15128TIP3    H166875   5.325   2.174   2.536  1.0926  1.5976  0.5251
15128TIP3    H266876   5.455   2.096   2.530  0.3592  0.3947 -0.0644
15129TIP3   OH266877   0.486   5.683  10.491  0.2216 -0.1424 -0.5095
15129TIP3    H166878   0.567   5.679  10.441  0.5282 -1.5532  0.0799
15129TIP3    H266879   0.472   5.593  10.522 -0.3858  0.5341  1.2531
15130TIP3   OH266880   0.739   5.524   5.783  1.0279 -0.4720  0.0075
15130TIP3    H166881   0.709   5.511   5.693 -1.4041  1.9322  0.3912
15130TIP3    H266882   0.786   5.444   5.805 -1.6316 -2.7109 -2.0981
15131TIP3   OH266883   4.838   5.139   4.864 -0.2382 -0.3639 -0.2915
15131TIP3    H166884   4.868   5.145   4.773 -0.5360  0.6740 -0.3321
15131TIP3    H266885   4.880   5.214   4.908  0.2938 -1.1467  0.5391
15132TIP3   OH266886   1.220   6.100   3.100 -0.1372  0.0522 -0.0620
15132TIP3    H166887   1.306   6.064   3.082 -0.2866  0.1098 -0.8972
15132TIP3    H266888   1.224   6.127   3.192  0.4934 -0.6006  0.1039
15133TIP3   OH266889   2.093   2.312  15.311  0.0471  0.4617 -0.3377
15133TIP3    H166890   2.069   2.221  15.326  0.0333  0.1886 -1.9611
15133TIP3    H266891   2.108   2.318  15.217  0.6249  1.9990 -0.1636
15134TIP3   OH266892   3.495   2.889   4.496 -0.5728  0.4842  0.2344
15134TIP3    H166893   3.563   2.828   4.525  0.4508  1.5893  0.2493
15134TIP3    H266894   3.418   2.866   4.548 -0.5889 -1.5843 -0.6566
15135TIP3   OH266895   1.399   6.467   5.315  0.1851 -0.1252 -0.2427
15135TIP3    H166896   1.359   6.553   5.310  1.3729  0.3037 -2.7386
15135TIP3    H266897   1.325   6.406   5.310 -0.5933  0.6968  0.8481
15136TIP3   OH266898   3.893   3.122   0.459  0.5446 -0.0365  0.2887
15136TIP3    H166899   3.823   3.111   0.524  1.6661 -1.8301  1.2085
15136TIP3    H266900   3.961   3.060   0.485  2.0635  0.9543 -1.1976
15137TIP3   OH266901   5.169   1.641  16.268 -0.0477 -0.1485 -0.2663
15137TIP3    H166902   5.154   1.601  16.354 -0.7691  0.2089 -0.2268
15137TIP3    H266903   5.158   1.568  16.206  0.5934 -0.4317 -0.0482
15138TIP3   OH266904   5.249   4.437  14.261  0.1466  0.2409 -0.0799
15138TIP3    H166905   5.309   4.396  14.323  0.3561 -0.6983 -0.8777
15138TIP3    H266906   5.289   4.521  14.240  1.3426 -0.4883 -0.7964
15139TIP3   OH266907   4.872   1.876  13.728 -0.0542  0.2647 -0.4232
15139TIP3    H166908   4.895   1.886  13.636  2.0076  1.2148  0.1472
15139TIP3    H266909   4.828   1.792  13.734 -1.0839  0.6491 -2.4339
15140TIP3   OH266910   3.486   3.599  15.041  0.0100  0.3961  0.4336
15140TIP3    H166911   3.570   3.642  15.054  1.2046 -1.5467 -0.5848
15140TIP3    H266912   3.444   3.601  15.127  1.8738 -0.1649  1.3817
15141TIP3   OH266913   3.875   0.040  14.086  0.3825  1.3107  0.1359
15141TIP3    H166914   3.844   0.105  14.023  0.3890  0.7133 -0.4985
15141TIP3    H266915   3.950   0.081  14.128  0.0569  1.9194  0.1251
15142TIP3   OH266916   4.343   3.168   1.665 -0.0275  0.5363  0.2461
15142TIP3    H166917   4.421   3.223   1.670 -1.4812  2.6056  1.0087
15142TIP3    H266918   4.375   3.083   1.636  2.4577  1.4365  0.2432
15143TIP3   OH266919   3.346   5.496  17.028 -0.6387  0.1384  0.2506
15143TIP3    H166920   3.251   5.479  17.021 -0.3611 -0.9204 -1.5387
15143TIP3    H266921   3.368   5.539  16.945  0.4701  0.2070  0.5831
15144TIP3   OH266922   0.089   2.913   1.190 -0.1530 -0.5496 -0.5414
15144TIP3    H166923   0.040   2.931   1.110 -2.1110 -2.0720  0.2697
15144TIP3    H266924   0.076   2.990   1.244 -0.1438 -0.1889 -1.0497
15145TIP3   OH266925   4.853   4.863   0.055 -1.2212  0.2001  0.3433
15145TIP3    H166926   4.852   4.772   0.026  1.4042  0.8958 -2.1088
15145TIP3    H266927   4.776   4.902   0.013  0.2420  0.1918 -2.4397
15146TIP3   OH266928   3.440   5.624  16.769 -0.7187  0.0790  0.1577
15146TIP3    H166929   3.364   5.674  16.741 -1.6527  0.1509  2.6671
15146TIP3    H266930   3.434   5.542  16.720 -1.6536  0.6274 -0.6661
15147TIP3   OH266931   5.808   1.179   0.056  0.5422  0.6015 -0.4402
15147TIP3    H166932   5.797   1.259   0.005 -0.8604  0.0778 -0.9778
15147TIP3    H266933   5.813   1.109  -0.009 -0.3492  0.0257  0.0961
15148TIP3   OH266934   3.167   5.066   5.409 -0.1797 -0.1077  0.0026
15148TIP3    H166935   3.190   5.153   5.444  1.0269 -0.2163 -0.4777
15148TIP3    H266936   3.219   5.005   5.461  1.7713 -0.2622 -2.0225
15149TIP3   OH266937   3.969   5.379   2.265  0.4625  0.3176  0.0484
15149TIP3    H166938   3.915   5.444   2.220 -0.8431  0.6788  2.0651
15149TIP3    H266939   3.953   5.394   2.358  0.9019 -2.2506  0.5894
15150TIP3   OH266940   0.239   6.263   1.336  0.1182  0.4491 -0.1959
15150TIP3    H166941   0.178   6.335   1.318 -0.1365  0.1206 -0.6640
15150TIP3    H266942   0.214   6.194   1.274  1.1963  0.4546 -0.6635
15151TIP3   OH266943   5.422   1.746  12.895 -0.0138  0.2715 -0.1851
15151TIP3    H166944   5.454   1.833  12.873  2.8438 -1.1189 -1.8454
15151TIP3    H266945   5.438   1.738  12.989  0.3331  1.2847 -0.1491
15152TIP3   OH266946   4.129   3.681  15.527  0.1342  0.1967  0.0528
15152TIP3    H166947   4.059   3.616  15.524 -1.2163  1.6585 -0.9600
15152TIP3    H266948   4.203   3.639  15.485 -0.0270 -1.4940  1.4345
15153TIP3   OH266949   6.277   4.380   2.918  0.3349  0.4689 -0.5919
15153TIP3    H166950   6.256   4.422   2.835  0.4125  2.5119  0.3754
15153TIP3    H266951   6.192   4.347   2.950  0.1736  0.3943 -1.0969
15154TIP3   OH266952   1.705   0.708  14.374  0.2634 -0.3710 -0.3787
15154TIP3    H166953   1.737   0.711  14.284 -0.7339 -0.6350 -0.7443
15154TIP3    H266954   1.613   0.733  14.368  0.1987 -0.3598  0.5711
15155TIP3   OH266955   1.858   2.683   3.514 -0.1420  0.1687 -0.4260
15155TIP3    H166956   1.770   2.646   3.510 -0.9493  1.7405  1.8382
15155TIP3    H266957   1.844   2.776   3.530  1.9357  0.5246 -0.5208
15156TIP3   OH266958   1.358   2.574   3.431  0.0213  0.0404  0.6593
15156TIP3    H166959   1.279   2.564   3.484  0.4734 -0.3631  1.2675
15156TIP3    H266960   1.348   2.659   3.388 -0.6080  0.1148  0.9475
15157TIP3   OH266961   5.845   6.047   3.964  1.0232 -0.3113 -0.6463
15157TIP3    H166962   5.840   5.984   4.036 -0.6022  0.1452 -0.3315
15157TIP3    H266963   5.881   6.126   4.004 -0.0243 -0.0097 -0.2893
15158TIP3   OH266964   3.865   3.637  16.415  0.6328 -0.0021  0.0383
15158TIP3    H166965   3.943   3.687  16.439  0.4464  0.2730  0.0738
15158TIP3    H266966   3.793   3.681  16.461  0.4290 -0.1396 -0.1492
15159TIP3   OH266967   1.784   5.790   1.339 -0.2976 -0.1318  0.0192
15159TIP3    H166968   1.778   5.696   1.324  1.4008 -0.6521  2.3077
15159TIP3    H266969   1.828   5.798   1.423  0.3137  2.7261 -0.5152
15160TIP3   OH266970   0.556   5.595  12.432  0.0266  0.0685 -0.1612
15160TIP3    H166971   0.501   5.577  12.356 -1.5235 -0.2435  0.9846
15160TIP3    H266972   0.582   5.686  12.421 -2.9138  1.0611  0.5425
15161TIP3   OH266973   1.819   4.332  13.399 -0.0360 -0.2552 -0.0859
15161TIP3    H166974   1.844   4.323  13.491  2.2406 -0.3959 -0.6874
15161TIP3    H266975   1.873   4.404  13.366  0.4776 -1.3531 -1.7288
15162TIP3   OH266976   2.451   5.188   2.802 -0.1226 -0.1722  0.4947
15162TIP3    H166977   2.421   5.238   2.878 -0.0081 -0.1799  0.5447
15162TIP3    H266978   2.514   5.246   2.760  1.3442 -0.9745  1.5370
15163TIP3   OH266979   0.681   3.697  14.771  0.6506  0.4450  0.2584
15163TIP3    H166980   0.749   3.675  14.835  0.3911 -0.9998  0.0424
15163TIP3    H266981   0.670   3.618  14.719 -3.0106 -0.2835  1.9150
15164TIP3   OH266982   6.734   5.005  15.653  0.1972  0.5207  0.2121
15164TIP3    H166983   6.727   5.078  15.715  1.0346  0.9190 -0.1573
15164TIP3    H266984   6.652   4.957  15.664 -0.6878  1.9304 -0.0823
15165TIP3   OH266985   6.685   0.939  12.543 -0.4447 -0.3964 -0.3555
15165TIP3    H166986   6.662   0.983  12.461  1.6109 -1.8329 -1.7396
15165TIP3    H266987   6.682   1.009  12.609 -0.1079  1.2135 -2.0011
15166TIP3   OH266988   5.678   2.046   2.462 -0.7776 -0.4801  0.0074
15166TIP3    H166989   5.748   2.040   2.528  0.6785  1.0559 -1.3548
15166TIP3    H266990   5.684   1.963   2.414  0.0803 -0.3858 -0.0674
15167TIP3   OH266991   6.070   6.063   2.630  0.1531  0.6579 -0.1671
15167TIP3    H166992   6.152   6.042   2.675 -0.6099  0.1395  0.9971
15167TIP3    H266993   6.002   6.044   2.695 -1.0884 -1.8580 -2.1119
15168TIP3   OH266994   3.965   2.695  11.592 -0.0622 -0.0368 -0.5433
15168TIP3    H166995   3.911   2.712  11.515 -0.7354  0.0513 -0.0600
15168TIP3    H266996   4.033   2.761  11.589 -1.2423  1.2266 -0.0010
15169TIP3   OH266997   1.573   2.044  15.800  0.3095 -0.1737 -0.0841
15169TIP3    H166998   1.563   2.123  15.747 -1.2496  0.1185  0.6448
15169TIP3    H266999   1.570   1.972  15.736  0.3576  0.2776 -0.5950
15170TIP3   OH267000   2.650   4.930  12.737  0.3711  0.8183 -0.4493
15170TIP3    H167001   2.672   4.913  12.646  0.8865 -0.9807 -0.0035
15170TIP3    H267002   2.734   4.927  12.783 -0.1095 -0.2110  0.3736
15171TIP3   OH267003   0.294   0.536   6.335 -0.2317  0.0998  0.1727
15171TIP3    H167004   0.225   0.495   6.388 -0.1280 -0.5865 -0.2317
15171TIP3    H267005   0.252   0.614   6.298 -0.8678 -0.4577 -0.2825
15172TIP3   OH267006   5.075   0.944  13.224  0.1187  0.7556  0.0168
15172TIP3    H167007   5.059   0.856  13.259  0.0406  0.7277 -0.0899
15172TIP3    H267008   4.987   0.982  13.215  0.0430  0.2469 -1.5170
15173TIP3   OH267009   6.655   0.900  16.600 -0.0395 -0.0781  0.0270
15173TIP3    H167010   6.631   0.817  16.557 -1.4277  0.6220 -0.5913
15173TIP3    H267011   6.653   0.879  16.693  0.1008 -0.8664 -0.1378
15174TIP3   OH267012   3.235   4.400  14.274 -0.3006 -0.0188 -0.4224
15174TIP3    H167013   3.190   4.331  14.323  0.3733 -0.2116 -0.0724
15174TIP3    H267014   3.182   4.478  14.290 -1.7446 -0.6942 -1.8027
15175TIP3   OH267015   5.595   3.933  16.339  0.2087 -0.3512  0.5523
15175TIP3    H167016   5.631   3.982  16.413 -0.3886  1.2426 -0.1755
15175TIP3    H267017   5.500   3.947  16.346  0.0029 -1.6729  0.5063
15176TIP3   OH267018   3.076   0.488   4.117  0.1765 -0.2146 -0.1399
15176TIP3    H167019   3.066   0.508   4.024 -2.8038 -0.4168  0.0750
15176TIP3    H267020   3.040   0.565   4.162  2.8230  0.4679  0.8791
15177TIP3   OH267021   3.899   6.593   5.358 -0.8623 -0.2603 -0.0506
15177TIP3    H167022   3.906   6.505   5.319  2.1367 -0.5579  1.0114
15177TIP3    H267023   3.817   6.590   5.408 -1.0332 -2.2961 -0.3801
15178TIP3   OH267024   5.231   6.815   1.577 -0.1958  0.2301  0.1561
15178TIP3    H167025   5.293   6.887   1.568 -0.4060  0.4434  0.3844
15178TIP3    H267026   5.204   6.818   1.669 -0.1630 -0.1749  0.1803
15179TIP3   OH267027   1.171   3.681   2.130  0.2612 -0.0265 -0.3651
15179TIP3    H167028   1.185   3.647   2.219 -0.3289 -2.3563 -1.1376
15179TIP3    H267029   1.086   3.647   2.104  0.0472  1.3457 -1.5294
15180TIP3   OH267030   2.261   6.549   5.023 -0.0327  0.0875 -1.2084
15180TIP3    H167031   2.337   6.577   5.075 -0.7180  0.2925 -0.3083
15180TIP3    H267032   2.285   6.569   4.933  0.2412  1.8326 -0.7561
15181TIP3   OH267033   2.703   4.646  12.722  0.3562 -0.3978  0.3981
15181TIP3    H167034   2.638   4.578  12.704 -1.1638  0.8098  1.1719
15181TIP3    H267035   2.652   4.718  12.758  2.1618  0.5451  1.1056
15182TIP3   OH267036   0.289   3.124   1.723 -0.0311 -0.0709 -0.2569
15182TIP3    H167037   0.251   3.078   1.647 -0.1913 -0.7795  0.2461
15182TIP3    H267038   0.247   3.210   1.722 -1.0308 -0.5417 -0.2063
15183TIP3   OH267039   5.083   3.730  11.519  0.7915 -0.1479 -0.6373
15183TIP3    H167040   4.988   3.739  11.527  1.0394  1.3957  0.9125
15183TIP3    H267041   5.105   3.780  11.440  0.6446  2.0967  0.7085
15184TIP3   OH267042   4.971   4.596   1.395  0.4807  0.0393  0.1998
15184TIP3    H167043   4.904   4.591   1.327 -0.5241 -0.3467  1.1935
15184TIP3    H267044   4.968   4.510   1.438  0.5679  0.5411  1.2210
15185TIP3   OH267045   0.680   6.231  17.144  0.2769 -0.1782 -0.0157
15185TIP3    H167046   0.739   6.228  17.069  0.1519 -0.1700 -0.1145
15185TIP3    H267047   0.715   6.300  17.200 -0.3410  0.6685 -0.6665
15186TIP3   OH267048   4.468   6.079  16.617  0.0234  0.0168 -0.2268
15186TIP3    H167049   4.509   6.103  16.700 -0.1464 -0.2978 -0.0524
15186TIP3    H267050   4.391   6.136  16.610 -1.7724 -2.1073  1.3604
15187TIP3   OH267051   0.266   6.313  10.821 -0.3757  0.1914 -0.3147
15187TIP3    H167052   0.175   6.323  10.796 -0.5299 -0.9105 -0.2475
15187TIP3    H267053   0.315   6.325  10.739 -0.3204  4.0625  0.2389
15188TIP3   OH267054   5.967   4.577   4.873  0.0475  0.0562 -0.0545
15188TIP3    H167055   5.935   4.624   4.796 -0.3316  0.2208  0.2023
15188TIP3    H267056   5.989   4.646   4.936 -0.0465 -0.0956  0.1436
15189TIP3   OH267057   4.126   0.382   6.309 -0.2510  0.5728  0.8384
15189TIP3    H167058   4.076   0.402   6.388 -0.0052 -1.8392  1.6541
15189TIP3    H267059   4.076   0.314   6.265  1.9551 -1.4558  1.3506
15190TIP3   OH267060   0.993   0.228   3.963  0.2695  0.4374 -0.1950
15190TIP3    H167061   0.898   0.240   3.972  0.4289  2.1043 -0.4525
15190TIP3    H267062   1.010   0.242   3.870  0.8121  0.5027 -0.0895
15191TIP3   OH267063   4.669   1.101  11.910 -0.0498  0.4516  0.0167
15191TIP3    H167064   4.754   1.099  11.955 -0.7424  5.3286  1.7550
15191TIP3    H267065   4.611   1.053  11.968  0.6911  0.2546  0.6101
15192TIP3   OH267066   2.566   2.840  16.220 -0.0206 -0.7074 -0.6662
15192TIP3    H167067   2.559   2.753  16.181  1.3673 -1.3591  0.4706
15192TIP3    H267068   2.655   2.869  16.197 -0.8195  0.8369 -1.8845
15193TIP3   OH267069   1.479   2.281   1.266 -0.0099 -0.5205  0.0836
15193TIP3    H167070   1.385   2.299   1.258 -0.0275 -0.2571  0.8253
15193TIP3    H267071   1.521   2.346   1.211 -0.2570 -0.5831 -0.1829
15194TIP3   OH267072   1.880   0.641   4.085  0.0913  0.2406 -0.5986
15194TIP3    H167073   1.854   0.653   4.177 -1.1004  0.2346 -0.9292
15194TIP3    H267074   1.820   0.697   4.035 -0.4562 -1.1424 -1.5136
15195TIP3   OH267075   2.170   3.621   4.410 -0.3181 -0.0526 -0.8890
15195TIP3    H167076   2.172   3.525   4.401 -0.2423 -0.0518 -0.8767
15195TIP3    H267077   2.244   3.641   4.466 -0.5098 -0.0137 -0.6511
15196TIP3   OH267078   4.760   3.635  13.991 -0.3758  0.0373 -0.5063
15196TIP3    H167079   4.757   3.678  14.077  0.7262  1.7666 -1.2900
15196TIP3    H267080   4.738   3.544  14.008  1.7916 -0.0639  1.9016
15197TIP3   OH267081   3.564   1.531  15.746  0.2197  0.3066  0.1679
15197TIP3    H167082   3.589   1.582  15.824  0.3598 -0.1984  0.4528
15197TIP3    H267083   3.492   1.476  15.776  0.2038  0.1859 -0.0917
15198TIP3   OH267084   0.669   6.356   2.887 -0.5752  0.3650 -0.0206
15198TIP3    H167085   0.628   6.282   2.842 -0.2949 -0.2722  0.7507
15198TIP3    H267086   0.741   6.383   2.830 -2.6304  2.0974 -1.8446
15199TIP3   OH267087   2.290   6.365  10.762 -0.3849 -0.5387 -0.1448
15199TIP3    H167088   2.237   6.322  10.829  1.1610 -0.1128  1.3997
15199TIP3    H267089   2.266   6.322  10.681 -0.3670 -2.9097  1.0777
15200TIP3   OH267090   2.881   6.561  12.536  0.1052  0.2233 -0.0027
15200TIP3    H167091   2.824   6.546  12.460 -0.9726  0.8427  0.6706
15200TIP3    H267092   2.911   6.474  12.561  0.6679  0.0368 -1.2894
15201TIP3   OH267093   4.444   0.096  13.557 -0.0921  1.1961  0.2687
15201TIP3    H167094   4.529   0.052  13.565 -1.0148 -0.5090  0.9531
15201TIP3    H267095   4.459   0.164  13.491  1.5667  0.3258 -0.2893
15202TIP3   OH267096   2.246   0.489  12.599 -0.6134 -0.1819  0.2830
15202TIP3    H167097   2.262   0.583  12.590 -0.4494 -0.2979 -0.6879
15202TIP3    H267098   2.158   0.476  12.563 -1.3065 -0.1596  1.9220
15203TIP3   OH267099   1.761   0.846  14.063  0.7690 -0.6509 -0.0337
15203TIP3    H167100   1.713   0.767  14.037  2.2606 -0.8373 -2.3987
15203TIP3    H267101   1.694   0.913  14.073 -0.1502 -1.1910 -2.2020
15204TIP3   OH267102   0.323   5.148   4.408  0.4942 -0.1445 -0.0889
15204TIP3    H167103   0.372   5.130   4.488  1.0131 -1.1072 -0.6224
15204TIP3    H267104   0.342   5.074   4.350  0.0794  0.5104 -1.0842
15205TIP3   OH267105   6.127   0.192   5.966 -0.6939 -0.2093 -0.2949
15205TIP3    H167106   6.195   0.209   6.032 -0.3670 -1.7803 -0.2090
15205TIP3    H267107   6.063   0.137   6.012 -0.0655 -1.9803 -1.5114
15206TIP3   OH267108   2.301   2.963  12.019  0.2229 -0.2781 -0.4142
15206TIP3    H167109   2.226   3.021  12.027 -0.8809 -1.5182 -1.4884
15206TIP3    H267110   2.376   3.021  12.007 -1.1002  0.8976 -3.4030
15207TIP3   OH267111   5.941   6.787  15.145  0.4967  0.2314  0.9342
15207TIP3    H167112   5.952   6.797  15.051  0.2037  2.2608  1.0879
15207TIP3    H267113   5.856   6.744  15.156 -0.0279  1.1069  0.3102
15208TIP3   OH267114   3.826   2.060   1.800 -0.1210 -0.4258  0.0659
15208TIP3    H167115   3.745   2.053   1.749  1.2441 -0.4840 -2.1703
15208TIP3    H267116   3.819   2.144   1.846 -1.9078 -0.9391  0.7652
15209TIP3   OH267117   6.421   2.932   4.363 -0.7253  0.1523 -0.4650
15209TIP3    H167118   6.428   2.841   4.393 -1.1222  0.0656 -0.6410
15209TIP3    H267119   6.344   2.933   4.307 -1.1501  0.7582  0.1220
15210TIP3   OH267120   1.353   1.818   5.736  0.4788 -0.4868  0.0301
15210TIP3    H167121   1.410   1.792   5.663  2.5667  3.7953  0.0184
15210TIP3    H267122   1.404   1.798   5.814  1.1161  1.2564  0.0810
15211TIP3   OH267123   1.704   6.710  16.752 -0.2580  0.4873  0.2932
15211TIP3    H167124   1.771   6.643  16.766 -1.0631 -0.2218  0.8431
15211TIP3    H267125   1.698   6.718  16.657 -2.0471 -2.2338  0.1082
15212TIP3   OH267126   2.072   3.660  14.178  0.3837 -0.0067  0.5344
15212TIP3    H167127   2.153   3.634  14.133  0.5635  1.3035  0.0788
15212TIP3    H267128   2.041   3.580  14.219  1.4116 -0.7394 -0.0847
15213TIP3   OH267129   2.403   2.195   4.722  0.7187  0.1198 -0.8521
15213TIP3    H167130   2.448   2.114   4.700 -0.5746 -0.3628 -1.7995
15213TIP3    H267131   2.432   2.258   4.655  1.8849  0.5118  0.0084
15214TIP3   OH267132   4.824   4.640  12.363 -0.2937  0.1185  0.1564
15214TIP3    H167133   4.832   4.650  12.268  0.3487  0.6468  0.2624
15214TIP3    H267134   4.914   4.650  12.395 -0.8434  2.4736  1.0517
15215TIP3   OH267135   0.580   0.335   3.280 -0.1221 -0.2796  0.3260
15215TIP3    H167136   0.492   0.349   3.245  0.1646 -2.6660 -1.4550
15215TIP3    H267137   0.638   0.346   3.205  0.7998 -2.0750  0.7356
15216TIP3   OH267138   4.363   0.925  11.743 -0.4770 -0.6528 -0.2006
15216TIP3    H167139   4.434   0.882  11.792 -0.5489 -0.0086  0.4827
15216TIP3    H267140   4.407   0.974  11.674 -0.0385  1.8098  1.7663
15217TIP3   OH267141   5.862   5.254   6.691  0.9173 -0.1540  0.2274
15217TIP3    H167142   5.858   5.171   6.643  2.7051  0.2543 -0.6325
15217TIP3    H267143   5.948   5.290   6.670  0.0815  2.0136  0.4606
15218TIP3   OH267144   6.073   5.159   1.077  0.1335 -0.2088  0.3250
15218TIP3    H167145   6.101   5.218   1.147  1.8516  1.1889 -1.4983
15218TIP3    H267146   6.154   5.121   1.044 -0.4961  0.3855 -1.9659
15219TIP3   OH267147   6.539   3.394  13.329  0.3361  0.3141  0.4311
15219TIP3    H167148   6.550   3.299  13.321 -0.5465  0.2468 -0.1100
15219TIP3    H267149   6.628   3.428  13.338  0.7218 -0.4888 -0.2852
15220TIP3   OH267150   1.545   6.150   1.938 -0.1690  0.2967 -0.1898
15220TIP3    H167151   1.577   6.073   1.984 -0.0492 -0.3396 -1.3103
15220TIP3    H267152   1.618   6.213   1.942  0.3982 -0.3122 -0.7957
15221TIP3   OH267153   3.702   1.118  16.310  0.0726 -0.5441 -0.8898
15221TIP3    H167154   3.792   1.149  16.306  0.2253 -0.8577  0.0650
15221TIP3    H267155   3.690   1.069  16.229  1.0932 -1.3883 -0.5320
15222TIP3   OH267156   6.138   2.016  16.756 -0.3900  0.3152  0.2610
15222TIP3    H167157   6.135   1.926  16.723 -0.1345  0.9316 -1.5128
15222TIP3    H267158   6.046   2.037  16.776 -0.5932  0.0102 -0.3237
15223TIP3   OH267159   2.109   6.296  16.060 -0.1769  0.2322 -0.0060
15223TIP3    H167160   2.118   6.313  16.153  0.5451 -1.0713  0.1806
15223TIP3    H267161   2.053   6.219  16.055  1.9335 -1.3380 -0.5055
15224TIP3   OH267162   6.799   1.311   5.545  0.1581  0.0330 -0.0605
15224TIP3    H167163   6.856   1.369   5.595  0.2347 -0.5050  0.4840
15224TIP3    H267164   6.753   1.259   5.612  0.2804 -0.7047 -0.5433
15225TIP3   OH267165   3.124   2.192  11.476  0.1397 -0.3218  0.2022
15225TIP3    H167166   3.185   2.266  11.483 -1.3451  0.9850 -0.3336
15225TIP3    H267167   3.089   2.181  11.564 -1.6031  1.3565 -0.2497
15226TIP3   OH267168   3.991   1.487  11.704  0.3011  0.1572  0.6094
15226TIP3    H167169   4.028   1.401  11.689  0.9317  0.3848  0.8485
15226TIP3    H267170   4.058   1.534  11.753 -0.2852  0.5861  1.0098
15227TIP3   OH267171   0.030   4.933   3.364 -0.2277 -0.0440 -0.5158
15227TIP3    H167172   0.047   5.004   3.427 -2.1581 -0.9467  1.0906
15227TIP3    H267173   0.007   4.978   3.283 -1.8088  1.2149  0.5857
15228TIP3   OH267174   1.692   3.233   2.530  0.1496  0.2487  0.4046
15228TIP3    H167175   1.726   3.272   2.449  0.7608  0.1790  0.6260
15228TIP3    H267176   1.653   3.150   2.503 -1.2813  1.0592 -0.0955
15229TIP3   OH267177   1.010   6.280  10.838 -0.1744  0.2112  0.0521
15229TIP3    H167178   0.994   6.296  10.745 -1.4213 -0.1456  0.2023
15229TIP3    H267179   1.103   6.301  10.850  0.6366 -2.1550 -1.8051
15230TIP3   OH267180   0.053   6.080   5.675  0.3820 -0.5355  0.2660
15230TIP3    H167181   0.138   6.039   5.658  0.2796 -0.3443 -0.7445
15230TIP3    H267182   0.010   6.082   5.590 -0.8823 -1.1616  0.8847
15231TIP3   OH267183   6.603   0.228   5.139 -0.4450 -0.0866 -0.1979
15231TIP3    H167184   6.607   0.191   5.227 -0.2571  2.0006  0.7075
15231TIP3    H267185   6.694   0.245   5.117 -0.5661  0.2798 -0.4061
15232TIP3   OH267186   6.126   3.784   3.055 -0.0686  0.1720 -0.6625
15232TIP3    H167187   6.166   3.716   3.001  0.1085  1.2239 -1.8833
15232TIP3    H267188   6.124   3.861   2.999 -1.5505  0.8085  0.2256
15233TIP3   OH267189   1.735   5.464   2.762 -0.2176 -0.0890  0.7851
15233TIP3    H167190   1.659   5.498   2.810 -0.6611 -0.9295  0.6812
15233TIP3    H267191   1.781   5.409   2.826  1.6267  2.3003  1.5827
15234TIP3   OH267192   5.283   4.713   5.342  0.3392  0.0045  0.5746
15234TIP3    H167193   5.277   4.619   5.357 -1.0738  0.1331  0.8328
15234TIP3    H267194   5.258   4.753   5.425  1.2670  0.6063  0.5680
15235TIP3   OH267195   6.326   2.642  13.433  0.4023 -0.4775  0.9771
15235TIP3    H167196   6.249   2.605  13.389  0.9280 -1.8532  1.1921
15235TIP3    H267197   6.390   2.570  13.433  1.0044  0.0524  2.4911
15236TIP3   OH267198   2.776   0.558   0.342 -0.4285  0.1202 -0.5824
15236TIP3    H167199   2.762   0.493   0.412 -2.5114 -1.1261 -2.0804
15236TIP3    H267200   2.744   0.640   0.379  0.5606 -0.0576  0.7045
15237TIP3   OH267201   2.761   3.723  16.889 -0.0577  0.0334 -0.4660
15237TIP3    H167202   2.856   3.729  16.903 -0.2678  1.4354  0.3801
15237TIP3    H267203   2.744   3.629  16.882  1.2251 -0.2858  0.5857
15238TIP3   OH267204   2.236   2.197   0.146  0.2214  0.2721 -0.3420
15238TIP3    H167205   2.314   2.143   0.136  0.1247 -0.0730  0.8008
15238TIP3    H267206   2.229   2.244   0.062  1.7396  0.4351 -0.3834
15239TIP3   OH267207   5.354   1.865   6.033  0.1630 -0.0281  0.4399
15239TIP3    H167208   5.373   1.787   5.982 -0.3997 -0.4051  0.8047
15239TIP3    H267209   5.258   1.870   6.035  0.1872  0.2895  0.9922
15240TIP3   OH267210   2.491   3.754   2.738  0.1639  0.0990 -0.1409
15240TIP3    H167211   2.432   3.698   2.790  1.4987 -1.4198 -0.2054
15240TIP3    H267212   2.479   3.842   2.774 -2.3171 -0.1308 -0.3243
15241TIP3   OH267213   5.466   4.443   4.815 -0.1967 -0.0441 -0.2018
15241TIP3    H167214   5.407   4.503   4.859  1.3194  0.8251  0.6726
15241TIP3    H267215   5.546   4.444   4.868  0.5382 -1.3495 -1.2493
15242TIP3   OH267216   4.927   1.702   5.429 -0.3715 -0.2171  0.3980
15242TIP3    H167217   4.842   1.727   5.394 -0.3906 -0.6361  0.1541
15242TIP3    H267218   4.985   1.774   5.404 -0.6420  0.0462  0.5271
15243TIP3   OH267219   3.850   2.318  10.970 -0.2518 -0.3679  0.8060
15243TIP3    H167220   3.882   2.275  11.049 -1.5406 -0.7509  1.1285
15243TIP3    H267221   3.849   2.248  10.904  0.1488 -0.2099  0.6274
15244TIP3   OH267222   3.389   4.813   0.910 -0.0521 -0.1215  0.4367
15244TIP3    H167223   3.407   4.739   0.968 -3.6807  0.1577  2.0853
15244TIP3    H267224   3.416   4.783   0.823  3.0966 -1.4883  1.8292
15245TIP3   OH267225   1.234   5.567  11.453 -0.7203 -0.3917  0.6323
15245TIP3    H167226   1.326   5.557  11.475 -1.1799 -1.7066  2.0631
15245TIP3    H267227   1.233   5.625  11.377  1.1503  1.2755  1.8465
15246TIP3   OH267228   1.471   4.518  12.908 -0.6949 -0.6756 -0.0527
15246TIP3    H167229   1.479   4.538  13.001 -0.4989 -1.9619  0.2062
15246TIP3    H267230   1.408   4.446  12.904 -1.6016  0.1432 -1.0172
15247TIP3   OH267231   2.504   1.926   2.618 -0.2494 -0.5443 -0.3820
15247TIP3    H167232   2.569   1.992   2.641 -2.0460  1.6007 -1.2659
15247TIP3    H267233   2.531   1.894   2.532 -2.1147  2.7489 -2.2814
15248TIP3   OH267234   3.626   2.051   4.306 -0.1217 -0.3569  0.9213
15248TIP3    H167235   3.590   2.107   4.238 -0.1581  1.0220  2.0546
15248TIP3    H267236   3.720   2.071   4.307  0.0227 -1.0007  0.7044
15249TIP3   OH267237   1.848   2.524  16.980 -0.2771  0.4379  0.9146
15249TIP3    H167238   1.849   2.432  17.005  1.2146  0.2407  0.1485
15249TIP3    H267239   1.766   2.557  17.017 -0.8147 -1.1770  1.2305
15250TIP3   OH267240   4.126   1.945   1.761  0.1974  0.1930 -0.2151
15250TIP3    H167241   4.142   2.024   1.812 -2.5687 -0.3351  1.6027
15250TIP3    H267242   4.063   1.973   1.694  2.3575  0.4432 -2.1848
15251TIP3   OH267243   0.152   4.803   5.611 -0.5779 -0.3739 -0.6430
15251TIP3    H167244   0.160   4.707   5.605 -3.0338 -0.7021  0.8869
15251TIP3    H267245   0.191   4.825   5.696  1.1281  0.1731 -1.5337
15252TIP3   OH267246   5.003   3.704  16.559 -0.2329 -0.2043 -0.2218
15252TIP3    H167247   5.002   3.797  16.537 -0.0332 -0.0367  0.4582
15252TIP3    H267248   5.037   3.701  16.648 -0.2848 -0.9256 -0.2238
15253TIP3   OH267249   2.026   4.687   1.955 -0.3836  0.2393  0.1100
15253TIP3    H167250   2.048   4.596   1.977 -3.4568 -0.2226  1.5860
15253TIP3    H267251   1.943   4.680   1.908 -0.6267  2.2868  0.2148
15254TIP3   OH267252   3.440   5.078  11.331 -0.1995  0.4709 -0.3982
15254TIP3    H167253   3.525   5.083  11.375 -1.0684 -0.2802  1.3991
15254TIP3    H267254   3.389   5.151  11.366 -1.2776 -0.7882  0.7265
15255TIP3   OH267255   0.660   1.328   0.512 -0.5583  0.0197  0.2985
15255TIP3    H167256   0.739   1.304   0.465 -1.2278  0.3793 -1.0472
15255TIP3    H267257   0.588   1.305   0.453 -1.4973 -0.8408  1.7332
15256TIP3   OH267258   6.434   3.882  15.535 -0.8221 -0.2581 -0.1918
15256TIP3    H167259   6.465   3.828  15.462  1.1764  0.7226 -0.1180
15256TIP3    H267260   6.500   3.870  15.603 -2.4897 -0.8830  1.3529
15257TIP3   OH267261   0.377   3.268   3.755 -0.3537 -0.2412  0.2108
15257TIP3    H167262   0.373   3.220   3.672 -1.6646 -0.7900  0.5761
15257TIP3    H267263   0.302   3.328   3.751 -2.4249 -2.5613  2.3631
15258TIP3   OH267264   2.385   6.259   2.447  0.4070 -0.5035  0.2378
15258TIP3    H167265   2.400   6.352   2.433  0.5262 -0.4118  0.9714
15258TIP3    H267266   2.399   6.219   2.361  2.0457 -0.0739  0.2999
15259TIP3   OH267267   5.206   0.318  16.973  0.2905 -0.3747 -0.2843
15259TIP3    H167268   5.193   0.403  16.932 -1.5950 -0.5101 -0.0053
15259TIP3    H267269   5.175   0.255  16.907 -1.2478 -0.6746  0.7220
15260TIP3   OH267270   3.903   6.186   4.491 -0.1659 -0.4989 -0.3502
15260TIP3    H167271   3.971   6.135   4.535  0.9080 -0.1530 -1.5848
15260TIP3    H267272   3.870   6.129   4.421 -1.5136 -0.8539  0.5422
15261TIP3   OH267273   6.459   4.613  16.840 -0.1371  0.7499  0.3659
15261TIP3    H167274   6.544   4.656  16.831 -1.0326  2.3391 -0.6479
15261TIP3    H267275   6.456   4.551  16.767  1.2981 -1.3580  2.0288
15262TIP3   OH267276   0.402   5.152   2.854  0.3745 -0.0875 -0.3663
15262TIP3    H167277   0.314   5.190   2.857  0.9817  1.3378 -0.4538
15262TIP3    H267278   0.419   5.122   2.943 -0.2198 -0.4092 -0.3615
15263TIP3   OH267279   0.089   0.468  14.951  0.4922  0.0842 -0.1892
15263TIP3    H167280   0.020   0.521  14.992  1.5325 -0.1559  1.9194
15263TIP3    H267281   0.043   0.391  14.917 -0.8407  1.6898 -2.1301
15264TIP3   OH267282   2.713   1.083  10.205  0.0168  0.4581 -0.1524
15264TIP3    H167283   2.740   1.022  10.273 -1.4849  0.1854  0.2206
15264TIP3    H267284   2.640   1.131  10.244  0.0535  1.2760 -1.0695
15265TIP3   OH267285   0.455   0.777   0.580 -0.0796  0.3028  0.2697
15265TIP3    H167286   0.517   0.715   0.541  0.5843  1.7065 -0.9548
15265TIP3    H267287   0.442   0.745   0.669 -1.9396 -3.2050 -1.1886
15266TIP3   OH267288   1.013   1.436   4.407  0.4168  0.3423 -0.2187
15266TIP3    H167289   1.005   1.494   4.482 -1.5958  1.2795 -1.1071
15266TIP3    H267290   1.090   1.466   4.360 -0.8444  2.6249 -0.8982
15267TIP3   OH267291   1.796   3.339   0.690  0.8983 -0.1732 -0.1126
15267TIP3    H167292   1.883   3.320   0.656  1.5820  0.1725  1.4121
15267TIP3    H267293   1.800   3.430   0.719  1.3395 -1.3484  3.8055
15268TIP3   OH267294   0.382   3.794  12.363 -0.2411  0.2195  0.2873
15268TIP3    H167295   0.454   3.768  12.306 -1.0735 -1.5307 -0.0031
15268TIP3    H267296   0.362   3.884  12.337  0.3194 -0.0728 -1.2073
15269TIP3   OH267297   0.093   5.768   5.138 -0.3034 -0.5893 -0.4319
15269TIP3    H167298   0.003   5.774   5.170 -0.3217  3.8524 -1.0212
15269TIP3    H267299   0.083   5.733   5.049 -1.3684 -0.6602 -0.2997
15270TIP3   OH267300   3.820   5.634  14.486  0.4025 -0.6033  0.8904
15270TIP3    H167301   3.911   5.661  14.475  1.1251 -2.5569  1.8044
15270TIP3    H267302   3.796   5.668  14.572  0.2944 -0.1898  0.6997
15271TIP3   OH267303   0.155   0.516   3.225 -0.1588 -0.3859  0.0841
15271TIP3    H167304   0.094   0.581   3.260 -0.9402 -1.7743  1.3973
15271TIP3    H267305   0.236   0.564   3.212 -0.8430  0.9552  0.6159
15272TIP3   OH267306   6.416   0.924   5.620 -0.9310 -0.0674 -0.1523
15272TIP3    H167307   6.511   0.920   5.626 -0.9678  0.8319  1.3196
15272TIP3    H267308   6.396   0.899   5.530  0.7206  0.1983 -0.6023
15273TIP3   OH267309   4.602   1.534   0.379 -0.0300  0.3150 -0.0449
15273TIP3    H167310   4.646   1.486   0.449 -1.4718  0.0133  0.6908
15273TIP3    H267311   4.542   1.471   0.340 -1.5125  1.3269  0.5423
15274TIP3   OH267312   6.564   2.646   6.131 -0.6517 -0.0804  0.5666
15274TIP3    H167313   6.493   2.709   6.142  0.4425  1.1042  0.9395
15274TIP3    H267314   6.618   2.657   6.209  0.5122 -0.2347 -0.2091
15275TIP3   OH267315   2.633   2.436   2.810 -0.1761 -0.1959 -0.3555
15275TIP3    H167316   2.587   2.357   2.779  0.6215 -0.2747 -1.3881
15275TIP3    H267317   2.620   2.436   2.904 -0.6038 -1.3129 -0.4006
15276TIP3   OH267318   0.316   3.226   5.027  0.3960  0.0487 -0.2371
15276TIP3    H167319   0.380   3.239   5.097 -0.4120 -1.5581  0.8360
15276TIP3    H267320   0.368   3.197   4.952  1.1201  0.5755  0.0542
15277TIP3   OH267321   1.864   4.142  13.128  0.2589  0.5996 -0.4647
15277TIP3    H167322   1.872   4.123  13.222  0.9254 -2.3139 -1.0568
15277TIP3    H267323   1.810   4.071  13.094  2.7412 -0.2164 -2.8380
15278TIP3   OH267324   1.392   0.933  15.450 -0.3082  0.3494  0.2567
15278TIP3    H167325   1.471   0.979  15.479 -0.6571  1.0488  0.1087
15278TIP3    H267326   1.404   0.921  15.356 -0.7754  1.2421  0.0835
15279TIP3   OH267327   1.017   5.449  16.879 -0.6685  0.1494 -0.4641
15279TIP3    H167328   0.941   5.504  16.900  1.0686  2.0931  0.9491
15279TIP3    H267329   1.085   5.478  16.940  1.2214 -1.5737 -1.6875
15280TIP3   OH267330   1.772   0.731   5.392  0.0270 -0.0364  0.2371
15280TIP3    H167331   1.704   0.680   5.435 -0.7342  2.6391  2.3569
15280TIP3    H267332   1.741   0.741   5.302 -1.8913  0.2621  0.9108
15281TIP3   OH267333   4.821   6.170   3.463 -0.1588  0.1549  0.4094
15281TIP3    H167334   4.867   6.123   3.394  0.2277 -2.9816  2.6841
15281TIP3    H267335   4.885   6.234   3.496 -0.3290  1.6230 -1.9989
15282TIP3   OH267336   1.215   3.640  11.523  0.8612 -0.3219  0.2148
15282TIP3    H167337   1.161   3.561  11.520 -1.5572  1.2832  0.4657
15282TIP3    H267338   1.243   3.653  11.432  0.9593 -1.2362  0.1066
15283TIP3   OH267339   4.439   4.455  16.371 -0.0110 -0.1165  0.1715
15283TIP3    H167340   4.511   4.496  16.324  1.2415 -0.9621  1.3372
15283TIP3    H267341   4.420   4.376  16.321  0.8979 -0.6903  0.7313
15284TIP3   OH267342   5.700   6.363  13.200  0.1325  0.2892  0.0609
15284TIP3    H167343   5.643   6.440  13.207 -0.7076 -0.2936 -0.3324
15284TIP3    H267344   5.746   6.360  13.284  0.6841  1.6179 -0.1851
15285TIP3   OH267345   0.664   6.003   0.282  0.2315 -0.5815  0.3228
15285TIP3    H167346   0.570   6.019   0.281  0.3297 -0.0062  0.1547
15285TIP3    H267347   0.694   6.026   0.194  0.4453 -1.3015  0.2001
15286TIP3   OH267348   4.832   6.039   2.420 -0.1853 -0.2780  0.1262
15286TIP3    H167349   4.791   6.077   2.498 -1.4500  2.3651 -1.7416
15286TIP3    H267350   4.779   5.962   2.401 -0.5614 -0.3070  1.2278
15287TIP3   OH267351   3.222   6.389   2.739 -0.1687 -0.2232 -0.0548
15287TIP3    H167352   3.149   6.416   2.683 -1.0350 -1.0925  0.6484
15287TIP3    H267353   3.190   6.312   2.785  0.7285  0.1728  1.2569
15288TIP3   OH267354   6.703   1.735   0.625 -0.5026 -0.6229 -0.2730
15288TIP3    H167355   6.702   1.740   0.530 -0.3029 -1.1144 -0.3023
15288TIP3    H267356   6.790   1.764   0.651  0.5330 -3.4282 -0.4243
15289TIP3   OH267357   4.893   6.322   0.385  0.5754  0.6154 -0.4688
15289TIP3    H167358   4.962   6.354   0.444  0.2322  1.1641 -0.3659
15289TIP3    H267359   4.816   6.375   0.407 -0.6610 -1.8472  1.3599
15290TIP3   OH267360   3.202   3.024  16.674 -0.2413 -0.0495 -0.6296
15290TIP3    H167361   3.134   3.063  16.730  0.2002  0.5447 -0.5052
15290TIP3    H267362   3.284   3.045  16.718  0.3366  2.9324 -2.9665
15291TIP3   OH267363   5.238   2.253   1.204  0.0533  0.2686 -0.1451
15291TIP3    H167364   5.162   2.284   1.253 -0.2948 -1.5034  0.4536
15291TIP3    H267365   5.211   2.257   1.112 -0.4160  0.5648  0.0044
15292TIP3   OH267366   6.450   0.442   3.839  0.4194  0.5123 -0.1593
15292TIP3    H167367   6.427   0.426   3.747  1.1080 -0.4780 -0.1711
15292TIP3    H267368   6.502   0.522   3.838  2.0875 -0.5634 -0.8850
15293TIP3   OH267369   0.288   2.215   1.184  0.5040 -0.4916 -0.4800
15293TIP3    H167370   0.288   2.132   1.231 -2.2379 -0.6898 -0.7689
15293TIP3    H267371   0.291   2.282   1.252  0.5290 -0.8048 -0.1738
15294TIP3   OH267372   1.111   0.711   5.564 -0.1456  0.3137 -0.1316
15294TIP3    H167373   1.034   0.670   5.602 -0.4672 -0.9888 -2.0973
15294TIP3    H267374   1.078   0.755   5.486  1.1271 -0.5025 -1.1464
15295TIP3   OH267375   5.713   6.458  11.615 -0.0111  0.2583 -0.5382
15295TIP3    H167376   5.667   6.409  11.546 -0.6976  0.1492 -0.0062
15295TIP3    H267377   5.696   6.550  11.594 -2.1565  0.1796  0.7941
15296TIP3   OH267378   4.185   3.423   6.023 -0.6165 -0.2842 -0.1864
15296TIP3    H167379   4.120   3.482   6.062  1.1966  1.8984 -0.3279
15296TIP3    H267380   4.204   3.359   6.091  1.6517  2.7821  2.2324
15297TIP3   OH267381   1.750   3.312   4.455 -0.3229 -0.1136 -0.0495
15297TIP3    H167382   1.777   3.357   4.535 -1.7861  0.5131  0.0931
15297TIP3    H267383   1.675   3.361   4.423  1.0630  0.4505 -2.5529
15298TIP3   OH267384   3.377   5.686   5.546 -0.7028 -0.1058 -0.0011
15298TIP3    H167385   3.355   5.627   5.618  1.6461 -0.2548  0.6360
15298TIP3    H267386   3.378   5.773   5.585  0.7722 -0.2070  0.2494
15299TIP3   OH267387   2.303   1.058  15.697 -0.5489 -0.3872 -0.4009
15299TIP3    H167388   2.351   1.039  15.777 -1.4590 -0.7643  0.0620
15299TIP3    H267389   2.251   1.135  15.718 -1.8631 -1.3159 -0.1576
15300TIP3   OH267390   6.129   4.376   1.091 -0.1153  0.2256 -0.5336
15300TIP3    H167391   6.049   4.366   1.040 -0.6850  1.9604 -0.0119
15300TIP3    H267392   6.146   4.470   1.091  1.0908  0.0238  0.6470
15301TIP3   OH267393   0.826   4.824   5.029 -0.3044 -0.5298 -0.3308
15301TIP3    H167394   0.866   4.779   5.103  0.8556  0.7737 -0.1410
15301TIP3    H267395   0.771   4.758   4.988 -0.4063 -1.4692  1.2730
15302TIP3   OH267396   3.817   5.586   2.450  0.3269  0.3884  0.7714
15302TIP3    H167397   3.748   5.540   2.498  1.1964 -1.6161  0.1148
15302TIP3    H267398   3.773   5.664   2.415 -1.2124 -0.0462  1.6763
15303TIP3   OH267399   6.752   5.150   0.802  0.1472  0.2829  0.1872
15303TIP3    H167400   6.703   5.089   0.859  0.3087 -0.1363 -0.1191
15303TIP3    H267401   6.689   5.219   0.782 -0.7460 -0.8951 -1.2378
15304TIP3   OH267402   0.416   5.834  12.514 -0.2985 -0.4385  0.2171
15304TIP3    H167403   0.499   5.839  12.468 -0.1092  0.0718  0.6026
15304TIP3    H267404   0.352   5.813  12.447 -0.1586  1.1517 -0.4329
15305TIP3   OH267405   2.064   5.027  15.426  0.5344 -0.1921 -0.5388
15305TIP3    H167406   2.137   4.996  15.479  0.0844  0.4144  0.4552
15305TIP3    H267407   2.032   5.104  15.473 -0.2994 -0.0478 -1.3386
15306TIP3   OH267408   4.048   3.680  12.546  0.0756  0.4414  0.2721
15306TIP3    H167409   4.089   3.766  12.550 -0.3296  0.6115  0.7016
15306TIP3    H267410   3.980   3.689  12.479  1.4905 -0.1658 -1.3111
15307TIP3   OH267411   3.090   4.751  14.677  0.1713 -0.3034 -0.0198
15307TIP3    H167412   3.011   4.700  14.694  0.9983 -1.6406 -0.1846
15307TIP3    H267413   3.153   4.688  14.642  1.9226  0.3547  1.8429
15308TIP3   OH267414   4.574   5.780  11.712  0.3218  0.4770 -0.0767
15308TIP3    H167415   4.663   5.766  11.744  0.0801 -1.3726 -0.1480
15308TIP3    H267416   4.558   5.874  11.725  1.8011  0.5802  1.1471
15309TIP3   OH267417   0.857   5.491   4.875 -0.0424 -0.0304  0.5864
15309TIP3    H167418   0.830   5.438   4.950 -0.9732  1.6395  1.4520
15309TIP3    H267419   0.828   5.580   4.896 -0.7966  0.3737 -1.9856
15310TIP3   OH267420   3.159   3.900   1.438  0.7079  0.3735  0.2490
15310TIP3    H167421   3.161   3.839   1.364 -0.9985  0.9831 -0.3197
15310TIP3    H267422   3.078   3.879   1.485  1.4107  0.4828  1.5250
15311TIP3   OH267423   6.512   3.970   5.076 -0.0608  0.6139  0.1595
15311TIP3    H167424   6.523   3.955   5.170 -0.3989 -2.2032 -0.2184
15311TIP3    H267425   6.594   3.939   5.037 -0.9294 -0.5778 -0.7150
15312TIP3   OH267426   0.451   3.697   1.760 -0.3273  0.0332  0.3573
15312TIP3    H167427   0.368   3.690   1.713 -0.6669 -2.7359  1.2892
15312TIP3    H267428   0.505   3.755   1.706 -2.7889  1.7782 -0.3345
15313TIP3   OH267429   1.163   2.605   5.796  0.2950  0.2192  0.4358
15313TIP3    H167430   1.164   2.632   5.888  1.1743 -0.8973  0.7602
15313TIP3    H267431   1.201   2.518   5.796 -0.0870  0.0386 -0.9458
15314TIP3   OH267432   3.461   3.415   3.971  0.0458  0.3156  0.1689
15314TIP3    H167433   3.556   3.422   3.963  0.1217 -1.6525 -0.9642
15314TIP3    H267434   3.444   3.420   4.065  1.4034 -0.8212  0.4890
15315TIP3   OH267435   6.746   1.480  12.910  0.2389 -0.4202  0.2772
15315TIP3    H167436   6.794   1.541  12.854 -0.5833 -1.2837 -1.4022
15315TIP3    H267437   6.709   1.415  12.850 -0.6359 -1.3973  1.8205
15316TIP3   OH267438   1.162   2.974   6.017 -0.3269 -0.4244  1.0864
15316TIP3    H167439   1.169   2.879   6.026  3.1358 -0.2356  1.0340
15316TIP3    H267440   1.160   3.007   6.107 -0.2874 -0.4797  1.1075
15317TIP3   OH267441   5.966   0.343  13.637 -0.3114  0.2199 -0.2996
15317TIP3    H167442   5.930   0.375  13.554 -0.5308 -1.5622 -0.9155
15317TIP3    H267443   5.957   0.416  13.697 -1.2786  1.1261 -1.5283
15318TIP3   OH267444   2.067   5.271  13.601  0.1224 -0.3416 -0.2443
15318TIP3    H167445   1.983   5.314  13.622  0.6954 -0.1495  1.7395
15318TIP3    H267446   2.079   5.207  13.671  1.1975 -1.0397 -1.0529
15319TIP3   OH267447   4.386   3.081   2.174  0.2732 -0.0355 -0.5730
15319TIP3    H167448   4.333   3.066   2.253 -0.6125  3.0290 -0.5153
15319TIP3    H267449   4.476   3.062   2.201  0.0051  1.1302  1.2698
15320TIP3   OH267450   6.261   4.525  15.476 -0.0276 -0.3735  0.2495
15320TIP3    H167451   6.246   4.451  15.534  0.9413 -0.4726  0.3700
15320TIP3    H267452   6.178   4.535  15.429 -0.1401 -1.5914  0.1618
15321TIP3   OH267453   2.875   6.612  14.401 -0.0589 -0.0474 -0.2403
15321TIP3    H167454   2.858   6.685  14.342 -1.3085  0.3731  0.6065
15321TIP3    H267455   2.793   6.602  14.450  0.0154 -2.1727 -0.5264
15322TIP3   OH267456   5.866   3.010  12.179  0.2502 -0.0361 -0.0086
15322TIP3    H167457   5.873   2.917  12.158  2.0324  0.4022 -1.4162
15322TIP3    H267458   5.926   3.022  12.253 -0.8297 -0.2108  0.9109
15323TIP3   OH267459   4.796   6.677   0.524 -0.0436 -0.0660  0.2607
15323TIP3    H167460   4.758   6.594   0.495 -1.2123  0.5129  0.1032
15323TIP3    H267461   4.754   6.743   0.468  0.4097  0.6930  0.8115
15324TIP3   OH267462   5.044   0.529   3.974  0.0295 -0.1392  0.0323
15324TIP3    H167463   5.114   0.496   4.031  0.3607 -0.6447 -0.6679
15324TIP3    H267464   4.967   0.529   4.030  0.4314 -0.2881  0.5941
15325TIP3   OH267465   0.085   6.550   0.419  0.3954 -0.0140  0.9010
15325TIP3    H167466   0.020   6.593   0.363  1.8880 -0.6329 -1.3888
15325TIP3    H267467   0.142   6.620   0.449  0.0232  0.2313  1.0366
15326TIP3   OH267468   5.265   0.953  15.575  0.0272  0.2996 -0.1685
15326TIP3    H167469   5.229   0.869  15.547 -0.2791 -0.0853  1.3377
15326TIP3    H267470   5.329   0.976  15.507 -0.0030 -1.0719 -0.6656
15327TIP3   OH267471   6.068   6.797   3.901  0.4882  0.2973  0.2344
15327TIP3    H167472   6.066   6.801   3.997  0.5931  0.1049  0.2458
15327TIP3    H267473   6.124   6.870   3.875  0.0476  0.6584  0.2957
15328TIP3   OH267474   1.005   2.351   1.851  0.3011 -0.0962 -0.1953
15328TIP3    H167475   0.965   2.278   1.898 -0.1737  0.2866  0.0012
15328TIP3    H267476   1.019   2.317   1.762  0.1752 -0.4581 -0.0802
15329TIP3   OH267477   2.380   2.274   5.866 -0.4738 -0.0668 -0.7756
15329TIP3    H167478   2.352   2.295   5.777  1.8986  0.2997 -1.4938
15329TIP3    H267479   2.420   2.355   5.898  1.0205 -0.9383 -0.3722
15330TIP3   OH267480   2.032   6.122  14.584  0.0174  0.0947  0.0847
15330TIP3    H167481   2.110   6.068  14.571  0.0467  0.2685 -0.4684
15330TIP3    H267482   1.962   6.059  14.601  0.3451 -0.0449  0.9195
15331TIP3   OH267483   4.292   3.415  15.368 -0.5873 -0.2509 -0.3539
15331TIP3    H167484   4.329   3.492  15.323 -1.7335 -1.1621 -2.9948
15331TIP3    H267485   4.352   3.344  15.347 -0.0184 -0.2891  1.3368
15332TIP3   OH267486   2.097   3.662   1.260  0.4693 -0.7401 -0.6039
15332TIP3    H167487   2.094   3.756   1.278  2.0432 -0.7705 -0.0723
15332TIP3    H267488   2.006   3.634   1.266  0.2738  0.2759  1.8564
15333TIP3   OH267489   3.197   6.696   3.967  0.1718  0.7211  0.1787
15333TIP3    H167490   3.226   6.786   3.954  0.4688  0.6137  0.0818
15333TIP3    H267491   3.271   6.643   3.938 -0.0299  0.4457  0.1651
15334TIP3   OH267492   3.119   4.671   2.717 -0.6473 -0.0769 -0.1087
15334TIP3    H167493   3.127   4.752   2.667 -1.9655 -1.0926 -2.0477
15334TIP3    H267494   3.031   4.639   2.698 -0.3512 -1.6839  1.0572
15335TIP3   OH267495   4.826   4.008  15.707 -0.0970 -0.4083 -0.0496
15335TIP3    H167496   4.742   4.053  15.716 -0.2192 -0.5130 -0.6615
15335TIP3    H267497   4.834   3.955  15.786  0.8067  1.9571  1.5323
15336TIP3   OH267498   5.417   4.060   3.445  0.5625 -0.0026  0.4258
15336TIP3    H167499   5.327   4.046   3.414  0.7957 -1.2878  0.3130
15336TIP3    H267500   5.418   4.151   3.476  0.1983  1.2214 -2.9688
15337TIP3   OH267501   0.295   3.093  14.789  0.1452  0.5297 -0.2010
15337TIP3    H167502   0.214   3.052  14.820  0.6224 -1.7676 -1.8072
15337TIP3    H267503   0.270   3.141  14.711  0.1571  0.6540 -0.1295
15338TIP3   OH267504   4.981   5.412  12.227 -0.0894 -0.2734  0.1521
15338TIP3    H167505   5.069   5.444  12.206 -0.3294  0.3244  0.0511
15338TIP3    H267506   4.980   5.409  12.323 -0.0423 -0.0438  0.1610
15339TIP3   OH267507   3.903   6.797  12.924  0.3048 -0.4353 -0.0838
15339TIP3    H167508   3.972   6.798  12.991  1.6547  0.6097 -1.4279
15339TIP3    H267509   3.826   6.834  12.968  0.3891 -2.2525  1.6395
15340TIP3   OH267510   1.951   5.190  12.154 -0.4747 -0.2614  0.3301
15340TIP3    H167511   1.924   5.104  12.121 -0.0069 -0.6096  0.8459
15340TIP3    H267512   1.934   5.186  12.248 -1.3415  0.5514  0.2116
15341TIP3   OH267513   5.318   1.403   0.674 -0.2836  0.0558  0.4691
15341TIP3    H167514   5.404   1.438   0.651 -0.8676  0.6206 -0.9570
15341TIP3    H267515   5.333   1.309   0.686  0.2290 -0.1497 -1.5411
15342TIP3   OH267516   1.316   6.259   3.802  1.0579  0.0897 -0.1844
15342TIP3    H167517   1.291   6.170   3.827  0.4292 -0.5475 -3.0109
15342TIP3    H267518   1.241   6.292   3.752  1.8981  1.6987 -0.4030
15343TIP3   OH267519   4.806   5.531   4.632  0.2727 -0.2109 -0.5130
15343TIP3    H167520   4.890   5.485   4.636  0.6475  0.3093 -2.2055
15343TIP3    H267521   4.822   5.607   4.577 -1.2350  0.0844 -0.5744
15344TIP3   OH267522   0.685   0.972   3.148 -0.0914 -0.4169 -0.4826
15344TIP3    H167523   0.725   0.917   3.081 -0.7089 -1.8465  0.2966
15344TIP3    H267524   0.741   0.960   3.225  0.0866  0.4877 -0.4653
15345TIP3   OH267525   0.342   6.060  14.717  0.2531  0.4086 -0.2701
15345TIP3    H167526   0.402   6.042  14.645 -0.6883 -1.2831 -0.6620
15345TIP3    H267527   0.391   6.037  14.796  0.1589 -0.9224 -0.5866
15346TIP3   OH267528   6.210   4.011  14.558  0.3549 -0.4959 -0.1305
15346TIP3    H167529   6.115   4.010  14.570  0.1773 -1.4046 -1.4808
15346TIP3    H267530   6.227   4.086  14.501  0.3382 -0.8947 -0.6640
15347TIP3   OH267531   1.796   6.136   1.473 -0.2240  0.4863  0.5828
15347TIP3    H167532   1.808   6.064   1.534 -0.7726 -1.8585 -1.9749
15347TIP3    H267533   1.704   6.160   1.482 -0.0721  0.7795  1.3496
15348TIP3   OH267534   0.390   3.644   0.705  0.5103  0.1015  0.4000
15348TIP3    H167535   0.416   3.662   0.614  1.6638  0.3292  0.7683
15348TIP3    H267536   0.346   3.724   0.733 -0.2510 -0.1358 -0.0985
15349TIP3   OH267537   5.692   2.921  15.913 -0.2416  0.5864 -0.1094
15349TIP3    H167538   5.733   2.835  15.920 -0.1090  0.7236  0.9712
15349TIP3    H267539   5.614   2.915  15.969  0.4647  1.5640  0.9905
15350TIP3   OH267540   6.582   5.954  13.575  0.6677 -0.3340 -0.2790
15350TIP3    H167541   6.675   5.969  13.557  0.8590 -1.7748 -0.5551
15350TIP3    H267542   6.578   5.863  13.607 -0.2747  0.5706  2.3690
15351TIP3   OH267543   2.335   3.691   0.958 -0.3771 -0.5065 -0.0118
15351TIP3    H167544   2.292   3.674   0.874  1.0334 -1.0249 -0.6467
15351TIP3    H267545   2.326   3.609   1.007 -0.2397 -0.5733 -0.0968
15352TIP3   OH267546   4.331   3.517   5.714 -0.2206  0.3034 -0.3609
15352TIP3    H167547   4.386   3.551   5.785 -1.1869 -1.0581  1.0649
15352TIP3    H267548   4.244   3.552   5.732 -0.2361  0.8935 -1.5398
15353TIP3   OH267549   0.066   5.773   0.444 -0.0219  0.5156  0.1584
15353TIP3    H167550  -0.007   5.730   0.489  1.7407 -1.9360  0.8036
15353TIP3    H267551   0.094   5.843   0.505  0.1877 -0.6114  1.3837
15354TIP3   OH267552   6.666   5.779   5.769  0.0502  0.4468  0.3477
15354TIP3    H167553   6.706   5.756   5.853 -1.2709  0.5200  1.0135
15354TIP3    H267554   6.740   5.791   5.710  1.0870  1.6322  1.8216
15355TIP3   OH267555   1.711   1.706   5.027 -0.3188  0.2917 -0.0432
15355TIP3    H167556   1.786   1.762   5.045  0.3777 -1.0493  1.3066
15355TIP3    H267557   1.749   1.624   4.995 -1.2232 -0.1876  0.0977
15356TIP3   OH267558   3.828   0.821  14.213  0.0407  0.6997  0.1999
15356TIP3    H167559   3.758   0.886  14.209 -0.4753  0.2316  1.2845
15356TIP3    H267560   3.789   0.742  14.175  1.0726  1.3466 -2.2866
15357TIP3   OH267561   5.768   0.267   3.087 -0.0343 -0.0720  0.1751
15357TIP3    H167562   5.846   0.301   3.131  0.7904 -3.1915  1.3138
15357TIP3    H267563   5.799   0.240   3.000  0.0744 -0.8700  0.4542
15358TIP3   OH267564   2.764   2.214   1.932  0.0621 -0.1493  0.3701
15358TIP3    H167565   2.768   2.174   2.019  0.3985  1.0832  0.9359
15358TIP3    H267566   2.836   2.173   1.883  0.3315 -0.3220  0.9074
15359TIP3   OH267567   6.375   1.250   2.382  0.0010  0.0511 -0.1938
15359TIP3    H167568   6.425   1.203   2.448  1.1204  0.3456 -0.8139
15359TIP3    H267569   6.402   1.210   2.299 -2.2590 -1.1216 -0.4114
15360TIP3   OH267570   2.134   1.220   6.058  0.2376 -0.5006  0.1837
15360TIP3    H167571   2.209   1.169   6.089  1.1900  1.6009  1.5179
15360TIP3    H267572   2.171   1.281   5.994 -0.2431  0.7997  1.1194
15361TIP3   OH267573   4.783   0.153   6.176 -0.2046  0.2027 -0.0091
15361TIP3    H167574   4.710   0.116   6.226 -0.1301  0.7005  0.4813
15361TIP3    H267575   4.777   0.247   6.191 -0.0775  0.3350 -0.8094
15362TIP3   OH267576   2.241   3.966   4.205 -0.3008  0.5447  0.7822
15362TIP3    H167577   2.292   4.038   4.241 -1.0860  0.7379  1.5299
15362TIP3    H267578   2.181   3.942   4.276 -1.9307  0.9750 -0.4501
15363TIP3   OH267579   3.759   3.815  10.774  0.1366  0.1832  0.5382
15363TIP3    H167580   3.734   3.844  10.861  1.4434  0.6097  0.7666
15363TIP3    H267581   3.725   3.883  10.715  1.7227  1.3393  0.9381
15364TIP3   OH267582   0.508   6.689  16.717  0.0988 -0.4122  0.0466
15364TIP3    H167583   0.495   6.764  16.659 -0.9443 -0.6300 -0.0104
15364TIP3    H267584   0.590   6.649  16.686  0.5630  0.5886 -0.0348
15365TIP3   OH267585   4.848   0.751  15.456 -0.1480 -0.2805  0.0587
15365TIP3    H167586   4.773   0.712  15.500 -0.0744  0.7380  1.1040
15365TIP3    H267587   4.850   0.709  15.370 -1.8175 -0.4256  0.0853
15366TIP3   OH267588   1.248   1.881  13.543 -0.3936 -0.1688  0.1739
15366TIP3    H167589   1.292   1.895  13.627  0.0296 -2.1730  0.3119
15366TIP3    H267590   1.232   1.786  13.540  0.0816 -0.1899 -2.2509
15367TIP3   OH267591   5.979   6.530   0.967 -0.4443  0.7242 -0.5414
15367TIP3    H167592   5.933   6.513   1.050 -0.9426  1.3396 -0.6880
15367TIP3    H267593   5.923   6.490   0.900  0.9833 -1.5879 -0.4035
15368TIP3   OH267594   4.764   2.578   1.747 -0.2107  0.2308  0.3474
15368TIP3    H167595   4.703   2.599   1.676  1.1386 -0.7692 -1.1526
15368TIP3    H267596   4.810   2.660   1.764 -0.0474  0.3078 -0.4415
15369TIP3   OH267597   6.465   3.679   5.856 -0.2490 -0.0398 -0.3354
15369TIP3    H167598   6.526   3.630   5.912  0.5268  0.4582 -0.7461
15369TIP3    H267599   6.379   3.647   5.883  0.1898 -0.8739  0.1345
15370TIP3   OH267600   6.283   0.765  12.983 -0.0683  0.1516 -0.1676
15370TIP3    H167601   6.356   0.721  12.941 -0.7458 -0.5500 -0.6171
15370TIP3    H267602   6.323   0.815  13.054  0.9670  0.5964 -1.0524
15371TIP3   OH267603   2.577   4.143  11.771  0.2549 -0.8420  0.2970
15371TIP3    H167604   2.535   4.064  11.805 -0.2019 -0.5436  0.4313
15371TIP3    H267605   2.584   4.128  11.677  0.6547 -1.2672  0.3927
15372TIP3   OH267606   5.948   1.370  12.011  0.3322  0.6198 -0.0847
15372TIP3    H167607   5.995   1.291  11.984 -0.6548 -0.3884  1.0900
15372TIP3    H267608   6.014   1.422  12.057  0.1413 -1.1999  2.3703
15373TIP3   OH267609   3.722   0.383  14.383 -0.1243 -0.2042 -0.3985
15373TIP3    H167610   3.787   0.323  14.420  0.1476  0.0820 -0.4172
15373TIP3    H267611   3.653   0.325  14.350  0.1412 -0.5115 -0.4227
15374TIP3   OH267612   1.506   5.946   2.392 -0.5422 -0.2209  0.2158
15374TIP3    H167613   1.464   5.860   2.388 -3.1446  0.8347  2.6663
15374TIP3    H267614   1.582   5.933   2.448  0.2946 -1.3556 -1.1588
15375TIP3   OH267615   5.863   1.505   5.275 -0.2929 -0.1177  0.1643
15375TIP3    H167616   5.785   1.449   5.272 -1.1629  1.0573  0.6735
15375TIP3    H267617   5.842   1.578   5.217  0.9009 -0.3818 -0.6102
15376TIP3   OH267618   3.859   4.027  11.981 -0.1225  0.5157 -0.5963
15376TIP3    H167619   3.768   3.998  11.991 -1.0143  3.4568  0.4944
15376TIP3    H267620   3.897   4.015  12.068  0.9385 -1.8561 -1.3504
15377TIP3   OH267621   3.241   3.377   5.594  0.2826  0.2209  0.2958
15377TIP3    H167622   3.161   3.411   5.553  0.4144 -0.0356 -0.1808
15377TIP3    H267623   3.236   3.283   5.580  1.5409  0.3634 -1.3480
15378TIP3   OH267624   1.355   5.921   5.398 -0.3252 -0.0291 -0.3307
15378TIP3    H167625   1.306   5.984   5.450 -1.4602 -0.8235 -0.4096
15378TIP3    H267626   1.353   5.957   5.309 -1.6561 -0.5449 -0.5290
15379TIP3   OH267627   4.928   4.859  16.541 -0.0425 -0.6205 -0.4899
15379TIP3    H167628   5.011   4.811  16.546 -0.3450 -1.2468 -1.2549
15379TIP3    H267629   4.870   4.812  16.600  0.0547 -0.3769 -0.1994
15380TIP3   OH267630   1.494   1.271   6.060 -0.4653 -0.7725 -0.4195
15380TIP3    H167631   1.554   1.252   5.988  0.3507  0.6738 -0.1276
15380TIP3    H267632   1.548   1.264   6.139 -0.5396  1.0820 -0.1981
15381TIP3   OH267633   3.650   4.490  11.345  0.5964  0.5436  0.2360
15381TIP3    H167634   3.672   4.513  11.255 -2.4241  1.4571 -0.3000
15381TIP3    H267635   3.678   4.565  11.397  1.4953  0.4013 -0.0321
15382TIP3   OH267636   1.776   4.206   5.756 -0.4295 -0.3556  0.3759
15382TIP3    H167637   1.694   4.253   5.741  0.3518  1.5684  1.9512
15382TIP3    H267638   1.825   4.262   5.816  2.7144 -0.6887 -1.7669
15383TIP3   OH267639   3.508   6.042   0.246 -0.2363  0.5254  0.3653
15383TIP3    H167640   3.475   5.976   0.186  0.5511  0.0735  0.4146
15383TIP3    H267641   3.569   6.095   0.193 -0.2451  0.7004  0.5280
15384TIP3   OH267642   1.260   0.125  11.070  0.1800 -0.0417  0.4141
15384TIP3    H167643   1.349   0.092  11.059 -0.0213  0.0484 -1.6679
15384TIP3    H267644   1.213   0.092  10.993 -1.3227  0.7547  0.9859
15385TIP3   OH267645   1.861   1.611  15.062 -0.1764 -0.4861  0.3522
15385TIP3    H167646   1.927   1.592  15.129 -0.0041  4.1742  1.6417
15385TIP3    H267647   1.908   1.606  14.979  1.0534 -0.3457  1.0332
15386TIP3   OH267648   4.458   5.549  10.516 -0.1485 -0.0607  0.0252
15386TIP3    H167649   4.421   5.554  10.427  0.3069 -3.4979 -0.3989
15386TIP3    H267650   4.412   5.476  10.557  2.2777 -0.8699  1.3611
15387TIP3   OH267651   6.335   5.872  12.352  0.1494 -0.6834 -0.1357
15387TIP3    H167652   6.342   5.924  12.432 -0.8364  0.0324 -0.5073
15387TIP3    H267653   6.395   5.914  12.290 -0.4722 -0.1155 -0.3603
15388TIP3   OH267654   1.628   6.368  14.783  0.0423 -0.4708 -0.0802
15388TIP3    H167655   1.688   6.327  14.846  0.1228 -0.7517 -0.3394
15388TIP3    H267656   1.658   6.459  14.779 -0.7401 -0.1418  1.2217
15389TIP3   OH267657   2.579   0.118   1.555  0.1005  0.1017  0.4931
15389TIP3    H167658   2.569   0.210   1.532  0.9660 -0.0658 -0.5750
15389TIP3    H267659   2.494   0.093   1.592  0.4473  1.8020  2.5351
15390TIP3   OH267660   1.628   4.264  11.137  0.1040  0.4255  0.2253
15390TIP3    H167661   1.675   4.344  11.160  0.4477  0.2295  0.2074
15390TIP3    H267662   1.543   4.295  11.103  0.4264  0.7986 -0.2425
15391TIP3   OH267663   3.560   1.198   5.951  1.1243 -0.1182 -0.2120
15391TIP3    H167664   3.536   1.107   5.970  3.1388 -0.3638  1.2943
15391TIP3    H267665   3.563   1.241   6.036  0.5706  1.2877 -0.8777
15392TIP3   OH267666   0.780   1.936   1.806 -0.4634  0.3038  0.0774
15392TIP3    H167667   0.690   1.906   1.822 -0.8375  1.3728  0.0303
15392TIP3    H267668   0.834   1.857   1.815 -1.4221 -0.3689 -0.0311
15393TIP3   OH267669   6.586   1.719   5.052  0.5709  0.0342 -0.5954
15393TIP3    H167670   6.669   1.685   5.085  0.1943  0.4298  0.7787
15393TIP3    H267671   6.552   1.774   5.123 -1.5615 -1.2672 -0.5439
15394TIP3   OH267672   3.418   1.976  15.470 -0.0509  0.3130 -0.6590
15394TIP3    H167673   3.378   2.009  15.550  1.0557 -0.7604  0.3639
15394TIP3    H267674   3.403   2.045  15.406 -1.6592  0.8403  0.2518
15395TIP3   OH267675   4.985   0.353  16.008 -0.4609 -0.1319  0.1970
15395TIP3    H167676   4.993   0.260  15.989 -0.9417 -0.6371  2.2949
15395TIP3    H267677   4.918   0.384  15.947  1.0417 -0.7442 -1.7887
15396TIP3   OH267678   0.191   0.616   1.708  0.1862  0.3307 -0.1002
15396TIP3    H167679   0.174   0.642   1.798 -1.6189  1.3596 -0.7205
15396TIP3    H267680   0.285   0.632   1.696  0.4195  0.2655  1.5522
15397TIP3   OH267681   5.096   1.111  12.973  0.3540  0.6254 -0.1549
15397TIP3    H167682   5.122   1.117  13.065 -0.8254 -0.7757  0.2902
15397TIP3    H267683   5.175   1.136  12.925  1.0539  1.1679  1.2301
15398TIP3   OH267684   3.691   5.725   3.883 -0.0735  0.6184  0.3963
15398TIP3    H167685   3.639   5.753   3.959  1.4723  1.1884  1.2685
15398TIP3    H267686   3.647   5.764   3.808  0.8198  3.6970  1.4057
15399TIP3   OH267687   0.889   2.512   2.528 -0.0289 -0.1711  0.1356
15399TIP3    H167688   0.866   2.420   2.543  1.0581 -0.4642  0.0468
15399TIP3    H267689   0.879   2.553   2.614  0.0853 -0.5029  0.3093
15400TIP3   OH267690   4.233   1.947   3.593  0.0657 -0.2844  0.3840
15400TIP3    H167691   4.276   2.028   3.618  1.5979 -0.8967 -0.2463
15400TIP3    H267692   4.231   1.949   3.497  1.1606 -1.5200  0.3246
15401TIP3   OH267693   4.914   1.944   1.276  0.6541 -0.4838 -0.0214
15401TIP3    H167694   4.895   1.853   1.299 -1.4785 -0.0981 -0.1848
15401TIP3    H267695   5.005   1.943   1.246  0.3306 -2.7497 -1.0003
15402TIP3   OH267696   3.545   3.667   2.132  0.1425 -0.0471 -0.1424
15402TIP3    H167697   3.593   3.595   2.090  1.9215  0.6976  0.5367
15402TIP3    H267698   3.524   3.726   2.060  1.3934  0.2347 -0.2942
15403TIP3   OH267699   3.654   4.754  10.763 -0.2733  0.6253  0.1838
15403TIP3    H167700   3.668   4.684  10.827 -0.5537  0.9089  0.5597
15403TIP3    H267701   3.722   4.740  10.697 -0.8982 -0.5521 -0.2297
15404TIP3   OH267702   4.748   5.229  17.190 -0.0900 -0.2658  0.3567
15404TIP3    H167703   4.690   5.298  17.159  0.5889 -0.5762 -1.6453
15404TIP3    H267704   4.714   5.149  17.151  0.5153 -0.7406  0.7835
15405TIP3   OH267705   3.200   1.158  11.701 -0.1682  0.8232  0.5889
15405TIP3    H167706   3.262   1.213  11.652 -1.4777  0.3544 -1.6615
15405TIP3    H267707   3.118   1.164  11.651 -1.3357 -0.2720  2.3416
15406TIP3   OH267708   1.517   2.762  11.429 -0.8126  0.2446  0.2454
15406TIP3    H167709   1.554   2.674  11.433  1.0841  0.9799 -0.4194
15406TIP3    H267710   1.512   2.782  11.335  2.7528  2.4057  0.4084
15407TIP3   OH267711   2.256   4.291  16.793  0.0898  0.1321 -0.2788
15407TIP3    H167712   2.225   4.202  16.778  1.0267 -0.2238 -0.1601
15407TIP3    H267713   2.351   4.284  16.790  0.1646  1.2553 -1.0184
15408TIP3   OH267714   5.623   6.228  12.991 -0.1172  0.2175  0.0615
15408TIP3    H167715   5.527   6.230  12.987 -0.0953  0.3341 -0.5007
15408TIP3    H267716   5.645   6.288  13.062 -0.4781 -0.1062  0.4464
15409TIP3   OH267717   5.984   5.291   6.020  0.0069 -0.0816 -0.0486
15409TIP3    H167718   6.054   5.276   5.957  0.7620 -0.0373  0.7720
15409TIP3    H267719   5.931   5.211   6.015  0.2474 -0.2172 -0.4938
15410TIP3   OH267720   2.738   1.085   5.888 -0.3382  0.1344  0.3499
15410TIP3    H167721   2.647   1.111   5.903 -0.3452  1.0152 -1.1066
15410TIP3    H267722   2.782   1.102   5.972 -1.3423  0.4639  0.8144
15411TIP3   OH267723   4.560   3.516   1.751 -0.3886 -0.8977  0.4249
15411TIP3    H167724   4.605   3.529   1.834 -0.3228  1.2450  0.0803
15411TIP3    H267725   4.480   3.567   1.758  0.0762  0.1086 -1.1725
15412TIP3   OH267726   0.060   4.037  13.222 -0.1953 -0.0175 -0.0564
15412TIP3    H167727   0.093   3.961  13.173 -1.0809  0.8718 -2.0793
15412TIP3    H267728   0.064   4.109  13.160 -3.5860  0.6387  0.3961
15413TIP3   OH267729   3.960   1.907   4.222  0.5851 -0.1143 -0.0946
15413TIP3    H167730   3.989   1.900   4.131 -2.3677  0.7104 -1.1692
15413TIP3    H267731   3.887   1.969   4.219 -1.4588 -2.2788  2.3752
15414TIP3   OH267732   5.542   1.935   4.190 -0.3029 -0.2308 -0.7541
15414TIP3    H167733   5.548   2.030   4.181  0.9239 -0.1892  0.2518
15414TIP3    H267734   5.619   1.902   4.143  0.5559 -0.5752  0.8583
15415TIP3   OH267735   5.301   0.104   1.029 -0.0029  0.3434  0.0971
15415TIP3    H167736   5.242   0.094   0.954 -0.7603  1.3660  0.5475
15415TIP3    H267737   5.387   0.120   0.990 -0.0652 -0.8581 -0.5635
15416TIP3   OH267738   5.924   4.499   0.313  0.0088 -0.6898 -0.2530
15416TIP3    H167739   5.956   4.579   0.271  1.7812 -1.0153  0.3862
15416TIP3    H267740   5.841   4.480   0.270 -0.1091  1.1171 -0.8826
15417TIP3   OH267741   5.956   6.684  16.444 -0.2620  0.4159  0.2827
15417TIP3    H167742   5.962   6.597  16.484 -1.4245  0.6262  0.9705
15417TIP3    H267743   6.026   6.734  16.485 -0.4272  0.1663  0.8848
15418TIP3   OH267744   3.039   0.204  14.459  0.4616 -0.5372 -0.0880
15418TIP3    H167745   3.019   0.140  14.390 -1.7910 -0.9536  0.8937
15418TIP3    H267746   3.094   0.156  14.521 -0.0562 -1.1241 -0.0648
15419TIP3   OH267747   2.978   0.652  11.296  0.2905  0.5722  1.0530
15419TIP3    H167748   2.944   0.741  11.295  0.7859  0.8312  3.7343
15419TIP3    H267749   3.050   0.654  11.232  0.5075  2.1718  1.3162
15420TIP3   OH267750   6.483   1.961  16.484  0.1731  0.4162 -0.7423
15420TIP3    H167751   6.473   1.866  16.486  1.5910  0.2481 -0.6069
15420TIP3    H267752   6.511   1.980  16.394 -0.2967  0.7290 -0.8263
15421TIP3   OH267753   6.339   0.862  16.943 -0.0290  0.0040 -0.0080
15421TIP3    H167754   6.369   0.949  16.917  0.3021 -0.0655  0.1343
15421TIP3    H267755   6.268   0.841  16.881  1.0905 -0.3697 -1.1924
15422TIP3   OH267756   1.983   3.703  12.923 -0.7183 -0.5454 -0.0481
15422TIP3    H167757   1.941   3.640  12.981  1.8856 -2.5463 -0.2507
15422TIP3    H267758   2.023   3.767  12.982 -1.8434 -0.0467  0.1977
15423TIP3   OH267759   5.822   2.580   3.252  0.3419 -0.1446  0.7081
15423TIP3    H167760   5.841   2.549   3.341  0.1691 -0.0445  0.7805
15423TIP3    H267761   5.831   2.675   3.258 -0.0628 -0.1054  0.7152
15424TIP3   OH267762   0.802   0.723   2.004 -0.1896 -0.1364 -0.2712
15424TIP3    H167763   0.839   0.636   2.016  0.7721  0.2131 -0.6445
15424TIP3    H267764   0.852   0.779   2.064  1.8823  0.8648 -2.8451
15425TIP3   OH267765   0.045   3.220  12.349  0.0496 -0.2363  1.0659
15425TIP3    H167766   0.111   3.159  12.384  0.5668 -0.6546 -0.6141
15425TIP3    H267767  -0.009   3.166  12.292  1.5594  1.1632 -1.8280
15426TIP3   OH267768   3.464   0.252   4.273  0.1030  0.3859  0.3080
15426TIP3    H167769   3.483   0.184   4.337  0.2634 -0.5842 -0.7586
15426TIP3    H267770   3.369   0.247   4.260  0.4667 -1.6116 -1.9186
15427TIP3   OH267771   4.453   1.048   0.530 -0.4727 -0.1902 -0.0509
15427TIP3    H167772   4.394   0.996   0.477 -0.0881  0.6517 -1.3159
15427TIP3    H267773   4.539   1.038   0.488 -0.1971  0.6240  0.3007
15428TIP3   OH267774   0.274   2.907  15.913 -0.2301 -0.6570 -0.0410
15428TIP3    H167775   0.241   2.859  15.837  1.2279 -1.2448 -0.3119
15428TIP3    H267776   0.293   2.995  15.880  1.3547 -1.1978 -0.6095
15429TIP3   OH267777   6.243   5.140   3.970  0.3002  0.3113 -0.4990
15429TIP3    H167778   6.173   5.075   3.959 -0.9177  1.4695  0.2532
15429TIP3    H267779   6.284   5.145   3.884 -0.0826 -0.8962 -0.7687
15430TIP3   OH267780   3.823   0.729  13.030 -0.1130  0.3190 -0.2720
15430TIP3    H167781   3.846   0.792  13.099  0.6940 -0.5665  0.2683
15430TIP3    H267782   3.779   0.658  13.076  0.5167 -0.3242 -0.6568
15431TIP3   OH267783   4.756   3.573  16.796 -0.0476  0.3803 -0.4919
15431TIP3    H167784   4.761   3.570  16.891 -2.0559 -0.1503 -0.3914
15431TIP3    H267785   4.744   3.666  16.776  3.0925  0.8499 -0.4074
15432TIP3   OH267786   5.897   5.135  13.450 -0.5297  0.8380  0.0291
15432TIP3    H167787   5.913   5.144  13.356  1.0703  0.7367  0.2696
15432TIP3    H267788   5.902   5.040  13.466  0.0258  0.9213  0.3509
15433TIP3   OH267789   1.405   4.742  11.838 -0.2545 -0.2027 -0.7938
15433TIP3    H167790   1.381   4.671  11.897  0.7026 -1.7463 -2.2206
15433TIP3    H267791   1.496   4.762  11.860 -0.5761  0.6995 -0.2782
15434TIP3   OH267792   3.438   3.500   6.095 -0.3561 -0.2395  1.0439
15434TIP3    H167793   3.488   3.552   6.157 -0.6498  0.2929  0.8409
15434TIP3    H267794   3.420   3.560   6.022  0.8169 -1.1424  0.0019
15435TIP3   OH267795   2.238   5.560   5.482  0.0399 -0.2142  0.4365
15435TIP3    H167796   2.175   5.570   5.552  1.1365 -0.0517  1.4128
15435TIP3    H267797   2.324   5.565   5.525  0.7213 -0.7547 -0.8128
15436TIP3   OH267798   2.348   1.381  15.927 -0.6821 -0.0413  0.7197
15436TIP3    H167799   2.310   1.354  15.844 -0.4777 -1.7022  1.1453
15436TIP3    H267800   2.339   1.476  15.928  0.2017  0.0906 -1.6140
15437TIP3   OH267801   1.690   1.963   6.666 -0.9218  0.1408 -0.3311
15437TIP3    H167802   1.644   1.995   6.744  0.8151  1.3291  0.2282
15437TIP3    H267803   1.775   1.933   6.699 -0.1345  0.7610 -1.7701
15438TIP3   OH267804   6.707   2.348   6.266  0.5901  0.1510  0.2146
15438TIP3    H167805   6.794   2.384   6.247  0.2632  0.8506  0.0348
15438TIP3    H267806   6.657   2.422   6.299 -0.6983  0.3457 -2.0627
15439TIP3   OH267807   4.888   1.004   5.884 -0.1756  0.1015  0.7370
15439TIP3    H167808   4.906   0.930   5.941  0.2029  0.2438  0.7999
15439TIP3    H267809   4.963   1.008   5.825 -1.2016 -0.8753 -0.6554
15440TIP3   OH267810   1.088   0.726  14.846  0.2081 -0.2643  0.0828
15440TIP3    H167811   1.041   0.787  14.789  1.3859 -0.7342 -1.4612
15440TIP3    H267812   1.069   0.639  14.810  1.9259 -0.4845 -0.3683
15441TIP3   OH267813   4.208   4.867  11.113  0.3834 -0.0763  0.0115
15441TIP3    H167814   4.138   4.873  11.178 -0.5080  1.1203 -1.0134
15441TIP3    H267815   4.253   4.952  11.118  0.4766 -0.0729 -0.7289
15442TIP3   OH267816   2.944   2.014   1.289  0.0931  0.2465 -0.0242
15442TIP3    H167817   2.869   2.021   1.231  0.1865 -1.5710 -0.4003
15442TIP3    H267818   3.017   1.991   1.231  0.3493 -0.7743  0.6967
15443TIP3   OH267819   1.658   4.249  12.500  0.2258 -0.3831  0.5517
15443TIP3    H167820   1.682   4.240  12.408  0.7059 -2.1521  0.8379
15443TIP3    H267821   1.732   4.294  12.541 -0.9076  2.3663 -0.3182
15444TIP3   OH267822   1.707   1.068   4.873  0.1664 -0.5872 -0.2600
15444TIP3    H167823   1.704   1.137   4.807 -0.4717 -0.5088 -0.1529
15444TIP3    H267824   1.687   1.113   4.955  0.0624 -0.8416 -0.1450
15445TIP3   OH267825   2.008   2.531   1.849 -0.4587  0.0024 -0.0682
15445TIP3    H167826   2.056   2.482   1.915 -1.2371 -0.0897  0.4318
15445TIP3    H267827   2.069   2.600   1.821  0.0735 -0.3069  0.3313
15446TIP3   OH267828   4.529   4.275  12.870  0.5479  0.1684 -0.5577
15446TIP3    H167829   4.522   4.346  12.934 -0.8461 -0.9679  0.5745
15446TIP3    H267830   4.511   4.317  12.786  0.4062  1.2930  0.0188
15447TIP3   OH267831   6.441   1.200   4.382  0.1459  0.6654 -0.7016
15447TIP3    H167832   6.440   1.225   4.474  0.6610 -0.2819 -0.4409
15447TIP3    H267833   6.393   1.118   4.378  0.5313  0.4587 -1.2068
15448TIP3   OH267834   2.917   6.686   4.060  0.2505 -0.1531 -0.4460
15448TIP3    H167835   2.852   6.665   3.992  0.8149  0.2798 -1.1361
15448TIP3    H267836   2.998   6.645   4.029  0.9326  1.4725 -0.9232
15449TIP3   OH267837   4.570   3.916   0.989 -0.4611  0.1115 -0.0598
15449TIP3    H167838   4.595   3.856   1.060  1.1163  0.9014  0.0940
15449TIP3    H267839   4.489   3.880   0.954  1.3280 -3.0934 -1.1015
15450TIP3   OH267840   5.136   4.096   4.198 -0.1231  0.3502 -0.2497
15450TIP3    H167841   5.115   4.004   4.213 -2.1019  0.5076 -1.8868
15450TIP3    H267842   5.058   4.133   4.158  1.1943  2.4093 -1.0364
15451TIP3   OH267843   0.293   6.097   5.386  0.5022  0.4394  0.1152
15451TIP3    H167844   0.281   6.155   5.460 -1.1519  0.8590 -0.4525
15451TIP3    H267845   0.207   6.095   5.342  0.7824 -1.6465 -0.4302
15452TIP3   OH267846   0.206   6.039  17.028 -0.0436 -0.0351 -0.1172
15452TIP3    H167847   0.136   6.016  17.089  0.8039 -1.7017  0.2575
15452TIP3    H267848   0.266   5.965  17.032  0.6377  0.3788 -2.0681
15453TIP3   OH267849   1.559   1.430   2.445 -0.0018 -0.8051 -0.2206
15453TIP3    H167850   1.467   1.404   2.440 -0.3006  0.4417 -1.2540
15453TIP3    H267851   1.559   1.514   2.490  0.8875 -1.9946  2.1557
15454TIP3   OH267852   0.577   0.247  16.265  0.2211 -0.4667 -0.3461
15454TIP3    H167853   0.490   0.248  16.226 -0.4084 -2.2927  0.8877
15454TIP3    H267854   0.562   0.221  16.356  1.8273  1.6915  0.5666
15455TIP3   OH267855   5.288   5.864  11.332  0.1438  0.7067  0.0505
15455TIP3    H167856   5.311   5.776  11.301 -3.2084  0.1246 -0.9487
15455TIP3    H267857   5.328   5.923  11.268  0.4503 -0.1710 -0.5761
15456TIP3   OH267858   0.053   2.197  12.981  0.1022  0.1809 -0.3332
15456TIP3    H167859   0.012   2.275  12.944  0.6754 -0.1262 -1.6837
15456TIP3    H267860  -0.006   2.125  12.957  0.9981 -0.1586 -1.6112
15457TIP3   OH267861   3.097   3.171  15.402 -0.1661 -0.7637  0.0444
15457TIP3    H167862   3.107   3.228  15.478 -1.2708  1.8373 -1.6780
15457TIP3    H267863   3.033   3.105  15.430  1.1689 -1.2371  2.0813
15458TIP3   OH267864   6.403   2.092  16.715  0.0013  0.0114  0.5667
15458TIP3    H167865   6.424   2.058  16.628  0.4708  1.4105  0.1228
15458TIP3    H267866   6.315   2.058  16.733  0.2328 -0.9610 -0.1009
15459TIP3   OH267867   6.584   2.640  15.746  0.2960  0.4297 -0.0672
15459TIP3    H167868   6.654   2.588  15.708  0.0790 -0.2155  0.4229
15459TIP3    H267869   6.531   2.667  15.671  0.7888  0.5087 -0.3868
15460TIP3   OH267870   6.410   0.228  13.986  0.1120 -0.5147  0.0918
15460TIP3    H167871   6.324   0.254  14.018 -0.5426 -2.0987 -0.2891
15460TIP3    H267872   6.410   0.251  13.894 -0.0039 -0.7480  0.0328
15461TIP3   OH267873   1.257   4.372   2.656  0.0444 -0.0938 -0.1764
15461TIP3    H167874   1.314   4.442   2.623 -2.9461  1.4962 -2.2688
15461TIP3    H267875   1.269   4.300   2.594 -1.1159  0.7077 -1.3586
15462TIP3   OH267876   4.900   1.064  15.468  0.2852 -0.1068  0.0610
15462TIP3    H167877   4.839   1.099  15.404  1.5000  0.0323 -1.0339
15462TIP3    H267878   4.904   0.970  15.450  1.0962  0.0241 -0.4888
15463TIP3   OH267879   4.525   5.921   3.741 -0.1405  0.0970 -0.3473
15463TIP3    H167880   4.590   5.985   3.712  0.5137 -0.8654 -1.0793
15463TIP3    H267881   4.501   5.949   3.829  1.4390  0.3519  0.0189
15464TIP3   OH267882   2.913   4.730   3.214 -0.2082 -0.0759  0.7045
15464TIP3    H167883   2.999   4.714   3.174 -0.3071 -0.6099  0.7008
15464TIP3    H267884   2.883   4.643   3.242 -0.2731  0.2570  1.6678
15465TIP3   OH267885   6.583   1.025  12.232  0.3404  0.0822  0.0811
15465TIP3    H167886   6.517   0.959  12.211  1.7770 -1.2034 -0.4685
15465TIP3    H267887   6.639   1.029  12.155  0.5218  1.6537  0.2791
15466TIP3   OH267888   1.280   5.537   5.822 -0.2240 -0.1023 -0.3370
15466TIP3    H167889   1.306   5.522   5.731 -0.8967  1.2930 -0.7724
15466TIP3    H267890   1.257   5.630   5.825  0.5817  0.0447  1.4597
15467TIP3   OH267891   5.206   4.237   5.389 -0.5945 -0.3358 -0.0362
15467TIP3    H167892   5.254   4.237   5.306 -1.7997  0.4889 -0.7543
15467TIP3    H267893   5.131   4.294   5.373 -1.9051 -1.7378  1.0162
15468TIP3   OH267894   6.665   0.444  16.969 -0.4066 -0.2017 -0.1266
15468TIP3    H167895   6.608   0.520  16.959 -0.3335 -0.0152  0.7637
15468TIP3    H267896   6.737   0.475  17.025 -0.4146 -0.9378  0.3052
15469TIP3   OH267897   1.667   1.902   0.592 -0.5373 -0.5019 -0.0481
15469TIP3    H167898   1.575   1.878   0.584 -0.4761 -0.2978 -1.4901
15469TIP3    H267899   1.699   1.903   0.502  0.1537  2.3225  0.1876
15470TIP3   OH267900   6.424   2.954   1.095 -0.1199 -0.4254  0.2065
15470TIP3    H167901   6.485   2.905   1.150  1.4473  1.0519 -0.1821
15470TIP3    H267902   6.366   2.997   1.156  2.2553  2.0428  0.8162
15471TIP3   OH267903   5.922   6.458  15.043 -0.1493 -0.4707  0.1708
15471TIP3    H167904   5.996   6.508  15.078  0.3926 -0.1262 -1.4397
15471TIP3    H267905   5.845   6.511  15.063  0.4806  1.3070 -2.0386
15472TIP3   OH267906   2.917   5.336  16.645 -0.4380  0.5333  0.1858
15472TIP3    H167907   2.834   5.296  16.618 -0.3457  0.3416  0.1862
15472TIP3    H267908   2.890   5.410  16.700 -0.5908 -0.9033  2.1228
15473TIP3   OH267909   4.078   3.538   5.764  0.3197  0.7335 -0.3620
15473TIP3    H167910   3.992   3.572   5.789  1.3760  1.7738  1.9823
15473TIP3    H267911   4.095   3.466   5.824  1.4695  1.1072 -0.2213
15474TIP3   OH267912   4.853   6.091   0.641 -0.2313 -0.3015 -0.0257
15474TIP3    H167913   4.819   6.176   0.668  0.9152  0.2904 -0.4291
15474TIP3    H267914   4.793   6.028   0.681 -0.0690  0.6356  1.7380
15475TIP3   OH267915   3.882   5.002  11.830  0.3323  0.4846  0.7819
15475TIP3    H167916   3.858   5.017  11.921  2.1541 -1.0140  1.5399
15475TIP3    H267917   3.951   5.067  11.812  0.2157  0.5528  0.5730
15476TIP3   OH267918   5.519   4.357  15.651  0.0683 -0.4010  0.6221
15476TIP3    H167919   5.527   4.369  15.745 -3.0259  1.2925  0.7197
15476TIP3    H267920   5.425   4.358  15.634  0.5992  1.1583 -2.6831
15477TIP3   OH267921   1.001   6.637  12.398  0.5077  0.3203 -0.1794
15477TIP3    H167922   1.069   6.623  12.332 -1.5833 -0.9666 -2.1276
15477TIP3    H267923   1.047   6.680  12.471  2.6766  2.8014 -2.8772
15478TIP3   OH267924   1.463   1.330   4.744 -0.0756  0.4967  0.2149
15478TIP3    H167925   1.538   1.286   4.704 -1.1115 -1.9675  0.9082
15478TIP3    H267926   1.492   1.348   4.834  0.0836  0.5196  0.1591
15479TIP3   OH267927   2.135   0.155  17.024  0.5803  0.2620  0.3413
15479TIP3    H167928   2.200   0.094  17.060 -0.2583 -1.0475 -0.3109
15479TIP3    H267929   2.122   0.125  16.934 -0.9595  0.4655  0.4816
15480TIP3   OH267930   3.678   1.950   2.341  0.5839 -0.2463 -0.2075
15480TIP3    H167931   3.665   2.006   2.265  1.2807 -1.7799 -1.4750
15480TIP3    H267932   3.771   1.957   2.361  0.3431  0.3949  0.6998
15481TIP3   OH267933   0.482   3.982   3.709  0.5682 -0.0386 -0.0444
15481TIP3    H167934   0.465   3.931   3.629 -0.2804 -0.7761  0.5944
15481TIP3    H267935   0.539   4.053   3.680  1.8332 -1.3816 -0.9463
15482TIP3   OH267936   3.021   2.048  11.256 -0.2242 -0.2158 -0.1735
15482TIP3    H167937   2.961   1.975  11.270  2.7941 -2.9120 -0.7404
15482TIP3    H267938   3.072   2.054  11.336  1.0567 -0.2065 -0.9679
15483TIP3   OH267939   5.256   1.849  11.725  0.4208 -0.0033 -0.4723
15483TIP3    H167940   5.298   1.767  11.751  1.1963  1.3455  2.7332
15483TIP3    H267941   5.210   1.878  11.804 -1.8836  1.4201 -2.2866
15484TIP3   OH267942   1.869   3.829  14.233 -0.0143 -0.0105  0.1786
15484TIP3    H167943   1.875   3.893  14.161  1.7984  0.8470  1.0649
15484TIP3    H267944   1.946   3.774  14.222 -0.2998 -0.5420  0.8575
15485TIP3   OH267945   3.830   2.473   1.100 -0.5097 -0.1143 -0.2489
15485TIP3    H167946   3.749   2.504   1.141 -0.1251 -0.4614  0.7906
15485TIP3    H267947   3.870   2.416   1.166 -1.6134 -3.5303 -2.3424
15486TIP3   OH267948   1.280   3.994   1.243 -0.7190 -0.3392  0.0005
15486TIP3    H167949   1.285   4.089   1.238 -0.0214 -0.5217 -4.1971
15486TIP3    H267950   1.186   3.976   1.252 -1.1929  0.6901 -2.4800
15487TIP3   OH267951   2.081   5.135  14.603 -0.0031  0.1398  0.3176
15487TIP3    H167952   2.016   5.160  14.537 -0.2343 -1.0110  0.0990
15487TIP3    H267953   2.034   5.141  14.686  0.0690  0.8384  0.3156
15488TIP3   OH267954   5.387   2.803  14.467 -1.0467 -0.5351  0.0911
15488TIP3    H167955   5.364   2.887  14.506  1.0073 -0.0416  0.3249
15488TIP3    H267956   5.347   2.738  14.525 -1.0369  0.2531  1.0013
15489TIP3   OH267957   3.047   1.595  15.499 -0.2464 -0.0369  0.4555
15489TIP3    H167958   2.960   1.572  15.467  1.4956  0.4727 -5.2687
15489TIP3    H267959   3.089   1.510  15.515 -1.0441 -0.3503  0.8948
15490TIP3   OH267960   3.069   4.074   2.277 -0.6701 -0.7193  0.0016
15490TIP3    H167961   3.082   4.148   2.336  0.3118 -1.1135  0.2913
15490TIP3    H267962   3.021   4.110   2.203  0.1421  0.2904 -0.0431
15491TIP3   OH267963   1.718   0.177   4.582 -0.0198  0.1808  0.3671
15491TIP3    H167964   1.634   0.189   4.626 -0.6333 -1.2508 -0.3753
15491TIP3    H267965   1.748   0.092   4.613 -0.4700 -0.8506 -1.9837
15492TIP3   OH267966   1.585   1.687   3.996  0.0973  1.0184 -0.6589
15492TIP3    H167967   1.646   1.682   3.922 -0.3807  0.9887 -1.0569
15492TIP3    H267968   1.618   1.622   4.058  1.2457  1.9511 -0.2797
15493TIP3   OH267969   5.518   5.938   3.397 -0.0345 -0.1643 -0.3304
15493TIP3    H167970   5.446   5.875   3.388 -0.9847  0.7486  0.8651
15493TIP3    H267971   5.491   5.997   3.467  1.9940  0.0421  0.3136
15494TIP3   OH267972   2.982   5.484  15.899 -0.2496 -0.4767 -0.6342
15494TIP3    H167973   2.978   5.406  15.843 -0.8640 -0.5948 -0.4355
15494TIP3    H267974   3.058   5.471  15.954  0.8676  0.0352 -2.0236
15495TIP3   OH267975   3.055   6.473   3.442  0.2189  0.3363  0.2266
15495TIP3    H167976   2.963   6.456   3.420  0.3213 -1.1382  0.9288
15495TIP3    H267977   3.056   6.481   3.537  0.9684 -0.6196  0.3065
15496TIP3   OH267978   4.018   6.145  15.178 -0.6500 -0.0283  0.8644
15496TIP3    H167979   4.012   6.106  15.091 -0.7173 -0.8079  1.2177
15496TIP3    H267980   4.101   6.112  15.213 -0.5890  0.3433  1.0682
15497TIP3   OH267981   5.420   5.330   1.825  0.2216  0.0827 -0.3001
15497TIP3    H167982   5.338   5.295   1.790 -1.0667  1.4149  1.3486
15497TIP3    H267983   5.395   5.411   1.869  2.4802  0.6830 -0.0711
15498TIP3   OH267984   5.769   0.855   4.728 -0.3893 -0.8595  0.3747
15498TIP3    H167985   5.745   0.816   4.812 -1.6268  1.6119  1.1952
15498TIP3    H267986   5.707   0.818   4.665 -1.1992 -0.6215  1.0374
15499TIP3   OH267987   3.607   4.012   4.312  0.2708 -0.8012  0.8711
15499TIP3    H167988   3.695   4.028   4.347  0.3009 -0.2049  0.5341
15499TIP3    H267989   3.560   4.093   4.330  0.3763 -0.3732 -0.7388
15500TIP3   OH267990   4.262   4.747   5.501 -0.1172 -0.2646 -0.6547
15500TIP3    H167991   4.214   4.664   5.494 -0.1728 -0.1422 -1.9628
15500TIP3    H267992   4.206   4.811   5.459 -0.2957  0.5552  0.8033
15501TIP3   OH267993   0.442   6.385   5.886  0.2281  0.4740  0.2443
15501TIP3    H167994   0.424   6.339   5.803 -0.4089 -3.0428  2.2383
15501TIP3    H267995   0.356   6.413   5.916 -0.1363 -2.1760  1.8372
15502TIP3   OH267996   0.697   1.478  12.279 -0.1402 -0.4195  0.3410
15502TIP3    H167997   0.765   1.437  12.226 -2.2658 -1.1546 -1.9405
15502TIP3    H267998   0.629   1.411  12.286 -1.1660  0.7213  1.5235
15503TIP3   OH267999   1.385   2.923   2.983 -0.7933  0.5732 -0.3604
15503TIP3    H168000   1.326   2.998   2.975 -0.1228  1.3767  1.8125
15503TIP3    H268001   1.406   2.919   3.077 -1.5461 -2.8874 -0.2804
15504TIP3   OH268002   0.505   1.167  15.058  0.0446  0.2653 -0.0765
15504TIP3    H168003   0.487   1.089  15.007 -0.6472  1.1106 -1.1345
15504TIP3    H268004   0.474   1.145  15.146 -0.1661 -0.6339 -0.3677
15505TIP3   OH268005   3.519   4.893  10.381  0.6831 -0.0075  0.2731
15505TIP3    H168006   3.486   4.947  10.309  0.6150 -0.5437 -0.1014
15505TIP3    H268007   3.579   4.950  10.429  0.7692  0.3352 -0.2423
15506TIP3   OH268008   1.348   4.971  13.381 -0.4701 -0.3704  0.1986
15506TIP3    H168009   1.261   4.937  13.360 -0.9511  0.8735  0.1117
15506TIP3    H268010   1.331   5.040  13.445  0.6308 -1.3861  1.5987
15507TIP3   OH268011   6.279   3.461  12.363 -0.3372 -0.6285 -0.0176
15507TIP3    H168012   6.283   3.556  12.362  1.1789 -0.6875  0.0629
15507TIP3    H268013   6.223   3.439  12.288  0.9111  0.2513 -1.2264
15508TIP3   OH268014   4.198   2.626  13.201 -0.2069  0.1683  0.1994
15508TIP3    H168015   4.132   2.689  13.171  0.7079  1.1098  0.1234
15508TIP3    H268016   4.200   2.637  13.296  1.9298  2.3156 -0.0220
15509TIP3   OH268017   3.522   1.782  14.843  0.0297  0.2049  0.1577
15509TIP3    H168018   3.532   1.702  14.894 -0.6063 -0.9745 -1.5075
15509TIP3    H268019   3.430   1.805  14.850  0.1779  0.7062  0.4999
15510TIP3   OH268020   3.415   1.622  16.261  0.1193  0.5427  0.4405
15510TIP3    H168021   3.477   1.595  16.328 -0.2438  0.9108  0.9266
15510TIP3    H268022   3.417   1.551  16.196 -1.4114 -1.0659  2.0895
15511TIP3   OH268023   2.543   6.258   2.997  0.0149  0.0359 -0.5826
15511TIP3    H168024   2.485   6.309   2.941  0.0164  1.6674  0.8648
15511TIP3    H268025   2.533   6.296   3.084  1.4024 -1.2505  0.1800
15512TIP3   OH268026   1.710   0.081  16.451 -0.6489 -0.5737 -0.3196
15512TIP3    H168027   1.696   0.164  16.495 -1.2203 -1.1586  0.6119
15512TIP3    H268028   1.802   0.060  16.469 -0.9134 -0.8697  0.6944
15513TIP3   OH268029   4.926   0.220  14.263 -0.2063 -0.5804  0.6452
15513TIP3    H168030   4.984   0.169  14.319  0.0784 -1.8470 -0.7734
15513TIP3    H268031   4.850   0.238  14.318  0.1997 -1.5347  1.5406
15514TIP3   OH268032   1.662   4.375  14.697  0.5705  0.4138 -0.3425
15514TIP3    H168033   1.568   4.359  14.697  0.0970  2.9849 -0.1339
15514TIP3    H268034   1.689   4.363  14.605 -0.1717  0.7633 -0.6073
15515TIP3   OH268035   2.408   2.798   5.778 -0.4436  0.3279  0.4465
15515TIP3    H168036   2.360   2.742   5.839  0.0954 -1.2342 -0.5334
15515TIP3    H268037   2.345   2.816   5.708 -0.0041 -0.6925 -0.2191
15516TIP3   OH268038   3.939   0.014   2.892  0.2443  0.4838 -0.5050
15516TIP3    H168039   3.862   0.058   2.929 -2.0140 -1.2781 -2.9414
15516TIP3    H268040   4.012   0.071   2.915 -2.0083  3.1189  0.3967
15517TIP3   OH268041   4.944   0.474   4.402 -0.2161 -0.2304  0.1476
15517TIP3    H168042   4.862   0.455   4.357  0.4834 -1.3135 -0.7268
15517TIP3    H268043   4.989   0.536   4.344 -1.3200  2.0312  1.6656
15518TIP3   OH268044   0.245   5.157  12.935  0.0178  0.0961  0.1783
15518TIP3    H168045   0.296   5.099  12.992 -2.7186 -1.1311  1.4450
15518TIP3    H268046   0.241   5.111  12.851  0.6437  0.0314  0.1760
15519TIP3   OH268047   4.614   4.089  10.602  0.3974  0.0926 -0.2560
15519TIP3    H168048   4.563   4.124  10.675 -0.1536  1.4456 -1.2586
15519TIP3    H268049   4.705   4.113  10.622  0.3290 -0.1150  0.2996
15520TIP3   OH268050   1.531   5.589   0.130 -0.0927 -0.3551  0.6388
15520TIP3    H168051   1.624   5.568   0.137  0.0950  0.4748  0.6588
15520TIP3    H268052   1.502   5.598   0.221 -0.6617 -2.6018  0.7098
15521TIP3   OH268053   0.637   5.774  14.999 -0.5467  0.5724  0.4114
15521TIP3    H168054   0.589   5.691  15.011 -4.3635  2.2414 -2.2456
15521TIP3    H268055   0.674   5.767  14.911 -1.4711  1.9304 -0.0978
15522TIP3   OH268056   4.112   1.706  12.646  0.5347  0.4897 -0.3189
15522TIP3    H168057   4.033   1.705  12.592  1.0318 -1.1280 -1.0597
15522TIP3    H268058   4.095   1.771  12.714 -0.9123  1.0788 -1.2364
15523TIP3   OH268059   0.871   6.637  11.427  0.2100 -0.5027  0.1194
15523TIP3    H168060   0.875   6.633  11.331 -1.3183 -0.0757  0.0265
15523TIP3    H268061   0.939   6.700  11.451  0.7067 -0.7277 -0.6712
15524TIP3   OH268062   2.542   4.308  17.035 -0.1812 -0.0198 -0.4600
15524TIP3    H168063   2.537   4.368  16.961 -0.8146  2.1016  1.2343
15524TIP3    H268064   2.568   4.364  17.109  2.2330 -2.3664  0.5814
15525TIP3   OH268065   4.853   3.926  15.433 -0.2189 -0.3026  0.0860
15525TIP3    H168066   4.854   3.990  15.504  2.1607  0.1072 -0.2547
15525TIP3    H268067   4.832   3.843  15.476  0.2335  0.1101  1.1276
15526TIP3   OH268068   2.158   2.098  11.244 -0.5031 -0.3238  0.0435
15526TIP3    H168069   2.092   2.165  11.230  0.4136  0.4981 -0.4103
15526TIP3    H268070   2.175   2.062  11.157  0.6927  0.4790 -0.0639
15527TIP3   OH268071   5.876   5.698   4.023  0.5206  0.8150  0.0485
15527TIP3    H168072   5.856   5.690   3.929  0.1432  1.5693  0.0583
15527TIP3    H268073   5.847   5.615   4.060  2.7777 -0.4075 -0.8496
15528TIP3   OH268074   0.448   5.013   6.074 -0.2815 -0.1026  0.1059
15528TIP3    H168075   0.429   4.992   6.165 -1.0045 -0.7488 -0.1908
15528TIP3    H268076   0.408   5.099   6.060  1.4240  0.8586  0.9078
15529TIP3   OH268077   5.464   3.058   1.775  0.5412 -0.3059 -0.3202
15529TIP3    H168078   5.372   3.084   1.777  0.5536 -0.2964  2.5579
15529TIP3    H268079   5.512   3.137   1.798  1.1154 -0.9008  0.5352
15530TIP3   OH268080   4.782   4.236   0.113  0.3065 -0.0815  0.8613
15530TIP3    H168081   4.846   4.251   0.182  1.7545 -0.5754 -0.3571
15530TIP3    H268082   4.722   4.310   0.119  0.1383 -0.3449  2.9228
15531TIP3   OH268083   1.386   0.358  10.749 -0.1636  0.2176  0.3606
15531TIP3    H168084   1.395   0.267  10.719  3.5661  0.6144  0.0753
15531TIP3    H268085   1.307   0.390  10.705  0.4443 -1.8116 -2.3695
15532TIP3   OH268086   4.047   4.788  13.157  0.3933 -0.5871  0.0940
15532TIP3    H168087   4.099   4.712  13.182  0.7829 -0.8248 -1.4082
15532TIP3    H268088   4.111   4.852  13.126 -0.1705 -0.8255 -1.6202
15533TIP3   OH268089   3.907   3.042  11.229  0.1207  0.3988  0.2114
15533TIP3    H168090   3.814   3.039  11.205  0.4238 -1.1654 -0.8107
15533TIP3    H268091   3.931   2.951  11.246  1.2914  0.8733  1.1947
15534TIP3   OH268092   1.658   1.220  12.974  0.1051  0.4839 -0.1813
15534TIP3    H168093   1.653   1.256  12.885  0.5702 -0.8080 -0.7348
15534TIP3    H268094   1.750   1.195  12.985  0.0921  0.8348  0.7402
15535TIP3   OH268095   4.097   6.181  11.444 -0.2742 -0.1261  0.1881
15535TIP3    H168096   4.144   6.123  11.505  1.3204  0.0488 -0.8426
15535TIP3    H268097   4.080   6.260  11.496 -0.0673 -0.4753  0.8000
15536TIP3   OH268098   3.278   0.603   3.232  0.7147 -0.1664 -0.0700
15536TIP3    H168099   3.352   0.646   3.274 -0.5039  0.9347  0.9989
15536TIP3    H268100   3.253   0.662   3.162  0.8077 -0.5101 -0.3946
15537TIP3   OH268101   4.937   0.676   2.359  0.0152  0.1594  0.5370
15537TIP3    H168102   5.028   0.650   2.377  0.1369  0.9857  1.1656
15537TIP3    H268103   4.916   0.739   2.428 -1.2637 -0.5177  0.7772
15538TIP3   OH268104   4.539   0.223  12.991 -0.0992 -0.3223  0.0175
15538TIP3    H168105   4.523   0.317  12.985 -0.4580 -0.4274 -0.6417
15538TIP3    H268106   4.634   0.215  12.983 -0.1295 -0.0717 -0.5735
15539TIP3   OH268107   3.102   3.840   3.436  0.2582 -0.4909  0.5484
15539TIP3    H168108   3.064   3.807   3.354 -1.1059  0.7063  0.6731
15539TIP3    H268109   3.134   3.762   3.481 -1.0104 -1.4127 -0.1036
15540TIP3   OH268110   1.906   5.992   1.211  0.5516 -0.1739  0.1381
15540TIP3    H168111   1.885   5.903   1.238  0.4533 -0.3688 -0.5613
15540TIP3    H268112   1.851   6.048   1.265 -0.8068 -0.6268 -0.7554
15541TIP3   OH268113   1.328   6.204  15.453 -0.1798 -0.1075 -0.2906
15541TIP3    H168114   1.299   6.206  15.362 -1.7437 -0.6050  0.1803
15541TIP3    H268115   1.347   6.296  15.474  0.4894 -0.0373 -1.2067
15542TIP3   OH268116   6.599   3.615  11.833 -0.0870 -0.6604  0.1278
15542TIP3    H168117   6.505   3.612  11.846 -0.1800  0.6623 -0.1911
15542TIP3    H268118   6.636   3.604  11.921 -0.5457 -0.7036  0.3137
15543TIP3   OH268119   1.901   5.042   4.465 -0.4761 -0.4045 -0.2078
15543TIP3    H168120   1.847   5.091   4.528 -2.0561 -0.6136 -1.3602
15543TIP3    H268121   1.916   4.957   4.506  0.5330  0.3044  0.9143
15544TIP3   OH268122   5.817   4.655   0.572  0.2817 -0.3740 -0.0256
15544TIP3    H168123   5.900   4.696   0.596 -1.0052  2.4559 -0.2042
15544TIP3    H268124   5.833   4.618   0.485  0.5758  2.7304 -1.3694
15545TIP3   OH268125   3.249   0.917   4.084  0.4138 -0.2506 -0.0157
15545TIP3    H168126   3.164   0.906   4.040  1.2094 -1.8196 -1.2183
15545TIP3    H268127   3.230   0.900   4.176 -0.8431  0.8156 -0.0671
15546TIP3   OH268128   4.823   4.211  14.053 -0.6348  0.0953 -0.1583
15546TIP3    H168129   4.783   4.288  14.094  1.2214  0.8962  0.1997
15546TIP3    H268130   4.852   4.243  13.967  1.6469  0.2717  0.6497
15547TIP3   OH268131   2.519   4.255   4.637 -0.3412 -0.1367 -0.5335
15547TIP3    H168132   2.586   4.303   4.588 -1.7079  3.1807  0.6576
15547TIP3    H268133   2.446   4.247   4.576 -1.1908  1.9468  0.1804
15548TIP3   OH268134   0.379   1.197  12.830  0.0068 -0.2133 -0.0678
15548TIP3    H168135   0.358   1.205  12.738  1.3927 -1.0979 -0.4831
15548TIP3    H268136   0.326   1.264  12.874 -1.1854 -0.2737 -1.4116
15549TIP3   OH268137   3.240   5.501   0.310  0.3587 -0.0785 -0.0912
15549TIP3    H168138   3.334   5.488   0.324  0.7987  1.2104 -1.6529
15549TIP3    H268139   3.199   5.472   0.392  1.9633 -2.2364  0.0087
15550TIP3   OH268140   1.099   1.809  17.262 -0.0904  0.2893  0.0695
15550TIP3    H168141   1.068   1.728  17.303 -1.3417  0.5403 -0.3629
15550TIP3    H268142   1.173   1.836  17.316 -0.1156 -0.7516  0.6489
15551TIP3   OH268143   5.780   0.503   1.618  0.3474 -0.0363  0.3249
15551TIP3    H168144   5.738   0.508   1.704 -0.3836  1.1422 -0.0900
15551TIP3    H268145   5.715   0.537   1.557  1.3956  0.5064 -0.5156
15552TIP3   OH268146   2.369   0.540   5.266 -0.2753 -0.6555  0.0130
15552TIP3    H168147   2.445   0.488   5.243 -0.2461 -0.7669  0.3611
15552TIP3    H268148   2.294   0.485   5.243 -0.2440 -0.8780  0.4350
15553TIP3   OH268149   5.882   0.442  14.530  0.8400  0.0709  0.2086
15553TIP3    H168150   5.902   0.469  14.440  0.8788  4.6390  1.4220
15553TIP3    H268151   5.965   0.409  14.564  0.9522 -1.2119 -1.2412
15554TIP3   OH268152   4.069   3.066  13.188 -0.3583 -0.0365  0.3262
15554TIP3    H168153   4.057   3.130  13.258  1.5067 -0.7647  1.3672
15554TIP3    H268154   4.149   3.019  13.213 -0.0382 -0.7573 -1.9552
15555TIP3   OH268155   5.605   0.260  16.166  0.0320  0.1891 -0.0171
15555TIP3    H168156   5.562   0.251  16.251  0.9838  0.7853  0.5447
15555TIP3    H268157   5.697   0.278  16.188  0.1637  0.9909 -1.1589
15556TIP3   OH268158   1.807   0.769   2.516 -0.3410  1.2413  0.2821
15556TIP3    H168159   1.804   0.776   2.611 -1.4420  0.9422  0.2819
15556TIP3    H268160   1.716   0.778   2.488 -0.4312 -1.6485 -0.5180
15557TIP3   OH268161   0.476   6.427   4.559  0.1326 -0.1330 -0.3489
15557TIP3    H168162   0.540   6.401   4.626  0.5247  1.3141 -0.1203
15557TIP3    H268163   0.515   6.505   4.519 -0.6934 -0.2511 -1.4057
15558TIP3   OH268164   1.552   0.635   0.140 -0.5966 -0.1303  0.0086
15558TIP3    H168165   1.619   0.701   0.152 -1.6222  1.2145 -1.4110
15558TIP3    H268166   1.535   0.600   0.228  1.6261 -0.1939  0.4237
15559TIP3   OH268167   2.998   1.229  17.200 -0.2419 -0.2845  0.4536
15559TIP3    H168168   2.932   1.267  17.141  0.1191  2.0431  1.5099
15559TIP3    H268169   3.080   1.235  17.152 -0.0999  0.7790  0.8158
15560TIP3   OH268170   3.588   5.576   5.098  0.2037 -0.1170  0.1009
15560TIP3    H168171   3.602   5.573   5.003  0.4612  0.6013  0.1058
15560TIP3    H268172   3.554   5.490   5.121  0.3025 -0.3503 -0.6221
15561TIP3   OH268173   3.728   1.026   0.261 -0.0655 -0.2364  0.1300
15561TIP3    H168174   3.725   1.046   0.168  0.1913 -0.8134  0.0019
15561TIP3    H268175   3.643   1.055   0.294  0.0005  0.3441 -0.2067
15562TIP3   OH268176   1.685   1.145  11.560  0.0560  0.8139  0.0783
15562TIP3    H168177   1.777   1.148  11.588  0.5672 -1.1601 -1.2925
15562TIP3    H268178   1.637   1.187  11.631  1.6567 -1.1188  2.3734
15563TIP3   OH268179   4.248   5.895   6.301 -0.3262 -0.3352  0.1321
15563TIP3    H168180   4.330   5.860   6.336  0.5088  1.5704  0.1585
15563TIP3    H268181   4.227   5.968   6.359 -0.9588  0.4535 -1.0675
15564TIP3   OH268182   6.354   5.148  15.474 -0.5854  0.7835  0.2139
15564TIP3    H168183   6.334   5.198  15.552 -0.2305  0.2712  0.6380
15564TIP3    H268184   6.442   5.178  15.448  0.4175 -0.9327  1.5348
15565TIP3   OH268185   6.627   5.381  16.381  0.8954  0.0382  0.1477
15565TIP3    H168186   6.536   5.365  16.356  0.9471 -1.4497  0.8564
15565TIP3    H268187   6.623   5.411  16.472  1.0991  0.2673  0.0828
15566TIP3   OH268188   6.407   2.656   1.470 -0.3658  0.0328 -0.3415
15566TIP3    H168189   6.351   2.706   1.529  0.8536 -0.9555  1.7231
15566TIP3    H268190   6.417   2.571   1.513  1.0631 -0.4910 -1.6752
15567TIP3   OH268191   0.726   5.656  13.910 -0.1226 -0.2017 -0.4480
15567TIP3    H168192   0.692   5.722  13.849 -0.4268  0.8260  0.8128
15567TIP3    H268193   0.815   5.686  13.931 -0.5965  0.3307  0.8531
15568TIP3   OH268194   4.949   4.946   5.300 -0.8137  0.3579  0.0471
15568TIP3    H168195   4.863   4.906   5.292 -0.4649 -0.3457 -0.1513
15568TIP3    H268196   5.006   4.894   5.244  0.3155 -0.8520  2.2349
15569TIP3   OH268197   4.324   1.519   3.157  0.4157 -0.4673 -0.8228
15569TIP3    H168198   4.248   1.575   3.171  2.5251  2.8270 -1.8545
15569TIP3    H268199   4.388   1.550   3.222  2.3040 -0.3039 -2.7102
15570TIP3   OH268200   5.101   4.576  11.972 -0.6999  0.2724 -0.8745
15570TIP3    H168201   5.014   4.601  11.938 -1.0773 -0.3664 -0.3875
15570TIP3    H268202   5.106   4.482  11.958  0.9653  0.6619 -3.2519
15571TIP3   OH268203   3.744   2.039  14.342 -0.2545  0.3886  0.2772
15571TIP3    H168204   3.827   2.084  14.356  0.5875 -1.0172 -0.0414
15571TIP3    H268205   3.734   1.983  14.419 -0.4678 -0.0916 -0.0959
15572TIP3   OH268206   2.990   5.645   2.911  0.2721  0.8241  0.2551
15572TIP3    H168207   3.022   5.724   2.869  0.4486  0.1164 -0.9717
15572TIP3    H268208   2.900   5.665   2.936  0.1604  1.2499 -0.4716
15573TIP3   OH268209   3.486   6.274  11.951 -0.1526 -0.1748  0.0480
15573TIP3    H168210   3.575   6.244  11.930  0.1687  0.4055  0.5849
15573TIP3    H268211   3.494   6.315  12.037 -0.6024  1.4319 -0.6668
15574TIP3   OH268212   4.568   4.390   5.799 -0.8840  0.7181  0.3771
15574TIP3    H168213   4.505   4.346   5.741  2.0036 -1.0266 -1.5668
15574TIP3    H268214   4.579   4.476   5.760  1.0325 -0.4402 -1.7871
15575TIP3   OH268215   3.520   6.457   6.436 -0.1932 -0.5188 -0.2309
15575TIP3    H168216   3.565   6.424   6.514 -1.6253 -1.2130  0.3194
15575TIP3    H268217   3.590   6.488   6.379  0.9673 -1.4003  0.6900
15576TIP3   OH268218   4.776   4.543   1.193 -0.8592 -0.1134  0.5411
15576TIP3    H168219   4.728   4.468   1.227 -0.7392 -0.6420 -0.4454
15576TIP3    H268220   4.743   4.555   1.104  0.8679 -0.5331 -0.1741
15577TIP3   OH268221   4.112   5.237   6.409 -0.3866  0.6260 -0.5078
15577TIP3    H168222   4.039   5.230   6.348 -0.8627 -0.1078  0.1285
15577TIP3    H268223   4.096   5.319   6.456 -1.7410 -0.3342  0.7886
15578TIP3   OH268224   4.805   0.491  10.724 -0.0039 -0.6981  0.3200
15578TIP3    H168225   4.811   0.440  10.644  0.6099 -0.9304  0.5103
15578TIP3    H268226   4.748   0.439  10.781  0.3240 -0.9871  0.3797
15579TIP3   OH268227   4.401   4.046   5.212 -0.4043 -0.2064 -0.7244
15579TIP3    H168228   4.398   4.006   5.299 -1.5190 -0.3324 -0.8193
15579TIP3    H268229   4.346   3.990   5.158 -0.7464  0.5925 -1.2121
15580TIP3   OH268230   6.455   3.692  12.469  0.3623 -0.2672 -0.2627
15580TIP3    H168231   6.364   3.720  12.459 -0.2344 -1.0672  2.7013
15580TIP3    H268232   6.502   3.773  12.488  0.1147  0.0133 -0.8314
15581TIP3   OH268233   1.364   6.124   4.712 -0.3379  0.0160  0.2394
15581TIP3    H168234   1.390   6.146   4.802 -0.8205 -1.1839  0.6796
15581TIP3    H268235   1.273   6.155   4.706  0.1704  1.4255 -0.3125
15582TIP3   OH268236   1.281   4.919  15.081  0.2573 -0.2084  0.2230
15582TIP3    H168237   1.286   4.831  15.043 -0.2631 -0.2276  0.1993
15582TIP3    H268238   1.369   4.936  15.113  0.2234 -0.9672  0.7432
15583TIP3   OH268239   0.782   1.884   5.533  0.5325  0.1406  0.3600
15583TIP3    H168240   0.839   1.887   5.609 -0.1094  0.4347  0.8306
15583TIP3    H268241   0.754   1.974   5.520 -0.1273 -0.0633  0.3604
15584TIP3   OH268242   0.749   4.188  14.328  0.0734  0.3102 -0.0600
15584TIP3    H168243   0.832   4.141  14.320 -0.6252 -0.9717  0.1365
15584TIP3    H268244   0.713   4.189  14.240 -0.5865 -0.7820  0.1926
15585TIP3   OH268245   5.114   4.683   1.654 -0.8609 -0.0668  0.6865
15585TIP3    H168246   5.110   4.722   1.567  0.4021  1.1422  1.1468
15585TIP3    H268247   5.206   4.659   1.666 -1.2163 -1.1453  1.2897
15586TIP3   OH268248   6.222   4.641   1.817  0.3971 -0.1718 -0.7707
15586TIP3    H168249   6.131   4.669   1.823  0.2567 -0.5982 -0.9173
15586TIP3    H268250   6.267   4.691   1.886  0.1233  0.3009 -0.9308
15587TIP3   OH268251   0.457   2.897   2.520  0.8504 -0.0490  0.8832
15587TIP3    H168252   0.522   2.850   2.572 -1.7479 -2.1689  2.4067
15587TIP3    H268253   0.458   2.853   2.435  2.6452  1.1193  0.2847
15588TIP3   OH268254   4.819   4.442  11.090  0.1807  0.2337 -0.2273
15588TIP3    H168255   4.852   4.354  11.070  0.0539  0.3575 -0.9830
15588TIP3    H268256   4.879   4.501  11.046  0.0285  0.5157 -0.0565
15589TIP3   OH268257   3.203   1.602  14.935  0.3281  0.1658  0.2285
15589TIP3    H168258   3.203   1.696  14.953  1.2464  0.6044 -1.9313
15589TIP3    H268259   3.279   1.569  14.981  1.2125  0.8505 -0.7121
15590TIP3   OH268260   4.305   2.879  16.048 -0.6991  0.4464 -0.4713
15590TIP3    H168261   4.360   2.949  16.012  2.4361 -0.1438  2.8460
15590TIP3    H268262   4.279   2.912  16.134 -0.8025 -1.6410  0.3111
15591TIP3   OH268263   6.515   3.825   4.272 -0.3382 -0.3827  0.4164
15591TIP3    H168264   6.485   3.904   4.316 -0.6456  0.0929 -0.6326
15591TIP3    H268265   6.434   3.779   4.247 -0.2312  0.6626 -1.9911
15592TIP3   OH268266   0.504   2.354   5.026 -0.5466 -0.0255  0.2450
15592TIP3    H168267   0.597   2.339   5.040 -0.7039 -0.7752  0.5289
15592TIP3    H268268   0.497   2.447   5.003  0.2080  0.1633  0.7631
15593TIP3   OH268269   1.547   0.011  14.461 -0.2131  0.4173 -0.1281
15593TIP3    H168270   1.505  -0.047  14.398 -0.1002  2.1306 -1.8192
15593TIP3    H268271   1.534   0.099  14.426  0.7536  1.3347  1.7062
15594TIP3   OH268272   1.034   5.989   1.652  0.5505 -0.2533  0.0476
15594TIP3    H168273   1.005   6.054   1.587  0.0731 -0.4005  0.1097
15594TIP3    H268274   1.054   6.040   1.730  0.4518 -0.1495  0.0057
15595TIP3   OH268275   2.597   6.557   0.909 -0.7787 -0.0759 -0.4722
15595TIP3    H168276   2.514   6.595   0.881 -1.4466  0.0992  1.6748
15595TIP3    H268277   2.620   6.496   0.839 -0.4058  3.1195 -3.2600
15596TIP3   OH268278   1.450   0.466   3.261 -0.7434  0.3308  0.0820
15596TIP3    H168279   1.487   0.490   3.345 -3.4570 -0.7934  1.6648
15596TIP3    H268280   1.493   0.384   3.238 -0.2443  0.4693  0.5133
15597TIP3   OH268281   5.470   1.811  15.852  0.8060 -0.5075  0.0034
15597TIP3    H168282   5.477   1.829  15.946 -0.2232  0.8252 -0.1647
15597TIP3    H268283   5.377   1.790  15.839  1.1512 -1.7717 -0.5431
15598TIP3   OH268284   4.313   1.373   4.273  0.1469 -0.1452 -0.0751
15598TIP3    H168285   4.376   1.301   4.283  0.7637  0.4169  0.0900
15598TIP3    H268286   4.246   1.338   4.213  0.9307 -0.5377 -0.7328
15599TIP3   OH268287   0.628   5.841   1.907 -0.2974 -0.2040  1.0853
15599TIP3    H168288   0.629   5.802   1.994  1.7699 -1.3729  0.5937
15599TIP3    H268289   0.719   5.832   1.876 -0.8233  0.8671 -0.8787
15600TIP3   OH268290   2.775   1.180   3.307 -0.2861 -0.1559  0.6041
15600TIP3    H168291   2.759   1.156   3.399 -0.5663  1.2848  0.9396
15600TIP3    H268292   2.752   1.101   3.258  0.6212 -1.2229  1.8244
15601TIP3   OH268293   4.998   2.693   0.712  0.0001  0.2333 -0.3375
15601TIP3    H168294   5.037   2.765   0.761 -0.5514  0.2955  0.0096
15601TIP3    H268295   4.928   2.661   0.768 -1.4781  1.1363 -1.6363
15602TIP3   OH268296   3.292   2.627  13.350  0.7164 -0.4666  0.0298
15602TIP3    H168297   3.305   2.696  13.415 -0.0584 -1.0615  0.8168
15602TIP3    H268298   3.374   2.577  13.351  1.6278  0.9488 -1.1756
15603TIP3   OH268299   2.308   3.110  12.272  0.1089 -0.5043  0.1493
15603TIP3    H168300   2.364   3.091  12.197 -0.1528  3.6541 -1.2250
15603TIP3    H268301   2.369   3.129  12.343  0.3981 -0.7614 -0.0294
15604TIP3   OH268302   2.917   3.477  14.288 -0.5985 -0.5116 -0.0159
15604TIP3    H168303   2.927   3.382  14.299 -0.9685 -0.6460 -0.8280
15604TIP3    H268304   3.005   3.512  14.306 -0.1907 -1.1114 -0.7749
15605TIP3   OH268305   0.903   2.788   0.515  0.6047 -0.2750 -0.0744
15605TIP3    H168306   0.810   2.803   0.498  0.7265  0.3510 -0.1869
15605TIP3    H268307   0.913   2.693   0.506  0.0178 -0.3261 -0.2572
15606TIP3   OH268308   0.962   1.593   1.012  0.2255 -0.2786  0.1505
15606TIP3    H168309   0.886   1.634   0.970 -0.2196 -1.2891 -0.0248
15606TIP3    H268310   0.953   1.616   1.105  0.9013  1.4620 -0.1859
15607TIP3   OH268311   1.033   5.747  13.910  0.0345  0.0436  0.2384
15607TIP3    H168312   1.054   5.793  13.991  0.8934  0.1570 -0.0345
15607TIP3    H268313   1.103   5.682  13.901 -0.8826 -0.9639  0.3542
15608TIP3   OH268314   5.101   1.215  13.301  0.0869  0.3327  0.4935
15608TIP3    H168315   5.122   1.124  13.322  1.3250  0.6611  0.7240
15608TIP3    H268316   5.022   1.234  13.353 -0.5682 -0.8026 -0.0763
15609TIP3   OH268317   3.161   3.838   0.804 -0.2176  0.0633 -0.5516
15609TIP3    H168318   3.109   3.831   0.723  0.5503  0.7579 -1.1165
15609TIP3    H268319   3.109   3.895   0.860 -1.5507 -1.7384  0.1034
15610TIP3   OH268320   6.544   4.554  11.971  0.0984  0.9380  0.0316
15610TIP3    H168321   6.474   4.546  11.906  0.1463 -1.6912  0.2195
15610TIP3    H268322   6.625   4.549  11.920  0.1327 -0.5896  0.1975
15611TIP3   OH268323   3.743   4.702  16.429 -0.2515 -0.1202  0.0797
15611TIP3    H168324   3.774   4.611  16.423  0.8540  0.3009 -0.5219
15611TIP3    H268325   3.760   4.739  16.343  1.3686  1.3259  1.0175
15612TIP3   OH268326   6.058   6.674   2.876  0.7246 -0.5359  0.3571
15612TIP3    H168327   6.026   6.654   2.788  0.6348 -0.8025  0.4476
15612TIP3    H268328   6.090   6.590   2.909  1.6809 -0.2387  0.2041
15613TIP3   OH268329   5.436   4.334  13.605  0.0869  0.3018  0.1524
15613TIP3    H168330   5.385   4.317  13.525  0.0877  0.4843  0.1122
15613TIP3    H268331   5.505   4.268  13.604 -1.0721 -0.9200  1.0139
15614TIP3   OH268332   2.686   0.473  13.779 -0.0677  0.8155 -0.2141
15614TIP3    H168333   2.651   0.562  13.767  1.2136  1.5502  1.3286
15614TIP3    H268334   2.727   0.452  13.695 -0.3955  1.6708 -0.5996
15615TIP3   OH268335   3.910   3.258  14.983 -0.0879 -0.4187  0.4989
15615TIP3    H168336   3.882   3.168  14.997 -0.8384 -0.4512 -1.0588
15615TIP3    H268337   3.884   3.277  14.893 -1.0446  1.7539  1.1856
15616TIP3   OH268338   3.906   0.630   6.214 -0.7510  0.3624  0.0430
15616TIP3    H168339   3.832   0.662   6.162 -0.6732  1.0447  0.3456
15616TIP3    H268340   3.869   0.612   6.300 -0.9640 -1.1664 -0.3552
15617TIP3   OH268341   4.176   1.681  14.930 -0.0223  0.2695  0.1137
15617TIP3    H168342   4.140   1.645  15.011 -0.6715  0.8677  0.0911
15617TIP3    H268343   4.270   1.690  14.948 -0.0451 -0.3208  0.5330
15618TIP3   OH268344   4.218   0.147  14.394  0.4546  0.1411  0.1035
15618TIP3    H168345   4.290   0.132  14.332  2.1326  1.7065  1.5817
15618TIP3    H268346   4.256   0.126  14.480 -0.5680  1.8241  0.9960
15619TIP3   OH268347   3.989   0.510  14.245 -0.5687  1.0508  0.4772
15619TIP3    H168348   3.942   0.480  14.323  1.5598 -0.0487  1.3830
15619TIP3    H268349   4.075   0.537  14.278 -0.5344  2.9985 -1.1329
15620TIP3   OH268350   6.584   1.675  16.217 -0.2895  0.1226 -0.4836
15620TIP3    H168351   6.621   1.630  16.293 -2.4736  2.4507  2.0726
15620TIP3    H268352   6.647   1.744  16.198 -0.6610  0.7251  0.4400
15621TIP3   OH268353   2.231   6.412  12.278  0.0498  0.0137 -0.4303
15621TIP3    H168354   2.175   6.464  12.221 -1.3512 -0.2976  0.6158
15621TIP3    H268355   2.319   6.446  12.264 -0.4887  0.9217 -1.6553
15622TIP3   OH268356   4.639   4.289   0.416  0.2395 -0.3944  0.1956
15622TIP3    H168357   4.732   4.285   0.395  0.1998  0.7090 -0.2486
15622TIP3    H268358   4.625   4.379   0.448 -0.3976 -0.9863  1.6163
15623TIP3   OH268359   2.999   0.777   0.516  0.5197  0.2028  0.5813
15623TIP3    H168360   2.911   0.740   0.519  0.8352 -1.0333 -3.0519
15623TIP3    H268361   2.986   0.870   0.498 -0.0552 -0.2109 -1.2463
15624TIP3   OH268362   5.949   6.586   3.198  0.0291 -0.1002 -0.2520
15624TIP3    H168363   5.961   6.645   3.123  0.0362 -0.1030 -0.2534
15624TIP3    H268364   5.928   6.501   3.159 -0.8452  0.1083 -0.2210
15625TIP3   OH268365   6.344   3.689  11.748  0.5747 -0.0631  0.5960
15625TIP3    H168366   6.308   3.686  11.659  0.4775 -0.7013  0.6524
15625TIP3    H268367   6.295   3.622  11.796 -0.2068  1.0893  1.4505
15626TIP3   OH268368   1.261   1.292   0.819 -0.5468  0.7074  0.4381
15626TIP3    H168369   1.318   1.270   0.745  0.1747 -0.8517  1.4304
15626TIP3    H268370   1.315   1.347   0.876 -1.8325  3.8303 -1.2557
15627TIP3   OH268371   1.657   6.507  15.111 -0.3257 -0.1769 -0.0806
15627TIP3    H168372   1.704   6.452  15.049  0.0705  0.6152 -0.4889
15627TIP3    H268373   1.722   6.528  15.178 -0.4024  0.0150 -0.0653
15628TIP3   OH268374   1.864   1.937   5.636  0.4456  0.3820  0.1029
15628TIP3    H168375   1.886   2.017   5.683 -1.6526  1.1534 -0.1853
15628TIP3    H268376   1.801   1.965   5.569 -0.0983 -1.4532 -0.1762
15629TIP3   OH268377   2.339   1.306  14.012  0.3191  0.3271  0.0368
15629TIP3    H168378   2.320   1.329  14.104 -0.2816  1.9538 -0.4707
15629TIP3    H268379   2.260   1.330  13.965  0.2515 -1.4519 -0.7875
15630TIP3   OH268380   6.625   0.700  11.071 -0.2250  0.1450 -0.4021
15630TIP3    H168381   6.671   0.757  11.010  1.7605 -0.6696  0.2854
15630TIP3    H268382   6.679   0.703  11.151 -0.4346 -2.2008 -0.1647
15631TIP3   OH268383   5.157   2.763  15.766  0.0483  0.6158  0.6197
15631TIP3    H168384   5.205   2.845  15.778  1.1208 -0.1777  1.8673
15631TIP3    H268385   5.146   2.755  15.671  1.6187  1.2458  0.3798
15632TIP3   OH268386   6.148   3.749  13.554  0.1522 -0.5112  0.1721
15632TIP3    H168387   6.203   3.671  13.549  0.5103 -0.2161 -0.6191
15632TIP3    H268388   6.209   3.820  13.574 -0.4751 -0.7523  3.2576
15633TIP3   OH268389   3.968   0.750  14.428 -0.6605 -0.7244  0.0391
15633TIP3    H168390   3.909   0.682  14.460 -0.5594 -1.3940 -1.1753
15633TIP3    H268391   3.931   0.776  14.343 -0.5521  0.5431  0.3774
15634TIP3   OH268392   2.739   5.918  17.286 -0.0730 -0.5259  0.5756
15634TIP3    H168393   2.679   5.844  17.287  0.5412 -1.0248  1.4993
15634TIP3    H268394   2.818   5.886  17.330  0.1292  0.7458  1.1649
15635TIP3   OH268395   1.001   5.286   0.979 -0.3323  0.0101  0.2688
15635TIP3    H168396   1.090   5.320   0.965 -0.3080 -0.2940 -0.3292
15635TIP3    H268397   0.946   5.336   0.919 -0.2043 -1.3914 -1.0652
15636TIP3   OH268398   1.021   3.080  14.738 -0.0453  0.3286 -0.0946
15636TIP3    H168399   1.010   2.987  14.758 -0.3301  0.2860 -0.4610
15636TIP3    H268400   0.982   3.091  14.651  1.0804  0.5401 -0.5810
15637TIP3   OH268401   2.855   2.641  12.327 -0.1502  0.3400 -0.7931
15637TIP3    H168402   2.813   2.709  12.275 -1.0030 -0.5814 -1.3422
15637TIP3    H268403   2.945   2.639  12.296 -0.7639 -0.5339 -2.6295
15638TIP3   OH268404   2.518   6.788   2.759 -0.8095 -0.3844  0.0049
15638TIP3    H168405   2.507   6.742   2.842 -1.2465 -0.8713 -0.3182
15638TIP3    H268406   2.433   6.826   2.741 -0.7870 -0.4988 -0.3468
15639TIP3   OH268407   5.804   2.969   5.004 -0.4658  0.4608  0.3710
15639TIP3    H168408   5.821   3.051   4.958  0.8451 -0.4949 -0.8845
15639TIP3    H268409   5.798   2.903   4.935 -0.9147 -0.6005  1.4045
15640TIP3   OH268410   2.822   3.277  15.303  0.5650  0.0344 -0.3047
15640TIP3    H168411   2.874   3.203  15.333  0.4978  0.3923  0.6979
15640TIP3    H268412   2.873   3.354  15.328  1.3796  0.3159 -2.6933
15641TIP3   OH268413   3.243   0.387  10.445 -0.2243  0.1797  0.5056
15641TIP3    H168414   3.308   0.448  10.410 -0.3303 -0.3747 -0.6850
15641TIP3    H268415   3.294   0.323  10.495  0.2457 -0.7394 -1.1262
15642TIP3   OH268416   4.843   2.550   0.252  0.8132 -0.2899 -0.3169
15642TIP3    H168417   4.856   2.617   0.184 -0.8743  1.0534  0.6278
15642TIP3    H268418   4.878   2.590   0.332  0.3904 -0.7888  0.1228
15643TIP3   OH268419   4.093   2.641   0.324  0.4227  0.3236  0.0318
15643TIP3    H168420   4.073   2.550   0.302  1.0404  0.4751 -1.2039
15643TIP3    H268421   4.013   2.689   0.302  0.2598  0.1453  0.2378
15644TIP3   OH268422   1.229   5.410   5.248  0.3980  0.3771 -0.3541
15644TIP3    H168423   1.300   5.400   5.184 -0.5201 -0.6807 -1.2122
15644TIP3    H268424   1.258   5.483   5.303  1.0918  1.4877 -2.1191
15645TIP3   OH268425   2.283   2.811   3.131  0.4753 -0.2529 -0.2289
15645TIP3    H168426   2.201   2.797   3.179 -0.3591  1.6702 -1.0536
15645TIP3    H268427   2.316   2.895   3.163  1.6168 -0.5255 -0.6490
15646TIP3   OH268428   3.219   0.132  10.655  0.6684 -0.6630 -0.3686
15646TIP3    H168429   3.162   0.123  10.578  1.1926  0.1368 -0.8705
15646TIP3    H268430   3.161   0.119  10.730  0.1539 -1.4732 -0.9030
15647TIP3   OH268431   5.171   3.261  13.474 -0.0771 -0.2323  0.3964
15647TIP3    H168432   5.202   3.325  13.539  0.7818 -0.9603  0.7295
15647TIP3    H268433   5.233   3.268  13.402 -0.1671 -0.4569  0.2959
15648TIP3   OH268434   1.536   4.614  16.303  0.5476  0.0789 -0.1271
15648TIP3    H168435   1.631   4.623  16.291  0.3650  1.0965 -0.7960
15648TIP3    H268436   1.509   4.695  16.346 -0.3863  0.8370 -2.0788
15649TIP3   OH268437   4.118   1.390  13.604 -0.2967 -0.0950 -0.1304
15649TIP3    H168438   4.152   1.367  13.690 -0.1825  0.3388 -0.0580
15649TIP3    H268439   4.047   1.327  13.589 -1.5397  1.0007  1.0725
15650TIP3   OH268440   6.420   1.935   1.827 -0.0407 -0.4265 -0.4148
15650TIP3    H168441   6.405   1.982   1.745 -0.2983  0.1706 -0.0342
15650TIP3    H268442   6.357   1.973   1.888 -0.7973 -1.8370 -0.3036
15651TIP3   OH268443   0.765   3.854   0.663 -0.1914  0.7726 -0.6551
15651TIP3    H168444   0.759   3.847   0.758  0.5181 -0.6408 -0.7105
15651TIP3    H268445   0.781   3.947   0.647 -0.1626  0.9960  0.6023
15652TIP3   OH268446   2.622   5.055  10.928 -0.4944 -0.0618 -0.3819
15652TIP3    H168447   2.532   5.022  10.929 -0.5046 -0.0332  0.0673
15652TIP3    H268448   2.677   4.977  10.935 -0.5546  0.0811  2.8376
15653TIP3   OH268449   5.401   2.211  17.265  0.3942  0.5016  0.0766
15653TIP3    H168450   5.372   2.158  17.339  0.4018 -1.3878 -1.2228
15653TIP3    H268451   5.328   2.272  17.249 -1.1675 -1.4601 -0.5613
15654TIP3   OH268452   6.520   6.590   6.078  0.2626 -0.2310 -0.2032
15654TIP3    H168453   6.498   6.631   6.161  0.6678 -0.0478 -0.1818
15654TIP3    H268454   6.541   6.664   6.020  0.9641 -0.3971 -0.1723
15655TIP3   OH268455   4.890   5.199   1.889  0.3043  0.0545 -0.2818
15655TIP3    H168456   4.921   5.124   1.838  0.2278 -1.2655  1.5547
15655TIP3    H268457   4.963   5.260   1.889  1.3143 -1.1205  0.2846
15656TIP3   OH268458   5.372   3.034  15.707  0.1158 -0.5626  0.7146
15656TIP3    H168459   5.325   3.014  15.788  1.6088  0.5527  1.9013
15656TIP3    H268460   5.411   3.120  15.722  1.0185 -0.6509 -0.9187
15657TIP3   OH268461   2.981   6.097  10.722 -0.1623 -0.1227  0.0689
15657TIP3    H168462   2.962   6.162  10.655  0.7953  1.7600  1.5524
15657TIP3    H268463   3.055   6.133  10.771  0.7544 -2.5956  0.6156
15658TIP3   OH268464   1.000   6.535   3.037 -0.3986  0.0727  0.0168
15658TIP3    H168465   0.979   6.446   3.065 -0.2764 -0.0465 -0.2758
15658TIP3    H268466   0.918   6.569   3.002 -0.9097  0.6893  1.7482
15659TIP3   OH268467   0.630   6.455  15.648 -0.3272 -0.6515  0.2288
15659TIP3    H168468   0.678   6.376  15.624 -1.0356 -1.3490  1.0681
15659TIP3    H268469   0.676   6.489  15.724  1.3491  1.0353 -1.4796
15660TIP3   OH268470   1.599   0.319   4.181 -0.0645  0.2107 -0.4151
15660TIP3    H168471   1.562   0.254   4.122 -0.4177  1.0270 -1.0947
15660TIP3    H268472   1.551   0.306   4.264  0.2004 -0.7026 -0.4036
15661TIP3   OH268473   6.682   2.258  13.718  0.4989  0.1866  0.1531
15661TIP3    H168474   6.598   2.302  13.728  0.2129  0.2563 -2.2743
15661TIP3    H268475   6.746   2.329  13.710  0.4970  0.1420 -0.2539
15662TIP3   OH268476   4.709   0.032  11.997 -0.4110  0.0834  0.6384
15662TIP3    H168477   4.769   0.068  12.063 -0.9270  1.9010  0.1617
15662TIP3    H268478   4.637  -0.005  12.047  0.0836 -0.2011  1.1447
15663TIP3   OH268479   4.776   3.888   2.351 -0.2056  0.3884 -0.1060
15663TIP3    H168480   4.705   3.845   2.303  0.9852  1.1878 -2.6985
15663TIP3    H268481   4.732   3.954   2.405 -1.5318  0.2047 -0.9454
15664TIP3   OH268482   1.173   4.458  14.760  0.0187 -0.0553 -0.0517
15664TIP3    H168483   1.228   4.382  14.743  0.0035 -0.5335  2.0384
15664TIP3    H268484   1.124   4.471  14.678  2.0292 -0.5971 -1.3669
15665TIP3   OH268485   0.512   2.805  15.474 -0.2215  0.1824 -0.3734
15665TIP3    H168486   0.501   2.718  15.513 -0.4967  0.0661 -0.7069
15665TIP3    H268487   0.432   2.852  15.495 -0.8028 -0.2091 -1.6250
15666TIP3   OH268488   1.118   5.421  11.038  0.3259  0.3682 -0.2867
15666TIP3    H168489   1.032   5.461  11.049 -1.2341 -2.5104 -1.5100
15666TIP3    H268490   1.179   5.485  11.075 -2.4135  1.9680  1.6539
15667TIP3   OH268491   2.734   6.540  11.675  0.5143  0.0762 -0.0974
15667TIP3    H168492   2.701   6.479  11.608  0.9020 -1.2462  0.8920
15667TIP3    H268493   2.820   6.505  11.699  1.2583  1.7058 -0.3688
15668TIP3   OH268494   3.075   6.110  12.055 -0.1043 -0.0841  0.0188
15668TIP3    H168495   3.005   6.089  11.994 -0.1995  0.8437 -0.1942
15668TIP3    H268496   3.087   6.204  12.047 -0.6044  0.1837  1.9293
15669TIP3   OH268497   6.126   4.977  12.648 -0.1798  0.1523 -0.0370
15669TIP3    H168498   6.146   4.931  12.730 -0.3942 -0.3770 -0.2800
15669TIP3    H268499   6.057   4.925  12.607  1.1555 -0.5868 -1.3981
15670TIP3   OH268500   1.313   0.050  15.315 -0.1273 -0.5043 -0.2549
15670TIP3    H168501   1.249  -0.017  15.340 -0.0449  0.1959  1.8998
15670TIP3    H268502   1.292   0.125  15.370  1.9943  0.0467 -0.1486
15671TIP3   OH268503   3.958   2.297  16.434  0.0711  0.0292  0.2717
15671TIP3    H168504   3.957   2.263  16.523  2.8019  0.1077  0.3951
15671TIP3    H268505   4.026   2.245  16.390 -0.5837  0.6326 -1.4811
15672TIP3   OH268506   6.071   2.728   0.747 -0.1458 -0.2319 -0.2994
15672TIP3    H168507   6.080   2.821   0.768 -0.3023 -0.2034 -0.3589
15672TIP3    H268508   6.002   2.725   0.680 -1.1508 -0.5154  0.7166
15673TIP3   OH268509   4.160   2.966  16.283 -0.5967  0.1999  0.2488
15673TIP3    H168510   4.127   3.044  16.239 -2.6820 -1.3008 -0.9247
15673TIP3    H268511   4.135   2.979  16.375  0.6171  1.6988  0.3809
15674TIP3   OH268512   4.141   1.311  13.325  0.1229  0.1506 -1.1890
15674TIP3    H168513   4.142   1.378  13.392 -2.5055 -1.1263  0.2153
15674TIP3    H268514   4.211   1.335  13.265  3.5815  0.5263  2.7781
15675TIP3   OH268515   2.394   2.166   1.155 -0.3730  0.4522 -0.1759
15675TIP3    H168516   2.306   2.147   1.123  0.0143 -0.8219 -0.5093
15675TIP3    H268517   2.453   2.126   1.090  0.4752  1.9853 -0.3962
15676TIP3   OH268518   5.750   1.503   6.938  0.1579  0.1337  0.1136
15676TIP3    H168519   5.694   1.430   6.910 -1.2503 -0.6438  4.5664
15676TIP3    H268520   5.689   1.565   6.978  1.9348  1.6245  0.5590
15677TIP3   OH268521   0.341   5.651   0.910  0.3886  0.3025  0.0185
15677TIP3    H168522   0.309   5.660   0.999  0.8306  0.1990  0.1894
15677TIP3    H268523   0.275   5.597   0.865  0.7384 -0.5963  0.5792
15678TIP3   OH268524   6.109   5.925  15.966 -0.2623 -0.5952  0.4128
15678TIP3    H168525   6.027   5.973  15.958  0.2387  0.5751  2.0285
15678TIP3    H268526   6.093   5.861  16.036  0.1943 -0.3639  0.7315
15679TIP3   OH268527   6.763   4.048  11.787  0.1113 -0.0927  0.5527
15679TIP3    H168528   6.761   3.983  11.718  0.4517  0.8741 -0.3845
15679TIP3    H268529   6.808   4.005  11.860 -0.8272 -1.3249  0.3964
15680TIP3   OH268530   5.667   1.795  14.165  0.2245  0.3703  0.0316
15680TIP3    H168531   5.741   1.854  14.179 -0.6572  1.1296  1.5530
15680TIP3    H268532   5.600   1.851  14.124 -0.0121  0.0124 -0.0707
15681TIP3   OH268533   5.620   0.574   1.803 -0.0930  0.1507  0.6016
15681TIP3    H168534   5.542   0.535   1.764 -0.1792  0.5640  0.3546
15681TIP3    H268535   5.590   0.657   1.840  0.0028 -0.2090  1.5046
15682TIP3   OH268536   0.426   4.030  17.143 -0.0186 -0.4259  0.4200
15682TIP3    H168537   0.343   4.013  17.188 -0.9828  1.7559 -0.4676
15682TIP3    H268538   0.487   4.052  17.213 -1.1320  1.4742  0.8368
15683TIP3   OH268539   4.212   5.023  14.804  0.0122 -0.2737 -0.2959
15683TIP3    H168540   4.184   5.087  14.869  0.4765  1.9892 -2.2414
15683TIP3    H268541   4.277   4.970  14.849 -0.3966  0.5949  1.3641
15684TIP3   OH268542   3.473   5.241  13.793  0.6799  0.1764 -0.0860
15684TIP3    H168543   3.470   5.211  13.884 -3.8620 -0.5018 -0.3115
15684TIP3    H268544   3.491   5.335  13.799  2.7623 -0.2927  1.3385
15685TIP3   OH268545   6.233   5.828  11.198  0.1997  0.4234 -0.0523
15685TIP3    H168546   6.177   5.877  11.137 -0.0045  1.8635  1.2588
15685TIP3    H268547   6.309   5.804  11.146 -0.9553 -0.2781 -1.4687
15686TIP3   OH268548   3.816   5.117   4.670 -0.5663  0.0552 -0.0826
15686TIP3    H168549   3.740   5.154   4.715 -1.6787 -0.8262 -1.2168
15686TIP3    H268550   3.822   5.027   4.701 -1.3369 -0.5585 -1.6459
15687TIP3   OH268551   3.654   1.891  15.694 -0.2903  0.3013  0.1956
15687TIP3    H168552   3.563   1.890  15.722 -0.4628 -2.3685 -0.4059
15687TIP3    H268553   3.672   1.983  15.675 -2.2928  1.1237  2.0730
15688TIP3   OH268554   3.824   2.397  13.291 -0.0140  0.3293 -0.3450
15688TIP3    H168555   3.838   2.378  13.384 -0.7222  2.5154  0.2393
15688TIP3    H268556   3.908   2.432  13.261 -0.0419  0.4365 -0.2997
15689TIP3   OH268557   4.098   5.292   1.744 -0.6160 -0.9175  0.6572
15689TIP3    H168558   4.175   5.348   1.747 -0.3770 -1.2740  1.0759
15689TIP3    H268559   4.067   5.288   1.834  0.0484 -2.4194  0.8188
15690TIP3   OH268560   1.712   4.490  15.456 -0.3057  0.3317  0.0371
15690TIP3    H168561   1.663   4.514  15.535  2.3425  1.5776  1.3725
15690TIP3    H268562   1.716   4.571  15.405 -0.4417 -0.0036 -0.5078
15691TIP3   OH268563   3.765   0.127  12.171  0.0683 -0.1637  0.0682
15691TIP3    H168564   3.778   0.083  12.087  1.4791 -1.3251  0.8765
15691TIP3    H268565   3.737   0.057  12.231 -2.3261  0.9019  0.2473
15692TIP3   OH268566   1.045   3.851  16.754 -0.0794 -0.2725  0.1445
15692TIP3    H168567   0.987   3.777  16.732  2.6025 -1.9417 -1.6895
15692TIP3    H268568   1.128   3.809  16.779  0.0536  2.0180  3.8664
15693TIP3   OH268569   0.792   1.267  13.086 -0.1480 -0.1336  0.1154
15693TIP3    H168570   0.762   1.190  13.133  0.0668  1.2283  2.5380
15693TIP3    H268571   0.811   1.235  12.998 -5.1858 -1.8003 -0.5582
15694TIP3   OH268572   2.126   2.924  14.374  0.0513 -0.5427  0.0600
15694TIP3    H168573   2.096   2.884  14.456 -0.4395 -1.1345 -0.4050
15694TIP3    H268574   2.222   2.922  14.380  0.0323  1.3073  1.5284
15695TIP3   OH268575   3.482   1.462   1.734  0.4363 -0.5147 -0.1070
15695TIP3    H168576   3.560   1.473   1.678 -0.6328 -1.2815 -1.7978
15695TIP3    H268577   3.432   1.393   1.690  0.5242 -2.5755  2.8962
15696TIP3   OH268578   0.513   2.314   1.607 -0.1192  0.2666 -0.3342
15696TIP3    H168579   0.488   2.401   1.637  0.2901  0.5327 -0.7654
15696TIP3    H268580   0.502   2.258   1.684 -1.8048  0.4174 -0.4538
15697TIP3   OH268581   5.646   1.311  15.294  0.0142 -0.1267  0.2693
15697TIP3    H168582   5.737   1.300  15.267  0.1625 -1.0085  1.0657
15697TIP3    H268583   5.628   1.404  15.284  0.6144 -0.1470 -1.0864
15698TIP3   OH268584   3.086   4.693  10.945  0.1919  0.4458  0.2757
15698TIP3    H168585   3.059   4.747  10.870  2.5823  0.7166 -0.4518
15698TIP3    H268586   3.180   4.679  10.930  0.5669  0.0144  2.9296
15699TIP3   OH268587   3.575   5.843   5.014 -0.0764  0.0168  0.3753
15699TIP3    H168588   3.574   5.752   5.043 -0.2426 -0.1192 -0.0571
15699TIP3    H268589   3.513   5.846   4.941 -1.2393  0.8070  1.3820
15700TIP3   OH268590   1.043   1.103  16.708  0.1274 -0.0200  0.3106
15700TIP3    H168591   1.106   1.175  16.713 -2.6428  2.4949  0.1443
15700TIP3    H268592   1.027   1.078  16.799 -1.4347  1.8878  0.5813
15701TIP3   OH268593   0.212   0.265   5.730  0.0839  0.0094  0.7209
15701TIP3    H168594   0.182   0.305   5.812 -0.0787  1.2429  0.0730
15701TIP3    H268595   0.138   0.212   5.701 -0.9139  1.7721 -0.0381
15702TIP3   OH268596   0.794   0.336   0.505 -0.6012  0.3052 -0.0245
15702TIP3    H168597   0.822   0.426   0.485 -0.3013  0.4119  0.8607
15702TIP3    H268598   0.874   0.283   0.494 -0.7097  0.1906 -0.2591
15703TIP3   OH268599   1.767   0.296  12.203 -1.0034 -0.7307 -0.2154
15703TIP3    H168600   1.675   0.305  12.227 -0.8447 -1.4168  0.6516
15703TIP3    H268601   1.815   0.346  12.269 -0.8475  0.9618 -1.5764
15704TIP3   OH268602   2.755   4.103   3.583  0.0670 -0.6003  0.0849
15704TIP3    H168603   2.848   4.122   3.586  0.1878 -1.0694 -0.6409
15704TIP3    H268604   2.734   4.071   3.671  0.7491 -1.2442  0.0140
15705TIP3   OH268605   3.497   5.731  12.139  0.6629  0.1582 -0.5383
15705TIP3    H168606   3.446   5.764  12.213 -1.4014 -3.0777 -0.4565
15705TIP3    H268607   3.572   5.687  12.179  0.5801  0.0953 -0.4528
15706TIP3   OH268608   5.892   2.693  15.228  0.1550 -0.6292  0.9259
15706TIP3    H168609   5.913   2.742  15.307 -0.2528  0.9945  0.0576
15706TIP3    H268610   5.806   2.726  15.202  0.3242 -1.0827 -0.2282
15707TIP3   OH268611   3.757   0.365   5.296 -0.0963 -0.5806 -0.9021
15707TIP3    H168612   3.765   0.270   5.286 -0.5273 -0.7055 -0.1029
15707TIP3    H268613   3.688   0.390   5.235 -0.6640 -0.9195 -0.4030
15708TIP3   OH268614   1.853   3.398  16.442  0.2209 -0.4564 -0.3909
15708TIP3    H168615   1.841   3.312  16.401 -0.1182  0.2993 -1.9083
15708TIP3    H268616   1.824   3.386  16.532 -1.7289 -1.4320 -1.1174
15709TIP3   OH268617   2.311   1.026  16.153  0.4973  0.0861  0.3263
15709TIP3    H168618   2.234   1.075  16.183  0.2489  0.2467 -0.5802
15709TIP3    H268619   2.289   0.934  16.168 -0.8435 -0.0284 -2.1628
15710TIP3   OH268620   5.800   3.449   0.783 -0.4596  0.0056  0.1171
15710TIP3    H168621   5.829   3.507   0.713  1.0081  1.5771  1.9736
15710TIP3    H268622   5.707   3.472   0.795 -0.7158 -0.2571 -1.2566
15711TIP3   OH268623   0.768   3.001   3.804 -0.3897 -0.0461  0.1598
15711TIP3    H168624   0.687   2.956   3.826 -0.5057  1.3121  2.6910
15711TIP3    H268625   0.813   2.941   3.745 -2.7817 -1.2429 -0.5065
15712TIP3   OH268626   2.890   5.869  17.035  0.3954 -0.1366 -0.5392
15712TIP3    H168627   2.830   5.922  17.088 -1.1119 -0.2328 -2.1160
15712TIP3    H268628   2.975   5.880  17.077 -0.4584  1.1528  0.8972
15713TIP3   OH268629   4.018   0.469   3.301 -0.0940  0.0520  0.0147
15713TIP3    H168630   4.029   0.562   3.323 -0.1648  0.1523 -0.3765
15713TIP3    H268631   4.018   0.425   3.386 -2.5326  0.6786  0.3819
15714TIP3   OH268632   2.570   4.021   1.575  0.0868 -0.1303  0.0815
15714TIP3    H168633   2.624   4.079   1.628  0.2946 -0.1753 -0.0771
15714TIP3    H268634   2.629   3.993   1.504 -0.1572 -0.1489 -0.1136
15715TIP3   OH268635   3.339   4.600   1.198  0.3276  0.2233 -0.1650
15715TIP3    H168636   3.374   4.526   1.248  0.5094  0.8663  0.6754
15715TIP3    H268637   3.304   4.560   1.118  0.7981 -0.7182  0.0856
15716TIP3   OH268638   3.189   2.342   6.033  0.0269 -0.3245 -0.1265
15716TIP3    H168639   3.158   2.430   6.011 -1.2742 -0.3861  1.4100
15716TIP3    H268640   3.111   2.287   6.026  0.5493 -1.1097  0.2591
15717TIP3   OH268641   4.229   2.219   5.607 -0.2187 -0.1224  0.0506
15717TIP3    H168642   4.139   2.197   5.582 -0.3276  0.1499  0.2037
15717TIP3    H268643   4.280   2.141   5.584 -0.5404 -0.3844  0.2299
15718TIP3   OH268644   0.249   2.279   4.857  0.3870 -0.1240  0.2410
15718TIP3    H168645   0.272   2.283   4.950 -0.6016 -1.4269  0.5619
15718TIP3    H268646   0.316   2.332   4.813  2.0310 -1.1353  1.4818
15719TIP3   OH268647   5.583   2.420  14.593  0.8157  0.0686  0.1283
15719TIP3    H168648   5.643   2.445  14.664  3.9659 -1.6284 -1.8319
15719TIP3    H268649   5.588   2.325  14.590 -0.8500  0.0093 -1.0587
15720TIP3   OH268650   0.656   1.907  13.017  0.5346  0.1038 -0.4169
15720TIP3    H168651   0.708   1.872  12.945  0.5168 -2.0635  0.5938
15720TIP3    H268652   0.697   1.871  13.095 -1.0834  0.2601  0.5088
15721TIP3   OH268653   2.024   5.591   5.684 -0.8340  0.8921  0.6632
15721TIP3    H168654   2.012   5.633   5.769  2.2744  1.8798  0.6954
15721TIP3    H268655   2.013   5.662   5.620 -3.4915  0.0917  0.1670
15722TIP3   OH268656   0.899   0.811  14.389 -0.5084  0.6315  0.3002
15722TIP3    H168657   0.850   0.893  14.396 -0.9832  0.3237  0.6164
15722TIP3    H268658   0.840   0.753  14.341 -0.9355 -0.1175  1.7198
15723TIP3   OH268659   1.391   6.124  16.351  0.9336 -0.0719  0.2851
15723TIP3    H168660   1.400   6.090  16.261  0.9358 -0.7865  0.5478
15723TIP3    H268661   1.316   6.076  16.386  0.3608  0.8778  0.3636
15724TIP3   OH268662   4.988   3.944   1.479  0.8476 -0.5155  0.1428
15724TIP3    H168663   4.960   4.028   1.442 -0.2877 -0.9115  0.0800
15724TIP3    H268664   4.961   3.879   1.415  1.2483 -0.9797  0.4412
15725TIP3   OH268665   6.737   2.924  16.364 -0.5784 -0.2721  0.2764
15725TIP3    H168666   6.802   2.920  16.294 -1.1409  1.7313 -0.4217
15725TIP3    H268667   6.667   2.865  16.335  0.0340 -0.8913  0.0515
15726TIP3   OH268668   6.341   4.493   0.056 -0.2082 -0.4908 -0.8623
15726TIP3    H168669   6.342   4.508  -0.039  2.2450  2.9662 -0.3779
15726TIP3    H268670   6.249   4.488   0.078 -0.8150 -3.3475 -3.6802
15727TIP3   OH268671   0.909   2.258  11.795  0.5505 -0.1526  0.2225
15727TIP3    H168672   0.940   2.168  11.782 -0.1181 -0.5955  1.4821
15727TIP3    H268673   0.840   2.249  11.861  1.2521  1.4339  1.1968
15728TIP3   OH268674   2.148   5.176  16.711 -0.2013  0.2299  0.0934
15728TIP3    H168675   2.158   5.259  16.756  2.2095  0.3728 -0.6491
15728TIP3    H268676   2.220   5.173  16.648  0.7552 -3.1211  1.2345
15729TIP3   OH268677   4.990   1.938  11.861  0.3152  0.2928 -0.0317
15729TIP3    H168678   4.973   1.936  11.955  0.2741  3.6572  0.0955
15729TIP3    H268679   4.904   1.927  11.820  0.1950 -0.0844  0.3191
15730TIP3   OH268680   6.186   2.211   3.007 -0.0511  0.3619  0.1404
15730TIP3    H168681   6.185   2.117   3.022 -0.1455  0.5236  1.1867
15730TIP3    H268682   6.248   2.223   2.936  2.2892 -0.2228  2.0044
15731TIP3   OH268683   2.972   4.226  14.996 -0.4191  0.6332  0.0245
15731TIP3    H168684   2.886   4.207  15.033 -0.5419  0.7656 -0.1889
15731TIP3    H268685   2.981   4.321  15.003 -0.1910  0.5942  0.2612
15732TIP3   OH268686   1.089   6.214   0.340 -0.0327  0.3641 -0.0497
15732TIP3    H168687   1.150   6.238   0.409 -1.1439 -0.4978  1.2501
15732TIP3    H268688   1.067   6.297   0.297  1.8529  0.7026 -0.3922
15733TIP3   OH268689   6.609   2.316  15.074 -0.5610 -0.4386  0.0214
15733TIP3    H168690   6.574   2.281  15.156  0.7095 -2.9621 -0.4343
15733TIP3    H268691   6.677   2.377  15.100  0.6802 -2.1485  0.8902
15734TIP3   OH268692   5.081   1.053  12.627  0.4851  0.1741 -0.2117
15734TIP3    H168693   5.084   1.051  12.723  3.1651 -3.4453 -0.2862
15734TIP3    H268694   5.165   1.090  12.601  0.7535 -1.0891 -1.1784
15735TIP3   OH268695   0.090   2.456  16.505 -0.5169 -0.0168 -0.2199
15735TIP3    H168696   0.176   2.441  16.465  0.1537 -1.3052  1.6434
15735TIP3    H268697   0.110   2.492  16.591 -1.8942  0.9185 -0.2771
15736TIP3   OH268698   5.230   3.092   4.864 -0.2872  0.1863  0.2372
15736TIP3    H168699   5.273   3.175   4.843  1.9023 -0.7350  0.8909
15736TIP3    H268700   5.172   3.112   4.937 -1.7941  1.6739 -1.3109
15737TIP3   OH268701   4.092   0.978  12.353  0.4892 -0.2219  0.3558
15737TIP3    H168702   4.156   1.019  12.411  0.6410  0.5743 -0.3679
15737TIP3    H268703   4.130   0.985  12.266  0.1123 -1.1230  0.1053
15738TIP3   OH268704   3.389   1.763  17.211  0.0146 -0.6880 -0.1435
15738TIP3    H168705   3.326   1.691  17.203  0.3399 -1.0469  0.4756
15738TIP3    H268706   3.339   1.834  17.252 -0.1162 -0.8018 -0.1060
15739TIP3   OH268707   1.947   4.482  10.436 -0.1095  0.2950  0.2543
15739TIP3    H168708   1.980   4.561  10.393  0.8253 -0.7745 -1.0156
15739TIP3    H268709   1.913   4.428  10.364 -1.0404 -0.3238  1.1507
15740TIP3   OH268710   5.479   0.284   4.362 -0.3225 -0.1002 -0.4352
15740TIP3    H168711   5.460   0.208   4.417 -1.1399  1.2358  1.1563
15740TIP3    H268712   5.572   0.275   4.341 -0.4751 -1.6754 -0.4977
15741TIP3   OH268713   3.085   3.952   6.715  0.0556  0.2215 -0.7501
15741TIP3    H168714   3.053   3.869   6.678  1.2383 -0.4527 -0.2694
15741TIP3    H268715   3.006   4.002   6.731 -0.5983 -0.1356 -2.6433
15742TIP3   OH268716   0.066   2.861   3.999  0.2310  0.1405 -0.2677
15742TIP3    H168717   0.161   2.859   4.001  0.2129 -0.4315  0.0487
15742TIP3    H268718   0.039   2.785   4.049 -0.3985  0.4587 -0.1176
15743TIP3   OH268719   0.119   6.776  13.969  0.6783  0.3137  0.3357
15743TIP3    H168720   0.196   6.753  13.917  1.8577  0.5385  1.9395
15743TIP3    H268721   0.102   6.698  14.023 -0.7954 -0.0834 -0.6650
15744TIP3   OH268722   0.371   0.118  14.003 -0.3410  0.0723 -0.0205
15744TIP3    H168723   0.293   0.170  13.984 -1.0671 -0.4552  1.4791
15744TIP3    H268724   0.371   0.109  14.098  0.4293 -1.6701 -0.1738
15745TIP3   OH268725   5.099   6.294   0.132 -0.1427 -0.2241  0.3710
15745TIP3    H168726   5.144   6.210   0.143  1.0726  0.1396 -1.5725
15745TIP3    H268727   5.047   6.304   0.212  0.4882 -2.3363  1.0803
15746TIP3   OH268728   4.867   3.069   2.097 -0.1630 -0.2948  0.4234
15746TIP3    H168729   4.822   3.136   2.148 -1.0677 -0.6932  0.1740
15746TIP3    H268730   4.798   3.033   2.040  0.6812 -0.3149 -0.5848
15747TIP3   OH268731   3.218   0.036  13.765 -0.1176 -0.1203 -0.0321
15747TIP3    H168732   3.312   0.044  13.782  0.8417  1.0329 -5.1588
15747TIP3    H268733   3.207  -0.054  13.735 -0.2773  0.3476 -1.3961
15748TIP3   OH268734   0.058   1.251   2.310  0.0032 -0.0847  0.0072
15748TIP3    H168735   0.085   1.191   2.379 -1.2023  0.5753  1.0740
15748TIP3    H268736   0.123   1.321   2.312 -0.0350 -0.0641  0.4664
15749TIP3   OH268737   0.617   2.268  16.015  0.0088  0.0333  0.4433
15749TIP3    H168738   0.593   2.210  16.086 -0.2371  0.6911  0.9049
15749TIP3    H268739   0.685   2.324  16.052  1.1148 -0.7590 -0.3637
15750TIP3   OH268740   2.209   3.906  14.451 -0.2130  0.1534  0.1599
15750TIP3    H168741   2.251   3.903  14.364 -0.7010 -0.1120 -0.0704
15750TIP3    H268742   2.191   3.998  14.466 -0.9352  0.1131 -0.4175
15751TIP3   OH268743   1.481   0.396  17.046 -0.2589  0.5638  0.0717
15751TIP3    H168744   1.395   0.436  17.031  0.3968  2.0911  0.3211
15751TIP3    H268745   1.536   0.468  17.078  1.2784 -0.2702 -0.6563
15752TIP3   OH268746   3.546   5.014   5.319 -0.3492 -0.1301 -0.3584
15752TIP3    H168747   3.612   5.045   5.257  0.5201  1.0892  1.1594
15752TIP3    H268748   3.503   4.941   5.274  2.6841 -1.5891 -0.9768
15753TIP3   OH268749   2.262   6.621   5.384  0.1086  0.0205  0.0711
15753TIP3    H168750   2.234   6.708   5.413 -0.1591 -0.4792  1.3272
15753TIP3    H268751   2.290   6.577   5.464 -1.9075 -1.8513 -0.2236
15754TIP3   OH268752   6.491   0.929  11.756 -0.4693 -0.0484 -0.3053
15754TIP3    H168753   6.481   1.014  11.715 -0.5234 -0.4466 -1.1150
15754TIP3    H268754   6.408   0.914  11.801 -1.3715 -0.7586 -2.1882
15755TIP3   OH268755   3.628   2.637  15.739 -0.4050  0.0782  0.2974
15755TIP3    H168756   3.625   2.720  15.692  0.5454 -0.4485 -0.7007
15755TIP3    H268757   3.693   2.652  15.809  1.7380 -0.6341 -1.4898
15756TIP3   OH268758   6.281   1.072  14.415 -0.5909 -0.2465  0.4968
15756TIP3    H168759   6.224   1.088  14.491 -0.0361  1.7039  0.5312
15756TIP3    H268760   6.343   1.145  14.417 -0.1395 -0.5732 -1.4464
15757TIP3   OH268761   1.019   1.550   0.097 -0.4302  0.2321 -0.4044
15757TIP3    H168762   0.934   1.579   0.128  0.3875  1.4027  0.7906
15757TIP3    H268763   1.050   1.488   0.164 -0.4802 -0.4625 -1.0081
15758TIP3   OH268764   5.779   5.206   4.746  0.5274 -0.2026  0.2251
15758TIP3    H168765   5.851   5.246   4.795  1.1639  0.0064 -0.8814
15758TIP3    H268766   5.810   5.201   4.656 -0.1498 -1.7487  0.0487
15759TIP3   OH268767   3.520   1.802   5.136  0.1524  0.1468 -0.3894
15759TIP3    H168768   3.425   1.811   5.136  0.0509 -0.9298 -0.1372
15759TIP3    H268769   3.548   1.845   5.217 -0.1221  0.4299 -0.4445
15760TIP3   OH268770   6.558   4.002  13.505 -0.3504  0.2039  0.3142
15760TIP3    H168771   6.539   4.086  13.463  0.9451  0.3430 -0.0454
15760TIP3    H268772   6.598   4.025  13.589 -0.1874 -0.0462  0.3071
15761TIP3   OH268773   2.914   4.108   3.211  0.5481  0.2300  0.1989
15761TIP3    H168774   2.908   4.200   3.187 -0.0530 -0.0681 -0.8280
15761TIP3    H268775   2.839   4.092   3.267 -0.5255 -0.1251 -1.3095
15762TIP3   OH268776   1.758   2.155   0.870  0.2462 -0.1135 -0.3717
15762TIP3    H168777   1.682   2.212   0.867  0.5530  0.2194 -2.6172
15762TIP3    H268778   1.723   2.069   0.891 -0.6307  0.1991 -0.5452
15763TIP3   OH268779   4.885   6.376  13.366 -0.1522 -0.0826 -0.4163
15763TIP3    H168780   4.957   6.409  13.311  2.2101  0.2113  2.7216
15763TIP3    H268781   4.876   6.442  13.435 -2.6358 -0.7501 -0.0733
15764TIP3   OH268782   4.013   0.754   5.657  0.4990  0.0120 -0.6122
15764TIP3    H168783   3.979   0.779   5.742  1.5740 -0.6247  0.0229
15764TIP3    H268784   4.065   0.675   5.674  1.3913  0.3422 -1.7136
15765TIP3   OH268785   1.703   2.634  17.234  0.1904  0.0835  0.4937
15765TIP3    H168786   1.625   2.689  17.247 -0.5779 -0.3462 -2.1675
15765TIP3    H268787   1.678   2.549  17.270 -0.8583 -0.2636 -1.0217
15766TIP3   OH268788   0.701   1.518   4.996  0.1221  0.0067  0.1879
15766TIP3    H168789   0.631   1.453   5.000 -0.8643  1.0904  0.8918
15766TIP3    H268790   0.731   1.515   4.905  0.9910 -2.3453  0.5373
15767TIP3   OH268791   1.423   3.857  11.211 -0.4014  0.2898  0.3815
15767TIP3    H168792   1.501   3.813  11.176 -0.5268  0.4000 -0.0343
15767TIP3    H268793   1.451   3.891  11.296  0.3075  1.2098 -0.2038
15768TIP3   OH268794   0.529   2.252   5.998 -0.0013 -0.3210 -0.3606
15768TIP3    H168795   0.582   2.330   6.015  0.6914 -0.4243 -1.9623
15768TIP3    H268796   0.566   2.185   6.055 -0.7293  0.5558  1.1830
15769TIP3   OH268797   1.235   3.611   0.654  0.2566 -0.8264 -0.1025
15769TIP3    H168798   1.266   3.544   0.594 -0.8842 -0.8122 -0.7180
15769TIP3    H268799   1.181   3.564   0.717 -0.1713 -0.5640 -0.2674
15770TIP3   OH268800   2.929   5.930  11.826 -0.0754 -0.2029  0.7773
15770TIP3    H168801   2.982   5.967  11.755 -0.8439  0.2517  0.4424
15770TIP3    H268802   2.839   5.955  11.805 -0.3620 -0.4820  1.6573
15771TIP3   OH268803   5.082   4.687   0.989 -0.3731 -0.3356 -0.6959
15771TIP3    H168804   5.165   4.725   0.960 -0.7655  0.1873 -1.1618
15771TIP3    H268805   5.097   4.593   0.989  0.0154 -0.2814 -1.4565
15772TIP3   OH268806   3.883   3.774   2.163  0.1383  0.1192  0.1363
15772TIP3    H168807   3.963   3.732   2.193  0.0354  0.5044  0.9674
15772TIP3    H268808   3.821   3.762   2.236 -0.6851 -0.5247 -0.6543
15773TIP3   OH268809   3.454   1.419  11.850 -0.1701 -0.1926  0.1671
15773TIP3    H168810   3.540   1.388  11.880 -0.8063 -1.8462  0.3313
15773TIP3    H268811   3.469   1.510  11.824  0.7588  0.8221  3.9669
15774TIP3   OH268812   0.605   2.622  12.005  0.3866 -0.2144 -0.0536
15774TIP3    H168813   0.524   2.592  11.966 -1.2427  1.4358  1.9221
15774TIP3    H268814   0.578   2.669  12.084  3.4002 -2.1556  2.3004
15775TIP3   OH268815   5.610   1.352  12.891  0.4604 -0.3312  0.0530
15775TIP3    H168816   5.624   1.352  12.796  0.7984 -0.3014  0.1016
15775TIP3    H268817   5.696   1.370  12.928  0.3385 -0.3908  0.3678
15776TIP3   OH268818   6.149   4.581   2.407 -0.3252 -0.3888  0.5925
15776TIP3    H168819   6.127   4.569   2.315  1.4961  0.5736  0.0278
15776TIP3    H268820   6.068   4.556   2.454 -1.5506 -0.0165 -1.2686
15777TIP3   OH268821   2.955   3.440  14.912 -0.3913  0.0686 -0.5255
15777TIP3    H168822   3.016   3.456  14.985 -1.7614  0.1185  0.6234
15777TIP3    H268823   2.976   3.508  14.848 -0.0708  0.8525  0.4031
15778TIP3   OH268824   6.751   3.475   2.116  0.6059  0.0282  0.2218
15778TIP3    H168825   6.831   3.527   2.127  1.9036 -2.1990  1.6888
15778TIP3    H268826   6.766   3.426   2.035 -0.4198  1.5611 -0.9124
15779TIP3   OH268827   5.527   3.510  13.927  0.2465  0.0216 -0.0177
15779TIP3    H168828   5.507   3.578  13.991 -0.3063  0.2792 -0.4578
15779TIP3    H268829   5.603   3.464  13.963 -0.1685  0.0522  0.9094
15780TIP3   OH268830   4.521   0.085  15.413  0.1125 -0.1867  0.1094
15780TIP3    H168831   4.500   0.177  15.430  1.8461  0.2354  0.1113
15780TIP3    H268832   4.572   0.058  15.489  0.4142 -0.8711 -0.3380
15781TIP3   OH268833   3.124   5.358  12.481  0.6383 -0.6150  0.1075
15781TIP3    H168834   3.137   5.447  12.448 -2.9006 -0.1992 -0.3108
15781TIP3    H268835   3.105   5.307  12.402  1.6106 -1.5640  0.4765
15782TIP3   OH268836   0.026   0.145   3.146 -0.0854 -0.3635 -0.7063
15782TIP3    H168837   0.051   0.230   3.109 -0.1041 -0.2962 -0.5676
15782TIP3    H268838  -0.070   0.144   3.137 -0.0407 -0.5960 -1.1859
15783TIP3   OH268839   4.671   6.701   0.205  0.1429  0.0510 -0.0030
15783TIP3    H168840   4.639   6.628   0.259  1.3866 -0.0763  0.6052
15783TIP3    H268841   4.594   6.753   0.185 -0.7639 -1.4456 -0.4409
15784TIP3   OH268842   3.816   6.036   4.273 -0.3601 -1.0130  0.5832
15784TIP3    H168843   3.791   5.981   4.199 -2.1966 -0.0784  0.4925
15784TIP3    H268844   3.834   6.122   4.234 -2.1141 -0.3031  1.3110
15785TIP3   OH268845   0.108   1.559  16.758 -0.1151 -0.7738 -0.1541
15785TIP3    H168846   0.178   1.623  16.767 -0.0703 -0.6921 -1.0471
15785TIP3    H268847   0.106   1.512  16.841 -0.6966  0.9466  0.8161
15786TIP3   OH268848   3.959   4.061  16.982  0.1001  0.1267 -0.2681
15786TIP3    H168849   3.875   4.021  16.957  0.3691 -0.1771 -0.6848
15786TIP3    H268850   3.939   4.155  16.990 -0.2076  0.1014 -0.6964
15787TIP3   OH268851   5.629   3.654  13.361 -0.0132 -0.6551  0.1990
15787TIP3    H168852   5.610   3.640  13.454 -0.7924 -0.0994  0.1319
15787TIP3    H268853   5.723   3.639  13.353 -0.0074 -1.0853  1.0076
15788TIP3   OH268854   1.717   4.572  12.810 -0.5684  0.4619  0.0233
15788TIP3    H168855   1.767   4.495  12.839 -1.3087  0.0345  0.1851
15788TIP3    H268856   1.629   4.556  12.842 -1.0796  0.6633 -1.2470
15789TIP3   OH268857   5.220   0.175   4.348 -0.3746 -0.3404  0.0592
15789TIP3    H168858   5.303   0.182   4.300  0.0173 -3.4095  0.1553
15789TIP3    H268859   5.246   0.162   4.439 -1.0369  1.1639  0.4805
15790TIP3   OH268860   1.149   2.064   1.021 -0.1430 -0.4957 -0.6398
15790TIP3    H168861   1.101   1.987   1.050 -0.4148  0.0159  0.2960
15790TIP3    H268862   1.160   2.052   0.927 -1.4840 -0.9690 -0.7465
15791TIP3   OH268863   3.329   1.373  13.413  0.2315  0.5823 -0.2012
15791TIP3    H168864   3.254   1.375  13.353  0.2862  1.6199 -0.2419
15791TIP3    H268865   3.360   1.464  13.416 -0.7073  0.8876  2.5424
15792TIP3   OH268866   5.872   2.377   0.614  0.3856 -0.7405  0.0267
15792TIP3    H168867   5.915   2.387   0.529  0.9388  0.5156  0.4474
15792TIP3    H268868   5.779   2.384   0.594  0.5381  0.2007 -0.4025
15793TIP3   OH268869   6.759   6.082   5.434 -0.4428 -0.1370 -0.1596
15793TIP3    H168870   6.689   6.123   5.383  0.4111  0.5965 -0.7653
15793TIP3    H268871   6.811   6.034   5.369  0.7435  0.9279 -0.0260
15794TIP3   OH268872   4.887   1.465   2.575  0.1623  0.3897  0.0628
15794TIP3    H168873   4.925   1.525   2.511 -1.2661  2.7194  1.3157
15794TIP3    H268874   4.952   1.461   2.645  0.3172  0.3753 -0.0813
15795TIP3   OH268875   6.748   2.031   4.909 -0.2463 -0.6627  0.2956
15795TIP3    H168876   6.664   2.046   4.953 -0.6321  1.0640 -0.9834
15795TIP3    H268877   6.802   1.988   4.975 -1.9526 -1.2803  1.3205
15796TIP3   OH268878   6.758   1.894   1.171 -0.2143  0.2750  0.0195
15796TIP3    H168879   6.839   1.943   1.175 -0.5130  0.8252 -0.5546
15796TIP3    H268880   6.696   1.952   1.127 -1.1923  0.2349  1.2946
15797TIP3   OH268881   4.589   4.029   3.921 -0.1036  0.4873 -0.3212
15797TIP3    H168882   4.627   3.943   3.935  0.3750  0.5689 -1.0785
15797TIP3    H268883   4.633   4.062   3.842 -1.7034  0.6091 -1.1654
15798TIP3   OH268884   6.303   6.291   1.751 -0.0765 -0.6492 -0.1973
15798TIP3    H168885   6.238   6.335   1.696  1.8190 -0.0117 -1.9856
15798TIP3    H268886   6.279   6.315   1.840 -0.9438  1.4340 -0.9586
15799TIP3   OH268887   2.823   3.522   5.885  0.1612 -0.0575  0.1010
15799TIP3    H168888   2.804   3.450   5.945 -0.4792 -0.1559 -0.2128
15799TIP3    H268889   2.830   3.600   5.940 -0.5095 -0.1339  0.2859
15800TIP3   OH268890   0.553   1.857  16.213 -0.3869  0.3215 -0.2977
15800TIP3    H168891   0.603   1.780  16.241  1.6102  1.8506  0.4735
15800TIP3    H268892   0.546   1.848  16.118 -0.6607 -1.0975 -0.1471
15801TIP3   OH268893   1.754   0.214  11.634 -0.2108  0.4467  0.0614
15801TIP3    H168894   1.800   0.133  11.652  1.3091  1.7075  2.0823
15801TIP3    H268895   1.684   0.217  11.699  0.2298  1.1224  0.5113
15802TIP3   OH268896   5.990   1.109   6.342 -0.0947  0.3794  0.6679
15802TIP3    H168897   5.963   1.031   6.390 -1.3013  1.5836  1.9684
15802TIP3    H268898   6.074   1.133   6.381  0.5076 -0.5263 -0.0536
15803TIP3   OH268899   4.270   3.803   5.761 -0.4866  0.3276  0.7180
15803TIP3    H168900   4.194   3.853   5.732  1.8197  2.2671 -2.1530
15803TIP3    H268901   4.305   3.853   5.835  1.4397  2.7416 -1.7409
15804TIP3   OH268902   0.735   0.233   2.315  0.2731 -0.4728 -0.1855
15804TIP3    H168903   0.705   0.161   2.369  1.4143 -1.0933 -0.3597
15804TIP3    H268904   0.655   0.279   2.289 -0.3235 -0.3830  1.6943
15805TIP3   OH268905   5.699   1.312  13.421  0.4078  0.5185 -0.3541
15805TIP3    H168906   5.668   1.344  13.337  2.4542 -0.6552 -1.6010
15805TIP3    H268907   5.630   1.255  13.453 -0.4194  1.0441 -1.1994
15806TIP3   OH268908   3.953   3.612   1.451  0.2343 -0.2989  0.3558
15806TIP3    H168909   3.899   3.557   1.395  0.9045 -1.2485  0.6339
15806TIP3    H268910   3.917   3.600   1.539 -0.1113  0.3137  0.2966
15807TIP3   OH268911   6.490   3.879  16.979 -0.0887 -0.1083 -0.1337
15807TIP3    H168912   6.475   3.812  17.046 -1.7475 -0.0834 -0.4493
15807TIP3    H268913   6.437   3.954  17.008  0.7372  0.6036 -0.4565
15808TIP3   OH268914   3.519   1.204   3.479 -0.1385  0.2469  0.3210
15808TIP3    H168915   3.435   1.183   3.440  0.6037  0.1156 -1.2375
15808TIP3    H268916   3.529   1.299   3.467  0.5249  0.0547 -0.6962
15809TIP3   OH268917   3.136   2.031  13.040  0.1314 -0.2900  0.4853
15809TIP3    H168918   3.107   1.971  12.972 -0.3075  0.0692  0.3575
15809TIP3    H268919   3.143   2.115  12.997  0.2378 -0.1389  0.7928
15810TIP3   OH268920   3.264   0.806   1.801 -0.3022  0.1034 -0.2109
15810TIP3    H168921   3.193   0.748   1.829 -0.5535  1.5227  2.2887
15810TIP3    H268922   3.344   0.761   1.829 -0.4298  0.2494  0.4104
15811TIP3   OH268923   1.296   4.101  13.401  0.5399 -0.4376 -0.0441
15811TIP3    H168924   1.311   4.013  13.366  0.7276  0.0885 -1.3132
15811TIP3    H268925   1.207   4.098  13.435 -0.5186 -0.3005 -2.6954
15812TIP3   OH268926   3.491   5.041  16.151  0.4350 -0.0115  0.1341
15812TIP3    H168927   3.535   5.086  16.079 -0.2118 -0.2358 -0.3976
15812TIP3    H268928   3.413   5.094  16.169  0.2983 -0.2680  0.2969
15813TIP3   OH268929   5.640   6.169   4.295 -0.1778 -0.5175  0.0807
15813TIP3    H168930   5.623   6.202   4.383  1.2621 -0.8527  0.5031
15813TIP3    H268931   5.721   6.119   4.304  0.6689  0.4860 -1.6926
15814TIP3   OH268932   0.516   2.959  16.720  0.4050 -1.1721  0.2337
15814TIP3    H168933   0.583   2.963  16.787 -1.2337  0.2229  1.8404
15814TIP3    H268934   0.487   2.868  16.721  1.9970 -1.6998 -0.2352
15815TIP3   OH268935   1.518   3.047  11.417 -0.5610 -0.2067 -0.5044
15815TIP3    H168936   1.535   2.960  11.453 -2.2467 -0.8306 -1.1596
15815TIP3    H268937   1.590   3.101  11.449 -0.1291 -1.5666  0.8683
15816TIP3   OH268938   5.850   3.004  14.861  0.4665 -0.5585  0.0420
15816TIP3    H168939   5.774   3.023  14.806  0.1525 -1.5168  0.1285
15816TIP3    H268940   5.886   3.090  14.883 -0.1914 -0.1222 -0.5595
15817TIP3   OH268941   3.390   1.740   3.752  0.1263  0.2414  0.3811
15817TIP3    H168942   3.372   1.653   3.717 -1.6900  0.8443 -0.2426
15817TIP3    H268943   3.325   1.752   3.821  0.6561  0.9335  0.7677
15818TIP3   OH268944   2.451   0.426   0.309 -0.7606 -0.1925 -0.1301
15818TIP3    H168945   2.502   0.471   0.241  1.3151  3.5469  3.6749
15818TIP3    H268946   2.517   0.384   0.364 -2.3199 -2.0533  0.3503
15819TIP3   OH268947   4.200   6.480  16.066  0.9675  0.1076  0.0119
15819TIP3    H168948   4.178   6.387  16.064  0.1386  0.2451  1.8305
15819TIP3    H268949   4.162   6.515  15.986 -0.5550 -0.7413  0.3398
15820TIP3   OH268950   5.785   2.738  14.862 -0.3291  0.2178 -0.4537
15820TIP3    H168951   5.816   2.828  14.868 -1.9896  0.8803 -1.2734
15820TIP3    H268952   5.721   2.740  14.791 -1.5274 -1.2564  0.5464
15821TIP3   OH268953   0.885   4.515  15.290 -0.4126 -0.6310  0.4690
15821TIP3    H168954   0.940   4.439  15.310  1.6726  0.8719  0.5954
15821TIP3    H268955   0.898   4.574  15.364 -1.2481  0.2902 -0.1095
15822TIP3   OH268956   3.158   6.414   3.187 -0.4390 -0.5912 -0.1095
15822TIP3    H168957   3.122   6.435   3.273  1.0296 -1.2750  0.6853
15822TIP3    H268958   3.234   6.359   3.205  0.1671 -0.3540 -1.8161
15823TIP3   OH268959   6.652   3.008   4.455  0.3192 -0.0605 -0.0640
15823TIP3    H168960   6.712   2.955   4.403 -0.7617 -0.5898 -0.7839
15823TIP3    H268961   6.565   2.987   4.421 -0.2372  1.1248  0.5824
15824TIP3   OH268962   0.130   2.827  10.522 -0.6376  0.7173  0.0396
15824TIP3    H168963   0.138   2.899  10.584 -1.0407  1.5791 -0.8848
15824TIP3    H268964   0.218   2.791  10.515 -0.5475  0.7508  0.9367
15825TIP3   OH268965   5.031   5.007  10.697 -0.0121  0.4138  0.1101
15825TIP3    H168966   5.041   4.926  10.747 -0.3670  0.4521  0.2452
15825TIP3    H268967   4.952   4.992  10.644 -1.1581  1.3934  1.5162
15826TIP3   OH268968   3.161   4.016   4.608 -0.5392 -0.4496  0.7882
15826TIP3    H168969   3.213   4.027   4.528 -2.1209  2.1943  0.0583
15826TIP3    H268970   3.070   4.019   4.578 -1.1706  1.6854  2.7883
15827TIP3   OH268971   0.030   4.079   6.091  0.1893  0.0583  0.1323
15827TIP3    H168972  -0.048   4.071   6.146  0.1266  0.7023  0.1423
15827TIP3    H268973   0.008   4.030   6.012  0.0673 -0.4028  0.4503
15828TIP3   OH268974   3.701   1.939   1.426  0.1337 -0.4411  0.5410
15828TIP3    H168975   3.680   1.942   1.519  2.1820  0.9041  0.9849
15828TIP3    H268976   3.688   2.029   1.396 -0.7995 -0.9245 -0.5595
15829TIP3   OH268977   5.900   2.391   3.699 -0.1720 -0.1416 -0.1191
15829TIP3    H168978   5.840   2.342   3.644  0.1026 -0.3250 -0.2582
15829TIP3    H268979   5.881   2.483   3.681 -1.8621 -0.1603  1.4062
15830TIP3   OH268980   5.962   3.989   1.013 -0.3268  0.1520 -0.4051
15830TIP3    H168981   6.027   4.024   1.074 -0.6095 -0.1795  0.0898
15830TIP3    H268982   5.961   3.895   1.031  0.1613 -0.0582 -1.4699
15831TIP3   OH268983   2.316   2.628   2.276  0.6218 -0.1591 -0.3161
15831TIP3    H168984   2.348   2.622   2.366 -0.8869  2.7231  0.4677
15831TIP3    H268985   2.394   2.649   2.224  1.6234 -2.5208  0.1547
15832TIP3   OH268986   0.050   4.212   4.331  0.4722  0.1557 -0.3538
15832TIP3    H168987   0.084   4.260   4.255  0.3929 -0.3838 -0.7314
15832TIP3    H268988   0.123   4.157   4.358  1.2686  1.9877  1.3585
15833TIP3   OH268989   4.741   2.743   3.549 -0.2394 -0.3670 -1.1632
15833TIP3    H168990   4.695   2.810   3.498 -0.3314  0.5676  0.1257
15833TIP3    H268991   4.717   2.762   3.639  0.8596 -1.2959 -0.6751
15834TIP3   OH268992   1.040   4.918  13.856 -0.2754 -0.0189 -0.2606
15834TIP3    H168993   1.049   4.825  13.834  0.7279  0.2985 -1.2043
15834TIP3    H268994   1.039   4.920  13.952  2.6178 -0.7458 -0.1841
15835TIP3   OH268995   2.060   1.806   2.597 -0.0074  0.1545  0.0837
15835TIP3    H168996   2.010   1.736   2.638 -1.0564  0.9569  0.1781
15835TIP3    H268997   2.058   1.878   2.660  0.8630  0.3672 -0.1175
15836TIP3   OH268998   2.331   3.005   0.295  0.0123 -0.5226 -0.0889
15836TIP3    H168999   2.253   2.966   0.256  0.7324 -1.7785 -0.3019
15836TIP3    H269000   2.388   2.931   0.315  0.6791  0.2955  1.1124
15837TIP3   OH269001   1.758   1.186  17.124  0.1526  0.2337  0.1204
15837TIP3    H169002   1.812   1.209  17.200 -0.6600 -0.7233  0.9965
15837TIP3    H269003   1.735   1.094  17.138 -0.1496  0.1029 -1.1980
15838TIP3   OH269004   6.165   4.934   4.437  0.1754 -0.1459  0.2030
15838TIP3    H169005   6.213   4.969   4.362  0.7463 -2.0376 -0.3414
15838TIP3    H269006   6.221   4.953   4.512  0.6955 -0.2685 -0.1473
15839TIP3   OH269007   4.723   5.214  15.898 -0.0936  0.0706  0.0529
15839TIP3    H169008   4.683   5.142  15.850  0.8760 -0.4162 -0.0430
15839TIP3    H269009   4.817   5.206  15.879  0.0927  0.9615  0.5690
15840TIP3   OH269010   6.260   5.466  15.484  0.4083  0.8835 -0.3237
15840TIP3    H169011   6.185   5.494  15.535  0.6038  0.4227  0.2247
15840TIP3    H269012   6.336   5.495  15.535  0.6199 -0.8650  0.4152
15841TIP3   OH269013   1.500   3.140   1.670  0.6835 -0.1483 -0.0901
15841TIP3    H169014   1.503   3.180   1.756 -1.3831 -1.1772  0.4981
15841TIP3    H269015   1.522   3.210   1.609  0.1959  1.0857  1.1414
15842TIP3   OH269016   6.237   0.782   3.393 -0.1432 -0.6702 -0.0559
15842TIP3    H169017   6.312   0.840   3.382 -1.4246  1.0711  0.0529
15842TIP3    H269018   6.246   0.746   3.481 -1.1046  2.0682  1.2277
15843TIP3   OH269019   5.738   2.088  13.674  0.0814  0.0629 -0.2671
15843TIP3    H169020   5.710   2.020  13.736  0.3341  0.9420  0.8321
15843TIP3    H269021   5.831   2.099  13.692  0.1278  0.4021 -0.7278
15844TIP3   OH269022   1.948   3.892  16.538 -0.3657 -0.4193  0.4064
15844TIP3    H169023   1.989   3.807  16.552 -0.1127 -0.0621  1.9121
15844TIP3    H269024   1.998   3.952  16.592 -0.2073  0.8024 -1.0499
15845TIP3   OH269025   2.523   0.522  12.038  0.3886  0.0951 -0.0007
15845TIP3    H169026   2.550   0.474  11.959 -0.7165  1.2228 -1.0895
15845TIP3    H269027   2.428   0.519  12.037  0.3790 -0.8699  1.9362
15846TIP3   OH269028   5.004   4.326  14.270 -0.4258  0.4909  0.2797
15846TIP3    H169029   5.083   4.375  14.245 -1.8381  1.9627 -1.4516
15846TIP3    H269030   4.954   4.318  14.189 -2.3469  0.1324  1.4542
15847TIP3   OH269031   6.648   6.097  14.182 -0.2390 -0.1387 -0.2284
15847TIP3    H169032   6.716   6.045  14.227 -0.5911 -0.2218  0.2135
15847TIP3    H269033   6.635   6.052  14.099  0.9517  0.4347 -0.7411
15848TIP3   OH269034   2.346   6.576  16.036 -0.6275 -0.0795  0.6578
15848TIP3    H169035   2.391   6.637  15.979 -1.0517  0.3852  0.8225
15848TIP3    H269036   2.289   6.525  15.977  0.1719 -0.7281  0.4402
15849TIP3   OH269037   0.592   3.764   0.310 -0.6333 -0.0580  0.2079
15849TIP3    H169038   0.677   3.803   0.289 -0.9911 -0.3664 -1.8491
15849TIP3    H269039   0.549   3.830   0.364  0.7368  0.2775  0.9295
15850TIP3   OH269040   4.725   5.509   1.325 -0.1214  0.5152  0.3935
15850TIP3    H169041   4.645   5.472   1.287 -0.1163  0.5439  0.3556
15850TIP3    H269042   4.718   5.489   1.418 -2.6725  4.9845  1.3141
15851TIP3   OH269043   2.825   2.811  11.261 -0.1602 -0.7118 -0.4131
15851TIP3    H169044   2.784   2.783  11.343  2.1060 -0.5302  0.8109
15851TIP3    H269045   2.781   2.893  11.239 -0.6950 -0.7056  0.6858
15852TIP3   OH269046   6.407   4.299   1.094 -0.2487 -0.1669 -0.5696
15852TIP3    H169047   6.317   4.331   1.087 -0.7939 -0.9207  2.3623
15852TIP3    H269048   6.435   4.287   1.004 -3.3902 -0.7542 -1.5347
15853TIP3   OH269049   0.893   2.566  14.695  0.2521 -0.1738 -0.5466
15853TIP3    H169050   0.829   2.503  14.663 -0.0935  1.8804 -4.0670
15853TIP3    H269051   0.914   2.535  14.784 -2.9595 -2.8433 -0.6242
15854TIP3   OH269052   3.931   5.304   3.830  0.2126  0.8176 -0.3072
15854TIP3    H169053   3.941   5.273   3.920 -2.1796  0.8087  0.0091
15854TIP3    H269054   4.018   5.297   3.791  0.9867 -0.4622  1.6032
15855TIP3   OH269055   4.525   5.651   5.691  0.4186 -0.2359  0.6427
15855TIP3    H169056   4.458   5.680   5.630  2.1434  0.4106 -0.9962
15855TIP3    H269057   4.527   5.556   5.681 -0.0019 -0.2224  0.4326
15856TIP3   OH269058   0.224   4.152   2.103 -0.1611 -0.7198 -0.6478
15856TIP3    H169059   0.298   4.209   2.122 -0.6653  0.2743 -1.6049
15856TIP3    H269060   0.160   4.169   2.172  0.3629 -1.3488 -0.0006
15857TIP3   OH269061   2.259   0.938   5.400 -0.2409  0.3081  0.0116
15857TIP3    H169062   2.175   0.984   5.409 -1.2076 -1.3472 -0.3749
15857TIP3    H269063   2.283   0.951   5.308 -1.2551 -1.1836 -0.4794
15858TIP3   OH269064   4.898   4.295   2.542 -0.0675  0.0016  0.5294
15858TIP3    H169065   4.902   4.293   2.637  1.3764  0.6313  0.4835
15858TIP3    H269066   4.941   4.377   2.517  0.9756 -0.9053 -0.7304
15859TIP3   OH269067   5.240   3.513  16.734 -0.0309 -0.2582 -0.0437
15859TIP3    H169068   5.220   3.606  16.748 -0.3329  0.0124 -2.1266
15859TIP3    H269069   5.162   3.478  16.691  0.4011 -1.3087  0.0257
15860TIP3   OH269070   1.290   2.443   0.992  0.3480  0.1781  0.0413
15860TIP3    H169071   1.246   2.373   1.040  0.9111 -0.6234 -0.6095
15860TIP3    H269072   1.289   2.517   1.053 -3.0208  0.6106 -0.3988
15861TIP3   OH269073   3.076   1.583  16.560 -0.1142  0.4641 -0.2418
15861TIP3    H169074   2.981   1.577  16.556 -0.3921  2.3132  2.3553
15861TIP3    H269075   3.101   1.619  16.475 -1.5750 -1.4661 -1.5253
15862TIP3   OH269076   1.696   3.767   2.749 -0.8766 -0.7346  0.1625
15862TIP3    H169077   1.787   3.754   2.777 -1.0156  0.9937  1.4822
15862TIP3    H269078   1.666   3.679   2.727  0.9612 -1.4047  0.1677
15863TIP3   OH269079   4.094   5.418  13.392 -0.0773 -0.4966 -0.1582
15863TIP3    H169080   4.006   5.423  13.355 -0.6430 -1.8812  0.9480
15863TIP3    H269081   4.151   5.453  13.323 -1.5653  1.2858 -0.5298
15864TIP3   OH269082   0.112   3.990  13.849  0.0447 -0.1137  0.2145
15864TIP3    H169083   0.153   4.034  13.923 -0.9047 -0.3876  0.9163
15864TIP3    H269084   0.163   3.910  13.837  0.2294 -0.0469  0.5468
15865TIP3   OH269085   1.439   6.629  15.329 -0.0579  0.2699  0.3818
15865TIP3    H169086   1.490   6.589  15.258 -1.6385 -0.7843 -0.1804
15865TIP3    H269087   1.431   6.721  15.304  0.9157  0.2827  0.0915
15866TIP3   OH269088   3.666   4.521  11.683  0.0902 -0.1134  0.7337
15866TIP3    H169089   3.687   4.595  11.740 -0.2849  0.5499  0.0051
15866TIP3    H269090   3.747   4.505  11.633 -0.1536  0.4480  0.1643
15867TIP3   OH269091   4.821   1.262  14.655 -0.0793  0.0787 -0.3460
15867TIP3    H169092   4.893   1.300  14.705 -0.2953  1.8803 -1.3407
15867TIP3    H269093   4.756   1.333  14.649 -0.5561 -0.4757 -2.1352
15868TIP3   OH269094   3.613   6.025   6.456 -0.7121  0.0928  0.2856
15868TIP3    H169095   3.546   5.959   6.441 -2.6730  1.9086  0.9226
15868TIP3    H269096   3.586   6.100   6.402  2.6623 -0.3527 -2.1895
15869TIP3   OH269097   1.888   0.248   2.889 -0.0317  0.1678 -0.1856
15869TIP3    H169098   1.870   0.158   2.917 -1.2272  0.7561  0.9997
15869TIP3    H269099   1.802   0.285   2.869  0.5277  0.7870 -1.5043
15870TIP3   OH269100   4.704   3.092  17.094 -0.0130 -0.6168  0.2507
15870TIP3    H169101   4.781   3.047  17.059 -0.7333 -2.1983  0.6565
15870TIP3    H269102   4.678   3.039  17.170 -1.3816  0.0046  0.2308
15871TIP3   OH269103   0.295   0.024   4.847  0.2462 -0.1397  0.5708
15871TIP3    H169104   0.277   0.073   4.927  2.7253  0.2352  0.9146
15871TIP3    H269105   0.381   0.054   4.819 -0.4844 -0.4460 -2.1207
15872TIP3   OH269106   1.672   0.459   1.698 -0.4281 -0.0317  0.0018
15872TIP3    H169107   1.766   0.451   1.717 -0.1387  0.0626 -1.3401
15872TIP3    H269108   1.630   0.407   1.767  0.4976  1.3167  1.6220
15873TIP3   OH269109   5.052   2.593   1.689 -0.1077  0.6211  0.4685
15873TIP3    H169110   5.079   2.667   1.744 -2.4078  0.4898  1.8522
15873TIP3    H269111   5.002   2.537   1.748 -2.0674  0.1420 -1.6004
15874TIP3   OH269112   4.425   2.710  13.692 -0.0421  0.0219  0.0393
15874TIP3    H169113   4.457   2.748  13.774  1.8245  1.7127 -1.4286
15874TIP3    H269114   4.331   2.730  13.691  0.1356  0.9457  1.2466
15875TIP3   OH269115   2.451   0.584   3.174  0.3754 -0.1034  0.2700
15875TIP3    H169116   2.360   0.611   3.192  0.5062 -0.7043  1.9216
15875TIP3    H269117   2.494   0.665   3.145 -0.8301  0.0578 -1.1133
15876TIP3   OH269118   1.714   1.239  14.836  0.2348  0.8702  0.5617
15876TIP3    H169119   1.715   1.227  14.931 -0.2651  2.5044  0.7924
15876TIP3    H269120   1.671   1.160  14.803 -0.4491  0.7154  1.7630
15877TIP3   OH269121   4.249   2.472   4.897  0.2246  0.6598 -0.2205
15877TIP3    H169122   4.215   2.423   4.972  0.3383  2.2354  0.8786
15877TIP3    H269123   4.251   2.408   4.826 -0.5244 -0.6827  0.9379
15878TIP3   OH269124   5.128   4.365   0.962  0.5229 -0.3589  0.6253
15878TIP3    H169125   5.162   4.332   1.044  0.7575  1.8706  1.4664
15878TIP3    H269126   5.056   4.305   0.939  1.9670 -2.3501  1.2175
15879TIP3   OH269127   5.687   0.269   3.428  0.3153  0.0033 -0.1958
15879TIP3    H169128   5.625   0.201   3.403  0.9519 -1.3320  1.7068
15879TIP3    H269129   5.743   0.280   3.352  0.5526 -2.0279 -0.3301
15880TIP3   OH269130   2.905   0.543   4.615  0.5049 -0.1228  0.0946
15880TIP3    H169131   2.868   0.526   4.528 -2.7280  1.4435  1.0879
15880TIP3    H269132   2.945   0.630   4.607  0.8120 -0.2712  0.0015
15881TIP3   OH269133   2.942   1.276   0.644  0.3175 -0.0927 -0.7259
15881TIP3    H169134   2.877   1.284   0.574 -0.5105 -0.7515 -0.0557
15881TIP3    H269135   2.910   1.204   0.698  1.0420  0.2822  0.2263
15882TIP3   OH269136   5.741   4.023  11.408 -0.0570  0.1264 -0.7042
15882TIP3    H169137   5.711   4.112  11.390  1.7142  0.6384 -1.2343
15882TIP3    H269138   5.667   3.967  11.383 -2.3600  1.5658  2.5193
15883TIP3   OH269139   2.774   3.933  15.528  0.2859  0.3623 -0.0895
15883TIP3    H169140   2.741   3.870  15.592  4.3148 -0.2334  1.5685
15883TIP3    H269141   2.755   3.892  15.443 -1.6775 -0.6569  0.8006
15884TIP3   OH269142   5.267   0.704   2.344  0.5240 -0.1618  0.1242
15884TIP3    H169143   5.337   0.763   2.372  0.5190 -0.7520  1.4195
15884TIP3    H269144   5.272   0.631   2.405 -1.4818 -0.0138  0.4904
15885TIP3   OH269145   4.544   3.405   5.322  0.5976  0.1151  0.1716
15885TIP3    H169146   4.467   3.354   5.345  1.6769 -0.7226  2.0576
15885TIP3    H269147   4.536   3.485   5.373 -0.2445  1.1221 -1.5063
15886TIP3   OH269148   1.534   1.839  17.094 -0.2267 -0.2872  0.0850
15886TIP3    H169149   1.563   1.879  17.012  1.2432  0.3361  0.8884
15886TIP3    H269150   1.545   1.745  17.080 -1.5871 -0.2897 -1.0249
15887TIP3   OH269151   2.245   0.796   0.313  0.4412 -0.2977 -0.3861
15887TIP3    H169152   2.228   0.718   0.365  0.6030 -0.1689 -0.1397
15887TIP3    H269153   2.168   0.852   0.327  1.3264  0.5441  1.2057
15888TIP3   OH269154   2.483   3.315  11.789 -0.4736  0.5520  0.0796
15888TIP3    H169155   2.469   3.267  11.870 -0.4834  0.4183 -0.0013
15888TIP3    H269156   2.475   3.250  11.720  1.0288  0.3703  0.0612
15889TIP3   OH269157   1.804   1.614   0.106 -0.0071 -0.4131 -0.3008
15889TIP3    H169158   1.751   1.689   0.079  0.5483 -0.2771 -1.0169
15889TIP3    H269159   1.768   1.589   0.191  1.5964  2.4394  1.3042
15890TIP3   OH269160   2.298   6.418  14.714 -0.5425  0.3111 -0.0429
15890TIP3    H169161   2.231   6.363  14.755 -0.3382 -0.8236 -1.1746
15890TIP3    H269162   2.340   6.360  14.650  0.8390  1.3027 -0.0633
15891TIP3   OH269163   6.540   5.298   4.300  0.3207  0.4838 -0.3554
15891TIP3    H169164   6.562   5.212   4.263 -1.7735  0.5845 -1.9092
15891TIP3    H269165   6.612   5.316   4.361  1.3373 -1.8953 -0.7630
15892TIP3   OH269166   3.124   2.168  12.141  0.5217 -0.1157 -0.6136
15892TIP3    H169167   3.128   2.148  12.048  0.7291 -1.2549 -0.3709
15892TIP3    H269168   3.210   2.142  12.175  0.5637  0.5845 -0.1539
15893TIP3   OH269169   4.967   0.575  12.933 -0.1365  0.4357 -0.5829
15893TIP3    H169170   4.941   0.538  13.017 -1.0761  0.5274 -0.8370
15893TIP3    H269171   4.914   0.653  12.924 -0.5331  0.0506 -1.5863
15894TIP3   OH269172   1.662   5.804   4.784  0.5839  0.4962 -0.5460
15894TIP3    H169173   1.602   5.802   4.858 -0.8904 -0.5549 -1.7420
15894TIP3    H269174   1.640   5.884   4.736  0.9243  0.7028 -0.3633
15895TIP3   OH269175   2.310   3.155   5.278  0.3243  0.0343 -0.1566
15895TIP3    H169176   2.398   3.159   5.315  0.5817  0.7150 -0.8176
15895TIP3    H269177   2.313   3.083   5.216  0.8917  1.0583 -1.3506
15896TIP3   OH269178   6.006   5.020   3.892 -0.4139  0.2062 -0.3131
15896TIP3    H169179   6.014   5.045   3.801  0.5619 -1.5724 -0.7425
15896TIP3    H269180   5.980   4.927   3.890 -1.4467  0.4350  1.1979
15897TIP3   OH269181   2.314   4.843  10.275 -0.9990  0.3060  0.2788
15897TIP3    H169182   2.292   4.899  10.349 -2.2354  1.4025 -0.9136
15897TIP3    H269183   2.298   4.754  10.307 -1.1722  0.7403  1.4293
15898TIP3   OH269184   4.882   0.260   3.873 -0.5559 -0.3870 -0.3899
15898TIP3    H169185   4.949   0.288   3.810  0.9491 -3.3870 -0.2117
15898TIP3    H269186   4.804   0.244   3.821 -0.5208  1.0613 -0.9034
15899TIP3   OH269187   2.419   0.821  12.491 -0.2052 -0.5124  0.1444
15899TIP3    H169188   2.383   0.836  12.403 -0.9479 -0.2154  0.4899
15899TIP3    H269189   2.483   0.752  12.480 -0.9351 -1.0915 -0.4857
15900TIP3   OH269190   2.634   2.351   3.074  0.9086 -0.0670  0.1987
15900TIP3    H169191   2.560   2.308   3.117  0.3924  0.1097 -0.5148
15900TIP3    H269192   2.710   2.299   3.101  0.3254 -1.2553 -0.4144
15901TIP3   OH269193   5.197   0.046   3.444  0.2890 -0.2469  0.2023
15901TIP3    H169194   5.139   0.069   3.517  0.7548 -0.6609  0.6984
15901TIP3    H269195   5.246   0.127   3.428 -1.2673  0.4987 -1.0252
15902TIP3   OH269196   2.237   4.941  13.980 -0.2527  0.1656  0.0477
15902TIP3    H169197   2.300   4.875  13.950  1.2071 -0.0369  3.2945
15902TIP3    H269198   2.230   5.003  13.907  1.4835 -1.3817 -1.4888
15903TIP3   OH269199   4.530   4.606   2.593  0.4648  0.0427  0.1737
15903TIP3    H169200   4.509   4.685   2.543 -1.4064  0.2930  1.2889
15903TIP3    H269201   4.479   4.615   2.673  0.6756 -2.0338  0.5543
15904TIP3   OH269202   1.064   0.436  12.250 -0.6423  0.4636 -0.1140
15904TIP3    H169203   1.107   0.517  12.278 -1.6773  1.1485 -0.5116
15904TIP3    H269204   1.025   0.401  12.330  0.7457 -0.2412  0.2854
15905TIP3   OH269205   1.341   3.266   3.532  0.1548  0.0820 -0.1073
15905TIP3    H169206   1.386   3.292   3.612  1.8669 -0.0451 -1.0081
15905TIP3    H269207   1.336   3.170   3.538 -1.7719  0.2056  0.8934
15906TIP3   OH269208   2.509   1.291  10.608  0.2669 -0.2144  0.1759
15906TIP3    H169209   2.552   1.240  10.677 -0.6119 -1.6108 -0.2643
15906TIP3    H269210   2.525   1.241  10.528 -2.5539 -1.0975  0.0753
15907TIP3   OH269211   0.157   2.453   6.187  0.2619 -0.2771 -0.1261
15907TIP3    H169212   0.165   2.510   6.110  1.0675  0.0432  0.1993
15907TIP3    H269213   0.230   2.477   6.243  0.0052 -0.9147  0.4886
15908TIP3   OH269214   5.384   2.541  15.247 -0.1620  0.0077 -0.5323
15908TIP3    H169215   5.305   2.594  15.250  0.2767  0.6723 -0.6987
15908TIP3    H269216   5.453   2.601  15.219  0.0590 -0.9748 -2.2080
15909TIP3   OH269217   0.670   6.439   9.979 -0.0089 -0.0462 -0.2966
15909TIP3    H169218   0.755   6.482   9.965 -1.0298  1.4340 -2.0954
15909TIP3    H269219   0.643   6.468  10.066  0.7348  0.4805 -0.2320
15910TIP3   OH269220   3.058   0.702  12.646  0.6120  0.1947  0.1571
15910TIP3    H169221   3.105   0.655  12.577  2.0729  1.2303  0.4296
15910TIP3    H269222   2.968   0.709  12.613  1.0009 -0.4387 -1.0686
15911TIP3   OH269223   3.409   5.110   5.038  0.2063 -0.1372 -0.1849
15911TIP3    H169224   3.435   5.023   5.067 -0.7684  0.1206  1.5501
15911TIP3    H269225   3.334   5.095   4.980  0.7786 -0.5270 -0.8250
15912TIP3   OH269226   3.032   1.645   5.532 -0.1530  0.4757 -0.2514
15912TIP3    H169227   3.080   1.564   5.518  0.0860  0.7743 -1.1838
15912TIP3    H269228   3.094   1.702   5.579 -0.0150  0.4413 -0.3945
15913TIP3   OH269229   1.410   1.839  12.171  0.0605 -0.0075 -0.2128
15913TIP3    H169230   1.396   1.860  12.264 -0.7979 -0.0322 -0.3349
15913TIP3    H269231   1.425   1.924  12.129  0.8076 -0.0291  0.0076
15914TIP3   OH269232   3.662   1.204  14.843  0.0779 -0.1426  0.3014
15914TIP3    H169233   3.613   1.259  14.782  0.7043 -0.8702 -0.8526
15914TIP3    H269234   3.744   1.252  14.858 -0.0107 -0.0401  0.4643
15915TIP3   OH269235   5.925   4.248  11.949  0.1919 -0.2264 -0.2666
15915TIP3    H169236   5.924   4.268  12.042 -1.4531 -1.0631 -0.0732
15915TIP3    H269237   5.833   4.233  11.927  0.7040 -1.4721 -1.6908
15916TIP3   OH269238   4.670   5.454  11.559  0.5574 -0.6290 -0.0886
15916TIP3    H169239   4.735   5.521  11.581  0.3870 -0.3066 -0.5667
15916TIP3    H269240   4.619   5.442  11.639 -0.8485  1.4153 -0.6511
15917TIP3   OH269241   0.369   1.884  16.010  0.0182  0.3383 -0.2324
15917TIP3    H169242   0.351   1.977  16.018 -0.2295  0.3345 -0.7659
15917TIP3    H269243   0.370   1.867  15.916  0.0617 -0.1965 -0.1387
15918TIP3   OH269244   0.108   2.535   1.908  0.2825  0.3339  0.0242
15918TIP3    H169245   0.131   2.604   1.970  1.6956  0.1644 -0.2939
15918TIP3    H269246   0.073   2.582   1.832 -0.6752  0.5843  0.6117
15919TIP3   OH269247   4.243   0.262   3.910 -0.3402 -0.2374  0.2276
15919TIP3    H169248   4.172   0.326   3.921 -0.1354 -0.0216  0.2890
15919TIP3    H269249   4.206   0.196   3.852 -0.6803 -0.2559  0.4574
15920TIP3   OH269250   5.357   2.157  15.512  0.2654 -0.2498 -0.3035
15920TIP3    H169251   5.332   2.249  15.514 -0.3748 -0.3813 -1.7684
15920TIP3    H269252   5.274   2.109  15.508  0.6299 -0.8284 -1.1303
15921TIP3   OH269253   0.266   3.476   1.056 -0.2018  0.3391  0.1648
15921TIP3    H169254   0.258   3.391   1.099  0.1158  0.2565  0.0637
15921TIP3    H269255   0.336   3.464   0.992  0.9198  1.1092  1.2212
15922TIP3   OH269256   1.805   2.202  12.581  0.5994 -0.2029  0.0696
15922TIP3    H169257   1.732   2.229  12.526  0.4916  0.0401  0.3284
15922TIP3    H269258   1.764   2.174  12.663  0.7993 -0.0356  0.2261
15923TIP3   OH269259   6.278   0.106   0.675 -0.7259  0.2952 -0.1460
15923TIP3    H169260   6.226   0.148   0.606  0.4974  0.1109 -1.1846
15923TIP3    H269261   6.331   0.041   0.630 -1.4788 -1.3358  1.2592
15924TIP3   OH269262   2.970   0.782  16.509 -0.4888 -0.7832  1.0118
15924TIP3    H169263   2.966   0.693  16.474 -1.0429 -0.0273 -0.9023
15924TIP3    H269264   3.054   0.816  16.480 -1.3081  0.1400 -0.3598
15925TIP3   OH269265   1.819   2.802   0.876  0.1258 -0.0090 -0.0637
15925TIP3    H169266   1.749   2.820   0.813 -0.4053 -0.2026  0.4657
15925TIP3    H269267   1.801   2.859   0.950 -0.0635 -0.8005  0.5106
15926TIP3   OH269268   4.945   0.440  13.213 -0.6383 -0.0319  0.9001
15926TIP3    H169269   4.904   0.394  13.286  1.2965 -1.6408  1.0188
15926TIP3    H269270   5.014   0.380  13.183 -0.4756  1.2302 -1.3116
15927TIP3   OH269271   3.633   4.921   2.482  0.1731 -0.0601  0.3917
15927TIP3    H169272   3.615   4.878   2.566 -0.3958  0.5534  0.5862
15927TIP3    H269273   3.557   4.899   2.428  1.1784 -1.6252 -0.4411
15928TIP3   OH269274   3.094   0.416   0.802  0.0790 -0.6334  0.7707
15928TIP3    H169275   3.180   0.376   0.788 -0.0021 -0.7846  0.7078
15928TIP3    H269276   3.085   0.478   0.730 -0.0367 -0.9035  0.5566
15929TIP3   OH269277   6.713   6.139  12.642 -0.0142 -0.1604  0.3821
15929TIP3    H169278   6.627   6.100  12.625 -0.0558  0.0877 -0.0017
15929TIP3    H269279   6.701   6.193  12.720 -0.1535 -0.3097  0.4615
15930TIP3   OH269280   4.237   3.337   2.547  0.1154  0.0077  0.0971
15930TIP3    H169281   4.274   3.419   2.580  0.5256  0.6097 -1.7802
15930TIP3    H269282   4.170   3.314   2.610 -0.2592  2.0013  0.4606
15931TIP3   OH269283   5.943   4.524   4.219  0.2657 -0.5408  0.0805
15931TIP3    H169284   5.908   4.442   4.255  0.3320 -0.2181  0.8856
15931TIP3    H269285   6.009   4.552   4.281 -0.5720  0.7382  0.4274
15932TIP3   OH269286   4.924   3.299   1.569  0.5279  0.3343  0.2413
15932TIP3    H169287   4.953   3.384   1.536  0.2750  1.2385  2.2395
15932TIP3    H269288   4.950   3.299   1.661 -1.4120 -0.8330  0.8358
15933TIP3   OH269289   4.686   3.079  13.793  0.4275 -0.1958 -0.2539
15933TIP3    H169290   4.620   3.106  13.729 -0.6958 -0.4486  0.7705
15933TIP3    H269291   4.769   3.086  13.746 -0.0684  2.4080 -0.8646
15934TIP3   OH269292   3.012   1.939   3.283  0.8292 -0.7568 -0.0212
15934TIP3    H169293   2.969   1.866   3.238 -0.4057  0.2425 -0.4899
15934TIP3    H269294   3.019   2.007   3.216  2.0776 -0.4834  0.3823
15935TIP3   OH269295   1.050   3.582   2.672  0.4744  0.5521  0.6307
15935TIP3    H169296   1.063   3.588   2.766 -2.8577 -1.2516  1.2799
15935TIP3    H269297   1.043   3.488   2.654  1.5324  0.8431 -1.5179
15936TIP3   OH269298   6.555   0.064  12.312 -0.0143  0.5272 -0.1944
15936TIP3    H169299   6.564   0.096  12.402  1.6058 -1.5646  0.4423
15936TIP3    H269300   6.611   0.121  12.260  1.2039  0.0701  0.5866
15937TIP3   OH269301   4.700   2.892  12.789  0.8347  0.0378  0.1644
15937TIP3    H169302   4.747   2.811  12.809  0.6680  0.0011  0.4117
15937TIP3    H269303   4.628   2.894  12.852  1.4082  0.8712  0.8013
15938TIP3   OH269304   2.341   5.725   2.903  0.0878  0.3209  0.0225
15938TIP3    H169305   2.289   5.803   2.922 -1.1082 -0.3708 -0.3214
15938TIP3    H269306   2.333   5.713   2.808 -0.6156 -0.8057  0.2093
15939TIP3   OH269307   4.603   3.041   5.183 -0.1376  0.1584  0.5173
15939TIP3    H169308   4.612   3.068   5.275 -0.3905 -0.0735  0.6117
15939TIP3    H269309   4.649   2.957   5.178  1.3023  0.9793  0.0493
15940TIP3   OH269310   1.425   6.532   0.715 -0.6045  0.1332  0.1884
15940TIP3    H169311   1.361   6.589   0.672  1.4379  2.0357 -0.4468
15940TIP3    H269312   1.469   6.486   0.643 -0.5611 -0.4026  0.5526
15941TIP3   OH269313   3.282   5.652  10.946 -0.2074  0.1597  0.1136
15941TIP3    H169314   3.204   5.678  10.897  0.3224  0.7001 -0.4516
15941TIP3    H269315   3.354   5.696  10.902  0.9721 -3.6143 -1.9181
15942TIP3   OH269316   1.778   6.802   2.902  0.4508 -0.0478  0.0608
15942TIP3    H169317   1.751   6.722   2.946  0.7498 -0.3684 -0.3317
15942TIP3    H269318   1.819   6.772   2.821  0.3085  0.5137 -0.2232
15943TIP3   OH269319   3.476   0.329  13.907 -0.1614  0.8688 -0.0948
15943TIP3    H169320   3.462   0.294  13.819  0.9019 -0.3564  0.2022
15943TIP3    H269321   3.544   0.396  13.896  0.2774  0.4163 -0.1401
15944TIP3   OH269322   3.298   2.435   4.600 -0.0479 -0.1252 -0.3590
15944TIP3    H169323   3.308   2.502   4.667  0.0670 -0.8774  0.3898
15944TIP3    H269324   3.211   2.451   4.563 -0.7275 -0.6064  0.9906
15945TIP3   OH269325   2.230   1.254   3.918  0.2367  0.5817 -0.5368
15945TIP3    H169326   2.260   1.180   3.866 -1.1017  0.1095 -0.6620
15945TIP3    H269327   2.263   1.238   4.006 -2.3970 -1.6474  0.1121
15946TIP3   OH269328   3.726   1.556  11.958  0.2658  0.0074  0.0283
15946TIP3    H169329   3.784   1.488  11.992  2.0626  1.1524 -0.6221
15946TIP3    H269330   3.786   1.620  11.918 -1.5371  0.5712 -1.8730
15947TIP3   OH269331   2.864   0.299  15.926  0.0746 -0.2952 -0.2294
15947TIP3    H169332   2.783   0.349  15.927  0.6055  0.5839  1.1121
15947TIP3    H269333   2.877   0.274  15.835 -0.1358  2.1414 -0.9369
15948TIP3   OH269334   4.673   6.033   6.637 -0.2270 -0.5424 -0.0778
15948TIP3    H169335   4.729   6.106   6.665 -1.2401 -0.0429  0.6964
15948TIP3    H269336   4.593   6.044   6.688 -1.9146  0.0460 -2.7806
15949TIP3   OH269337   2.110   3.685   0.309  0.1199 -0.2734  0.2050
15949TIP3    H169338   2.153   3.769   0.317 -1.3979  0.5075  0.3783
15949TIP3    H269339   2.162   3.637   0.244  0.5183  1.0916 -0.4962
15950TIP3   OH269340   0.511   5.732  14.057 -0.2241 -0.2848  0.2307
15950TIP3    H169341   0.588   5.682  14.030 -0.0899  0.6116 -1.0986
15950TIP3    H269342   0.547   5.811  14.098 -0.4325 -0.1154  0.0859
15951TIP3   OH269343   4.245   5.244  15.298 -0.0691 -0.5673  0.1020
15951TIP3    H169344   4.305   5.227  15.225 -0.6426  0.3342 -0.6015
15951TIP3    H269345   4.302   5.265  15.372  0.5374 -2.1414  0.0948
15952TIP3   OH269346   2.945   5.648  14.620 -0.5601  0.2539  0.1283
15952TIP3    H169347   2.855   5.620  14.638 -1.1929  2.1196  0.0005
15952TIP3    H269348   2.944   5.669  14.526 -0.0637  0.4807  0.1752
15953TIP3   OH269349   1.825   6.109   0.955 -0.6934 -0.2053 -0.8692
15953TIP3    H169350   1.730   6.096   0.953 -0.6260 -0.8272 -0.4247
15953TIP3    H269351   1.852   6.075   1.040 -0.2877  1.5859 -0.2730
15954TIP3   OH269352   0.413   2.597   6.832 -0.4510 -0.1527  0.1597
15954TIP3    H169353   0.460   2.680   6.830 -2.1896  0.8689  0.3434
15954TIP3    H269354   0.480   2.531   6.847  0.8418  1.3064  0.8482
15955TIP3   OH269355   6.138   1.047   4.856  0.9649 -1.0592 -0.3611
15955TIP3    H169356   6.066   1.032   4.917  2.0019 -0.6453  0.9861
15955TIP3    H269357   6.096   1.072   4.774 -0.5063 -3.0280 -0.2389
15956TIP3   OH269358   3.604   1.060  13.911  0.4246  0.0524  0.3825
15956TIP3    H169359   3.686   1.067  13.863 -0.1083 -1.8439 -0.8812
15956TIP3    H269360   3.555   1.138  13.888  1.0505  0.1954 -0.4615
15957TIP3   OH269361   2.730   1.899  16.660  0.0891 -0.0649  0.2044
15957TIP3    H169362   2.740   1.990  16.689 -1.4555  0.5150 -0.9968
15957TIP3    H269363   2.787   1.848  16.718 -1.5668  1.2545  3.0566
15958TIP3   OH269364   6.385   5.979  15.571  0.6526  0.1816  0.4696
15958TIP3    H169365   6.389   6.058  15.517  3.5336 -0.3176 -0.1241
15958TIP3    H269366   6.463   5.930  15.547 -0.7269 -2.5315  1.3562
15959TIP3   OH269367   0.622   5.762  14.358  0.3407 -0.1267  1.1487
15959TIP3    H169368   0.672   5.681  14.360  0.7531  0.1434  2.0071
15959TIP3    H269369   0.666   5.819  14.421 -0.1931  0.6167  0.8622
15960TIP3   OH269370   4.765   1.019   2.261  0.8417  0.0960  0.6909
15960TIP3    H169371   4.680   1.020   2.217  0.6979  1.3226  0.9764
15960TIP3    H269372   4.748   0.975   2.344  0.1929  1.4939  1.3067
15961TIP3   OH269373   3.237   3.343   1.262  0.3385  0.0126 -0.2193
15961TIP3    H169374   3.151   3.339   1.220  0.7168  3.6727 -1.4983
15961TIP3    H269375   3.297   3.366   1.192  2.2410 -1.4858  0.8708
15962TIP3   OH269376   5.545   1.493   3.585  0.2086 -0.0831  0.3090
15962TIP3    H169377   5.574   1.422   3.527  1.5800 -0.3319  1.2661
15962TIP3    H269378   5.454   1.473   3.605  0.1053 -0.6912 -0.7295
15963TIP3   OH269379   1.399   6.675   3.012  0.1075 -0.3045  0.4720
15963TIP3    H169380   1.437   6.604   3.063  0.9599  0.3117  0.6993
15963TIP3    H269381   1.337   6.718   3.072  0.6283  0.0137  0.7858
15964TIP3   OH269382   3.631   6.196   1.951  0.0291 -0.0432  0.0002
15964TIP3    H169383   3.558   6.206   1.890  0.4039  1.2172 -0.2364
15964TIP3    H269384   3.693   6.139   1.905 -0.4798 -0.5368 -0.0792
15965TIP3   OH269385   1.194   4.513  15.119  0.5593 -0.0779  0.4050
15965TIP3    H169386   1.232   4.426  15.127  0.8876 -0.0316 -0.5183
15965TIP3    H269387   1.101   4.497  15.103  1.0397 -0.3591 -2.3265
15966TIP3   OH269388   1.847   4.587  14.747  0.0872 -0.4678 -0.9948
15966TIP3    H169389   1.768   4.534  14.754  0.0990 -0.4270 -0.4826
15966TIP3    H269390   1.916   4.531  14.783  0.3847 -0.6971 -1.9111
15967TIP3   OH269391   5.062   2.782   2.281  0.5283 -0.2412  0.4172
15967TIP3    H169392   5.050   2.855   2.342 -1.8398 -0.3604  0.1187
15967TIP3    H269393   4.991   2.792   2.217  1.7945 -1.2719 -1.1746
15968TIP3   OH269394   0.375   6.486  16.249 -0.0729 -0.0180  0.4402
15968TIP3    H169395   0.321   6.528  16.183  0.3351 -0.4048 -0.1404
15968TIP3    H269396   0.326   6.497  16.331 -1.3473 -0.9735 -0.1946
15969TIP3   OH269397   1.391   2.722  14.247  0.2286 -0.4230  1.1705
15969TIP3    H169398   1.446   2.738  14.324  1.1752  0.6185  0.2894
15969TIP3    H269399   1.448   2.742  14.172 -1.4623  1.0559  0.2477
15970TIP3   OH269400   0.674   4.098  12.300  0.5268 -0.7277 -0.1822
15970TIP3    H169401   0.601   4.159  12.308  0.0684 -1.4427  1.0862
15970TIP3    H269402   0.637   4.012  12.319  1.8324 -1.0056  1.1818
15971TIP3   OH269403   5.027   6.524  12.844 -0.5615  0.3047  0.1192
15971TIP3    H169404   5.066   6.501  12.760  0.5271 -0.6012  0.8469
15971TIP3    H269405   4.982   6.445  12.873  1.2057 -0.2349  1.5335
15972TIP3   OH269406   4.602   4.566   2.179 -0.0454 -0.2290  0.0507
15972TIP3    H169407   4.540   4.630   2.146 -0.0441 -1.0470 -1.5772
15972TIP3    H269408   4.548   4.491   2.204  0.2441 -0.7823 -0.9763
15973TIP3   OH269409   0.351   5.496   1.678  0.7819 -0.1664  0.3857
15973TIP3    H169410   0.301   5.549   1.740  2.2321 -0.2074  1.6310
15973TIP3    H269411   0.372   5.556   1.606 -1.1528 -0.1933 -0.2242
15974TIP3   OH269412   0.654   5.003  15.654  0.2624  0.2051  0.1225
15974TIP3    H169413   0.645   5.096  15.630 -0.4088  0.2020  0.3727
15974TIP3    H269414   0.566   4.975  15.676  0.3385 -0.7042 -0.6799
15975TIP3   OH269415   5.833   4.843  13.483  0.6353  0.3227  0.2636
15975TIP3    H169416   5.855   4.780  13.414  0.9440 -1.6351  2.0910
15975TIP3    H269417   5.907   4.837  13.544 -0.2295  1.0986  1.3880
15976TIP3   OH269418   3.634   6.428   3.103 -0.5369 -0.3663 -0.3811
15976TIP3    H169419   3.593   6.454   3.020 -1.5090  0.2728  0.2982
15976TIP3    H269420   3.702   6.495   3.117  0.9161 -1.5464 -1.6132
15977TIP3   OH269421   0.564   3.687   2.718  0.4473 -0.3593 -0.1059
15977TIP3    H169422   0.614   3.622   2.767 -0.4938 -1.4540 -0.5728
15977TIP3    H269423   0.601   3.684   2.630  1.9766  1.4338  0.4547
15978TIP3   OH269424   0.583   5.934   4.795  0.4603 -0.2703  0.2512
15978TIP3    H169425   0.521   5.993   4.838  0.6570  2.0857 -2.5155
15978TIP3    H269426   0.528   5.869   4.750  0.0650  0.3270 -0.1393
15979TIP3   OH269427   0.445   1.788  14.305 -0.2747 -0.0345 -0.1021
15979TIP3    H169428   0.437   1.697  14.276 -1.6690  0.1131 -0.2259
15979TIP3    H269429   0.368   1.802  14.361 -0.5735  1.3346 -0.8176
15980TIP3   OH269430   2.392   1.094  12.289 -0.0524  0.4522 -0.4385
15980TIP3    H169431   2.335   1.153  12.240 -0.0189  1.1503  0.3451
15980TIP3    H269432   2.437   1.151  12.352  1.3258 -0.1286 -0.8826
15981TIP3   OH269433   0.988   3.592  12.580  0.6181 -0.3935  0.1339
15981TIP3    H169434   0.990   3.611  12.674 -0.1994 -1.4820  0.3892
15981TIP3    H269435   0.907   3.633  12.549  0.8145 -0.1577 -0.0611
15982TIP3   OH269436   2.496   1.709   3.749 -0.4889 -0.2983 -0.6350
15982TIP3    H169437   2.527   1.728   3.660 -1.7710  1.2860 -0.7621
15982TIP3    H269438   2.403   1.733   3.747 -1.0941 -2.4456  0.4873
15983TIP3   OH269439   0.962   0.111   6.235  0.6573 -0.6660  0.0019
15983TIP3    H169440   1.005   0.101   6.320 -0.0773  0.6668  0.5421
15983TIP3    H269441   0.991   0.196   6.203  0.0198 -0.6571 -0.5466
15984TIP3   OH269442   4.543   5.131   3.764 -0.2198 -0.2087 -0.1532
15984TIP3    H169443   4.488   5.145   3.687  0.1709  1.1370 -0.1983
15984TIP3    H269444   4.544   5.215   3.809  0.1294 -0.7923  0.9501
15985TIP3   OH269445   1.798   5.783  12.078 -0.0202  0.4206 -0.4339
15985TIP3    H169446   1.794   5.743  11.991 -0.9067  1.4910 -0.9010
15985TIP3    H269447   1.866   5.734  12.124  1.1492  0.4814 -2.0614
15986TIP3   OH269448   4.092   4.317   1.743  0.7739 -0.2164 -0.5577
15986TIP3    H169449   4.079   4.226   1.771  0.4924  0.5370  1.8479
15986TIP3    H269450   4.026   4.330   1.675 -1.0283 -1.0124  0.9878
15987TIP3   OH269451   3.598   2.598  16.061  0.5615  0.3540 -0.0440
15987TIP3    H169452   3.684   2.564  16.035 -0.2128  0.3527 -2.7668
15987TIP3    H269453   3.536   2.544  16.012 -0.9237  1.6102  0.4346
15988TIP3   OH269454   5.145   3.029   3.773 -0.1514 -0.0862  0.1635
15988TIP3    H169455   5.142   3.064   3.685 -1.4804 -0.6969 -0.0477
15988TIP3    H269456   5.172   3.103   3.828  3.0244 -0.3121 -1.0405
15989TIP3   OH269457   4.890   1.025  16.899 -0.2021  0.1669  0.2868
15989TIP3    H169458   4.912   1.084  16.827 -0.2569  0.7340  0.7336
15989TIP3    H269459   4.839   1.079  16.959 -0.7008 -0.4788  0.4457
15990TIP3   OH269460   6.276   0.794  10.777 -0.1514 -0.5209 -0.4722
15990TIP3    H169461   6.226   0.732  10.725  1.5147 -1.2684 -1.2103
15990TIP3    H269462   6.217   0.868  10.789 -1.4218 -1.3729 -1.3332
15991TIP3   OH269463   0.458   6.667  15.572 -0.1094 -0.2918 -0.1062
15991TIP3    H169464   0.436   6.676  15.665 -2.3954  0.4234 -0.6907
15991TIP3    H269465   0.532   6.606  15.571 -0.4265 -0.7590  2.1469
15992TIP3   OH269466   6.463   0.957   3.329 -0.4516  0.5533 -0.2679
15992TIP3    H169467   6.524   0.918   3.266  0.2309 -0.0475  0.7399
15992TIP3    H269468   6.444   1.044   3.294  2.0689  1.2922  0.0922
15993TIP3   OH269469   0.052   6.095  14.749  0.4527 -0.2311  0.7184
15993TIP3    H169470   0.131   6.071  14.701  0.4652 -0.5264  0.8840
15993TIP3    H269471   0.049   6.190  14.744 -0.2576 -0.3117 -1.0253
15994TIP3   OH269472   5.779   0.973   2.392 -0.4059  0.1140 -0.9091
15994TIP3    H169473   5.869   0.949   2.414 -0.8189  0.3780  1.2479
15994TIP3    H269474   5.786   1.058   2.347  0.3460  0.8928  0.6266
15995TIP3   OH269475   3.994   2.658   5.293  0.0779 -0.0024 -0.0001
15995TIP3    H169476   3.903   2.651   5.266 -0.0864  1.1864  0.1847
15995TIP3    H269477   3.996   2.622   5.381  0.1585 -1.7296 -0.6906
15996TIP3   OH269478   5.081   1.581  14.282  0.1488 -0.3753 -0.1931
15996TIP3    H169479   5.023   1.640  14.234 -0.7206 -0.9437  0.1453
15996TIP3    H269480   5.024   1.538  14.346  1.2630  0.3414  1.3201
15997TIP3   OH269481   5.553   0.378  13.949 -0.1475 -0.2146 -0.8131
15997TIP3    H169482   5.478   0.344  13.998 -1.0641  1.5000 -1.0004
15997TIP3    H269483   5.590   0.301  13.906 -0.1033 -1.5402  1.5083
15998TIP3   OH269484   5.977   2.298   2.423 -0.2639  0.8588  0.0629
15998TIP3    H169485   6.064   2.275   2.393  0.0398  0.4892  1.1973
15998TIP3    H269486   5.952   2.375   2.371  0.4114  0.4838 -0.8087
15999TIP3   OH269487   1.531   1.297  11.722 -0.0768  0.3114 -0.2873
15999TIP3    H169488   1.442   1.279  11.692 -1.0239  1.9963  1.4081
15999TIP3    H269489   1.534   1.392  11.734  2.5086  0.5162 -1.9853
16000TIP3   OH269490   0.355   1.945   5.073 -0.1616 -0.2189 -0.9214
16000TIP3    H169491   0.387   1.877   5.014 -0.1725 -1.6382  0.6591
16000TIP3    H269492   0.261   1.932   5.076 -0.1846 -0.0173 -0.7562
16001TIP3   OH269493   1.587   0.698  11.781 -0.0734  0.0959 -0.3112
16001TIP3    H169494   1.610   0.613  11.819 -0.8440 -0.4481 -1.0415
16001TIP3    H269495   1.583   0.682  11.687 -1.0718  0.7416 -0.3787
16002TIP3   OH269496   0.226   3.262   4.190  0.2197 -0.0802 -0.2662
16002TIP3    H169497   0.222   3.358   4.195 -3.1533 -0.0836 -1.5035
16002TIP3    H269498   0.241   3.235   4.281  0.2097  1.6074  0.2760
16003TIP3   OH269499   1.198   5.149  14.380 -0.1184  0.8418 -0.4006
16003TIP3    H169500   1.185   5.225  14.324  0.5021  0.7465 -0.6804
16003TIP3    H269501   1.233   5.081  14.322  0.4608  0.7206  0.0757
16004TIP3   OH269502   3.489   6.674  16.664  0.0672  0.4723  0.1982
16004TIP3    H169503   3.532   6.608  16.610  0.4770  1.3790 -0.5937
16004TIP3    H269504   3.414   6.702  16.612 -0.6096  0.0038  0.9169
16005TIP3   OH269505   0.393   2.430  14.706  0.1901 -0.1497 -0.4397
16005TIP3    H169506   0.347   2.387  14.778 -0.9779 -0.4213 -1.3382
16005TIP3    H269507   0.472   2.466  14.747 -0.8233  0.3624  1.1338
16006TIP3   OH269508   5.772   2.642   3.596  0.5196 -0.1479  0.1260
16006TIP3    H169509   5.762   2.711   3.661  0.2935 -0.1053  0.0490
16006TIP3    H269510   5.844   2.671   3.540  1.2325 -0.5521  0.8178
16007TIP3   OH269511   1.134   0.137   1.415 -0.1188  0.7732 -0.3667
16007TIP3    H169512   1.049   0.173   1.390  0.5357  0.1910 -3.6730
16007TIP3    H269513   1.198   0.197   1.376  1.0099  0.4675  0.9651
16008TIP3   OH269514   5.522   1.861  11.474  0.2732 -0.3380 -0.1089
16008TIP3    H169515   5.611   1.869  11.441  0.4354 -0.7561  0.2141
16008TIP3    H269516   5.532   1.856  11.569 -0.1521  0.4017 -0.0142
16009TIP3   OH269517   2.146   5.812  15.288  0.3119  0.1348  0.8312
16009TIP3    H169518   2.162   5.765  15.370  1.7132 -0.4095  0.2620
16009TIP3    H269519   2.233   5.833  15.255 -0.2461  0.5680 -0.4051
16010TIP3   OH269520   5.321   4.942  16.417  0.4628 -0.5073 -0.0058
16010TIP3    H169521   5.270   4.892  16.481 -0.5474 -0.7870 -1.0120
16010TIP3    H269522   5.264   5.015  16.393 -0.6319 -2.2117 -3.0531
16011TIP3   OH269523   2.879   0.031  14.259  0.0091  0.6431  0.0663
16011TIP3    H169524   2.909  -0.001  14.175 -0.3708  0.8031 -0.1311
16011TIP3    H269525   2.841   0.117  14.240 -0.0846  0.6773  0.3966
16012TIP3   OH269526   4.861   2.038   3.572 -0.7014 -0.1473  0.0292
16012TIP3    H169527   4.888   1.946   3.577 -0.5107 -0.0415  1.0477
16012TIP3    H269528   4.880   2.064   3.482  0.3014 -0.7808  0.0478
16013TIP3   OH269529   6.738   0.835  11.640  0.1204 -0.0418 -0.0835
16013TIP3    H169530   6.645   0.814  11.651 -0.8689  0.6423 -5.5425
16013TIP3    H269531   6.783   0.751  11.650 -1.5673 -1.1155 -1.1428
16014TIP3   OH269532   2.578   5.663  11.709  0.4233  0.0132 -0.5435
16014TIP3    H169533   2.617   5.748  11.725  0.7854 -0.3219  0.3459
16014TIP3    H269534   2.528   5.644  11.788 -0.6872 -0.0350 -1.2481
16015TIP3   OH269535   2.662   3.501   3.589  0.3488 -0.1155 -0.2202
16015TIP3    H169536   2.707   3.554   3.523 -4.0626  1.5790 -2.0634
16015TIP3    H269537   2.624   3.428   3.541 -3.3262  1.3903  0.2362
16016TIP3   OH269538   2.419   3.065   5.613  0.3014  0.1941 -0.3698
16016TIP3    H169539   2.379   3.113   5.686 -1.4330  1.3222 -1.9842
16016TIP3    H269540   2.355   2.998   5.591  1.5375 -1.1749  0.1587
16017TIP3   OH269541   2.318   2.386   0.956 -0.4551  0.1081  0.1295
16017TIP3    H169542   2.345   2.330   1.028  0.5589 -0.3166 -0.5829
16017TIP3    H269543   2.223   2.376   0.952 -0.5471  0.3773  1.6026
16018TIP3   OH269544   0.232   1.533   6.182  0.4368 -0.2113  0.1163
16018TIP3    H169545   0.238   1.466   6.114 -2.1160 -1.0667  0.7073
16018TIP3    H269546   0.204   1.612   6.135 -4.5539 -1.5748  0.5174
16019TIP3   OH269547   3.648   0.429   4.078 -0.6961 -0.3009  0.8372
16019TIP3    H169548   3.707   0.473   4.017  0.0402 -1.8199  0.4202
16019TIP3    H269549   3.571   0.408   4.025 -0.7682 -0.1148  0.8673
16020TIP3   OH269550   1.914   3.426   2.961  0.0410 -0.4459  0.0385
16020TIP3    H169551   1.899   3.359   2.894  1.2840 -1.6829  0.9686
16020TIP3    H269552   1.914   3.378   3.044 -0.1087  0.8665  0.8197
16021TIP3   OH269553   1.017   5.291  14.547  0.2835 -0.0683  0.1205
16021TIP3    H169554   1.052   5.315  14.462 -1.1147  0.9319 -0.1936
16021TIP3    H269555   1.093   5.288  14.605  1.2097 -0.5235 -1.1094
16022TIP3   OH269556   5.844   5.087   1.188  0.2851 -0.2240 -0.4174
16022TIP3    H169557   5.927   5.124   1.158  0.6556 -1.0719 -0.4498
16022TIP3    H269558   5.869   5.011   1.240 -0.3815  0.8327  1.5043
16023TIP3   OH269559   1.280   4.699  16.673 -0.2947  0.1067  0.2832
16023TIP3    H169560   1.222   4.651  16.613 -2.2983  0.3233  1.9776
16023TIP3    H269561   1.337   4.632  16.710 -0.2254 -0.2974 -0.5376
16024TIP3   OH269562   3.415   3.954  16.142  0.0710  0.6777  0.6189
16024TIP3    H169563   3.462   3.902  16.077  1.3751  1.4966  0.9095
16024TIP3    H269564   3.425   4.044  16.112 -1.0854  0.8967  0.8435
16025TIP3   OH269565   3.989   0.143   3.767  0.1347  0.3879 -0.1263
16025TIP3    H169566   3.937   0.075   3.725 -2.3319  2.0655  0.0935
16025TIP3    H269567   3.930   0.181   3.833  2.2365  1.1936  1.3395
16026TIP3   OH269568   4.091   1.088  13.069 -0.3377 -0.2735  0.4883
16026TIP3    H169569   4.124   1.037  12.995 -0.3867 -0.3111  0.4915
16026TIP3    H269570   4.017   1.137  13.033 -1.4201 -1.5549  0.8882
16027TIP3   OH269571   0.051   4.314   3.314  0.5199  0.2160 -0.3842
16027TIP3    H169572   0.097   4.269   3.244 -0.6193 -1.6644  0.0665
16027TIP3    H269573  -0.039   4.324   3.282  0.7085  2.0526 -0.4152
16028TIP3   OH269574   0.644   3.423  16.971  0.3469  0.0866  0.0773
16028TIP3    H169575   0.576   3.379  16.920  0.2300 -1.0897  1.1942
16028TIP3    H269576   0.611   3.420  17.061  1.5589  0.1168  0.5279
16029TIP3   OH269577   4.806   5.817   3.001  0.7123 -0.4467  0.0145
16029TIP3    H169578   4.822   5.888   2.939  0.9681  0.4502  1.0928
16029TIP3    H269579   4.753   5.754   2.952 -1.0476  1.3247 -0.4206
16030TIP3   OH269580   1.753   0.816   0.538  0.2441 -0.6724 -0.9087
16030TIP3    H169581   1.783   0.757   0.608 -0.5471 -1.3878 -1.1670
16030TIP3    H269582   1.822   0.882   0.532 -0.0810 -0.1030  1.1381
16031TIP3   OH269583   5.989   1.187  14.391  0.1785  0.2321 -0.2556
16031TIP3    H169584   6.045   1.111  14.371 -2.1843 -2.0461  1.4379
16031TIP3    H269585   5.959   1.218  14.306  1.1010 -0.7723 -0.9652
16032TIP3   OH269586   0.376   6.360   2.348  0.2873 -0.1250 -0.0133
16032TIP3    H169587   0.445   6.346   2.413  2.2666  0.7898 -1.8604
16032TIP3    H269588   0.329   6.437   2.380  0.1619 -0.6845  1.1991
16033TIP3   OH269589   1.168   0.340  11.723  0.1618 -0.1725  0.6046
16033TIP3    H169590   1.129   0.386  11.797 -2.0274 -0.4365 -0.3512
16033TIP3    H269591   1.245   0.393  11.699 -0.0671  0.8110  2.0101
16034TIP3   OH269592   0.298   4.691  16.859  0.3016 -0.1442  0.2978
16034TIP3    H169593   0.296   4.597  16.840  3.1859 -0.1792 -0.0690
16034TIP3    H269594   0.323   4.696  16.952  1.3885  0.2462 -0.0013
16035TIP3   OH269595   3.421   5.729  13.784  0.2181  0.2742 -0.5785
16035TIP3    H169596   3.335   5.751  13.820  0.8577 -0.9024  1.7088
16035TIP3    H269597   3.477   5.804  13.806  0.2163  0.2616 -0.5323
16036TIP3   OH269598   2.680   6.228   4.340 -0.0075  0.5144 -0.0907
16036TIP3    H169599   2.730   6.234   4.258  0.9752  2.8213  0.6339
16036TIP3    H269600   2.665   6.319   4.366 -3.9290 -0.1272  0.1674
16037TIP3   OH269601   0.650   3.371  17.264  0.1781  0.1467  0.4197
16037TIP3    H169602   0.627   3.456  17.301 -1.9083 -0.9780  1.7825
16037TIP3    H269603   0.707   3.331  17.330 -0.3977 -0.2869  0.6565
16038TIP3   OH269604   0.654   1.148   0.085 -0.1564  0.0837 -0.1409
16038TIP3    H169605   0.609   1.065   0.071 -0.9393  0.4827 -0.0299
16038TIP3    H269606   0.618   1.181   0.167 -0.8312  1.1766 -0.8653
16039TIP3   OH269607   4.616   5.791   4.139 -0.2855 -0.4359  0.3842
16039TIP3    H169608   4.675   5.748   4.076  0.2458 -0.4176  0.8701
16039TIP3    H269609   4.578   5.719   4.189  0.2202 -0.3796  0.8579
16040TIP3   OH269610   2.640   0.095   0.930 -0.3221  0.7060  0.4672
16040TIP3    H169611   2.654   0.147   1.009 -1.0705  1.3769  0.1583
16040TIP3    H269612   2.721   0.044   0.920 -0.4804  0.1191  2.0354
16041TIP3   OH269613   4.681   3.634   6.737  0.1920 -0.0631  0.4987
16041TIP3    H169614   4.610   3.697   6.722  0.4303 -0.5758 -3.4563
16041TIP3    H269615   4.636   3.554   6.764 -0.9416 -0.6605 -2.8934
16042TIP3   OH269616   5.160   4.023  12.657 -0.0958 -0.5539  0.1116
16042TIP3    H169617   5.112   4.061  12.731 -0.9925 -0.1656 -0.6476
16042TIP3    H269618   5.091   3.995  12.596  0.6307 -0.7978 -0.6085
16043TIP3   OH269619   2.697   1.729   3.921 -0.1500  0.0441  0.2944
16043TIP3    H169620   2.642   1.731   3.843 -2.1910  0.9147  1.7295
16043TIP3    H269621   2.703   1.820   3.950 -0.6334 -0.4143  1.9527
16044TIP3   OH269622   3.537   2.102  11.953  0.0909 -0.3827  0.1989
16044TIP3    H169623   3.629   2.098  11.978  1.0229  2.2294 -2.5676
16044TIP3    H269624   3.527   2.034  11.886  0.1257 -0.3619  0.1732
16045TIP3   OH269625   0.022   4.766   4.792  0.1755  0.7763 -0.0911
16045TIP3    H169626   0.017   4.861   4.800  0.0867  0.7704 -0.0844
16045TIP3    H269627   0.093   4.752   4.729  0.9162  0.8210  0.7110
16046TIP3   OH269628   2.217   2.642   4.183  0.1406  0.2427  0.1995
16046TIP3    H169629   2.182   2.729   4.164 -1.7664 -0.5052  0.1656
16046TIP3    H269630   2.156   2.605   4.246  1.1465 -0.9354  0.4921
16047TIP3   OH269631   0.144   1.729  12.235 -0.3912  0.1021  0.3378
16047TIP3    H169632   0.109   1.810  12.198  0.7146  1.8990  3.0401
16047TIP3    H269633   0.222   1.711  12.182 -1.5572 -0.1709 -1.3444
16048TIP3   OH269634   4.183   3.937  14.992 -0.4635 -0.1074  0.3449
16048TIP3    H169635   4.095   3.963  15.020 -0.9814  0.1620 -1.4837
16048TIP3    H269636   4.177   3.841  14.984 -0.2926 -0.1953  1.1706
16049TIP3   OH269637   1.162   0.456   1.103  0.4129  0.1751 -0.0286
16049TIP3    H169638   1.226   0.472   1.173  1.5982 -1.9076 -0.6081
16049TIP3    H269639   1.106   0.387   1.137 -0.2300  0.5166 -0.3888
16050TIP3   OH269640   0.944   2.016  13.199  0.1514  0.1376  0.5454
16050TIP3    H169641   0.905   2.103  13.207  1.9968  1.0746 -0.3431
16050TIP3    H269642   0.887   1.959  13.251 -2.9859  1.2479 -1.4898
16051TIP3   OH269643   0.807   2.002   1.490  0.1776 -0.1750  0.2602
16051TIP3    H169644   0.783   1.976   1.579  0.9473 -3.0510 -0.2962
16051TIP3    H269645   0.730   2.047   1.456 -1.2074 -1.5731  1.4459
16052TIP3   OH269646   3.629   0.782  13.819  0.4930  0.0751 -0.0038
16052TIP3    H169647   3.671   0.862  13.851  1.3373  0.1702 -1.3043
16052TIP3    H269648   3.616   0.798  13.725 -2.0078 -0.1455  0.2747
16053TIP3   OH269649   5.691   2.821  13.214 -0.4046  0.2133  0.5166
16053TIP3    H169650   5.728   2.908  13.232 -0.2539  0.2067  0.2412
16053TIP3    H269651   5.599   2.829  13.238 -0.7930  0.9681 -1.1612
16054TIP3   OH269652   4.659   6.605  11.797 -0.4720 -0.2061  0.0269
16054TIP3    H169653   4.742   6.623  11.755  0.3836  0.6296  1.9857
16054TIP3    H269654   4.620   6.692  11.812 -1.2696 -0.5396 -0.0700
16055TIP3   OH269655   2.108   4.853   2.925  0.4471 -0.2269  0.8467
16055TIP3    H169656   2.035   4.838   2.864 -0.0474 -1.6523  1.7803
16055TIP3    H269657   2.179   4.885   2.869 -0.4381 -0.1865 -0.2774
16056TIP3   OH269658   1.101   3.664   1.208  0.2536  0.4911  0.1299
16056TIP3    H169659   1.192   3.663   1.180  0.8467 -0.1385  1.9937
16056TIP3    H269660   1.057   3.601   1.150  1.2283 -0.0435 -0.0306
16057TIP3   OH269661   6.258   0.771  15.564  1.1580  0.1199 -0.2359
16057TIP3    H169662   6.246   0.721  15.644  0.2889  1.6578  0.6263
16057TIP3    H269663   6.203   0.727  15.499  0.1507  0.1383  0.5912
16058TIP3   OH269664   4.900   2.290   5.597 -0.0489 -0.2234  0.3481
16058TIP3    H169665   4.907   2.197   5.619  0.0302 -0.6027 -1.2271
16058TIP3    H269666   4.809   2.301   5.568 -0.7569  0.7134  2.7753
16059TIP3   OH269667   5.325   0.980  13.431  0.3152  0.4229 -0.2389
16059TIP3    H169668   5.319   1.031  13.350 -0.9493  0.3643 -0.1933
16059TIP3    H269669   5.249   1.008  13.482  1.0371  0.3631  0.8755
16060TIP3   OH269670   0.167   4.520  13.008  0.1715 -0.2632  0.3451
16060TIP3    H169671   0.234   4.537  12.941 -0.6292 -3.1053 -1.2705
16060TIP3    H269672   0.102   4.588  12.994  1.8529  1.4836  0.7837
16061TIP3   OH269673   1.553   0.609   5.738  0.0842 -0.3744 -0.1497
16061TIP3    H169674   1.476   0.665   5.754 -1.0217 -1.8385 -0.2721
16061TIP3    H269675   1.555   0.599   5.643  0.8759  0.2664 -0.2054
16062TIP3   OH269676   5.702   4.437  16.751 -0.8933 -0.8792 -0.6631
16062TIP3    H169677   5.724   4.346  16.770 -1.4441 -0.5034  1.8305
16062TIP3    H269678   5.769   4.488  16.797 -0.5318 -0.0053 -2.1197
16063TIP3   OH269679   1.456   4.771  15.578 -0.3122  0.0930  0.1623
16063TIP3    H169680   1.422   4.721  15.504 -1.6252 -0.0828  0.8659
16063TIP3    H269681   1.514   4.836  15.539  0.7012 -1.3897 -0.8395
16064TIP3   OH269682   5.131   1.226   2.555 -0.2590  0.8098 -0.0614
16064TIP3    H169683   5.048   1.259   2.588 -1.2960  0.0180 -1.8190
16064TIP3    H269684   5.152   1.282   2.480 -0.2354 -0.2302 -0.8537
16065TIP3   OH269685   6.579   5.963   0.453  0.2015  0.3360 -0.4321
16065TIP3    H169686   6.511   5.906   0.418  0.4437  0.6192 -1.3797
16065TIP3    H269687   6.561   5.967   0.547  0.0976 -1.1838 -0.3654
16066TIP3   OH269688   4.200   4.015  11.928 -0.1227 -0.1363 -0.3529
16066TIP3    H169689   4.235   3.958  11.859  1.9327 -0.9427  1.2818
16066TIP3    H269690   4.275   4.031  11.985 -2.0814 -0.5195  2.3907
16067TIP3   OH269691   0.988   2.874  12.373  0.0864  0.3529 -0.3302
16067TIP3    H169692   0.951   2.845  12.290 -2.9998  1.4194  0.6123
16067TIP3    H269693   0.998   2.795  12.425  0.0936 -0.0618 -0.9630
16068TIP3   OH269694   3.505   1.214  14.383 -0.2141  0.1424 -0.0097
16068TIP3    H169695   3.573   1.264  14.427 -2.0780  0.5140  2.5755
16068TIP3    H269696   3.465   1.276  14.322 -2.6264  1.9958  3.2940
16069TIP3   OH269697   4.002   3.084  13.864  0.0801  0.4485 -0.2537
16069TIP3    H169698   4.019   3.107  13.955 -1.1290 -0.4597  0.2173
16069TIP3    H269699   4.059   3.009  13.847  0.2471  0.5683 -0.2198
16070TIP3   OH269700   5.806   6.495   0.443 -0.7880  0.4044  0.1555
16070TIP3    H169701   5.811   6.547   0.523  0.7848  2.5147 -1.2826
16070TIP3    H269702   5.897   6.485   0.414 -1.3999  0.4855 -1.8847
16071TIP3   OH269703   5.178   3.488   3.081  0.4125 -0.6339  0.5230
16071TIP3    H169704   5.135   3.572   3.092 -0.0862 -0.8750  0.4501
16071TIP3    H269705   5.261   3.508   3.037  0.3500 -0.1740  0.6181
16072TIP3   OH269706   3.906   0.289  16.868 -0.1855 -0.4675  0.8872
16072TIP3    H169707   3.854   0.312  16.945 -0.0598  0.1581  0.7843
16072TIP3    H269708   3.995   0.280  16.903  0.1417  1.3211  0.5503
16073TIP3   OH269709   2.215   1.619  13.989  0.0633 -0.2586  0.5264
16073TIP3    H169710   2.241   1.710  13.976  0.1778 -0.4051 -0.3114
16073TIP3    H269711   2.127   1.624  14.027  0.0983  0.1998  0.5514
16074TIP3   OH269712   0.269   5.490   3.303  0.0625  0.2463 -0.0629
16074TIP3    H169713   0.337   5.557   3.301 -1.0622  1.4315  0.1279
16074TIP3    H269714   0.191   5.534   3.268 -0.2020 -1.5516 -1.7977
16075TIP3   OH269715   0.539   2.385  15.181 -0.1120 -0.0246 -0.1832
16075TIP3    H169716   0.584   2.440  15.117  1.3391 -0.9757  0.0049
16075TIP3    H269717   0.461   2.435  15.204  0.8190  1.6459 -0.5415
16076TIP3   OH269718   6.763   0.402  11.264 -0.0016 -0.7617 -0.1896
16076TIP3    H169719   6.715   0.334  11.215  1.3206  0.2009 -2.9116
16076TIP3    H269720   6.695   0.463  11.292 -0.7672 -1.2353 -0.9915
16077TIP3   OH269721   1.396   0.891   2.374  0.4118  0.4398  0.7026
16077TIP3    H169722   1.470   0.899   2.313  0.2660  0.1934  0.4927
16077TIP3    H269723   1.369   0.981   2.392 -1.4720  0.4394 -1.9397
16078TIP3   OH269724   5.518   5.095   0.661  0.5832 -0.1671  0.2333
16078TIP3    H169725   5.535   5.027   0.727 -0.6063 -1.7043 -1.0023
16078TIP3    H269726   5.592   5.090   0.601  1.9749  1.6441  1.7392
16079TIP3   OH269727   5.558   5.414   3.186 -0.1983 -0.0734  0.2879
16079TIP3    H169728   5.645   5.434   3.221 -0.4951  1.0241  0.4257
16079TIP3    H269729   5.556   5.457   3.101 -0.6432  0.0268  0.3450
16080TIP3   OH269730   1.082   3.417   0.825 -0.0237 -0.4111  0.0088
16080TIP3    H169731   0.988   3.434   0.822 -0.0604 -0.6562 -0.2356
16080TIP3    H269732   1.093   3.353   0.895 -0.3129 -2.1518 -1.5151
16081TIP3   OH269733   0.073   0.556  14.419  0.4852 -0.4148  0.1461
16081TIP3    H169734   0.020   0.489  14.463 -1.2991  2.3856  2.4038
16081TIP3    H269735   0.145   0.572  14.480 -1.5953  2.9509  1.8903
16082TIP3   OH269736   1.049   1.609  13.242  0.4701  0.1054  0.0523
16082TIP3    H169737   0.994   1.682  13.212 -0.2489 -1.1904 -1.9318
16082TIP3    H269738   0.986   1.544  13.275  1.0338 -0.0594  0.8073
16083TIP3   OH269739   0.641   4.993  16.065 -0.5854 -0.0126 -0.4420
16083TIP3    H169740   0.641   5.029  15.976  0.3180  0.1599 -0.3733
16083TIP3    H269741   0.673   5.064  16.120  1.2495 -0.9156 -0.3084
16084TIP3   OH269742   5.515   3.911   3.216 -0.1660  0.2699  0.0400
16084TIP3    H169743   5.433   3.909   3.166  0.1635  1.8731 -0.6006
16084TIP3    H269744   5.500   3.978   3.283  0.0506 -0.5853  0.9599
16085TIP3   OH269745   1.801   2.332   2.998 -0.1917  0.3933 -0.4349
16085TIP3    H169746   1.745   2.406   2.975  0.2064  1.3188  1.4664
16085TIP3    H269747   1.745   2.255   2.989 -0.8212  0.9980 -1.7095
16086TIP3   OH269748   0.027   0.055   0.844 -0.1519 -0.3308 -0.4144
16086TIP3    H169749  -0.002   0.080   0.756  1.4905  1.0925 -0.5779
16086TIP3    H269750   0.086  -0.019   0.830 -2.8074 -2.5628 -0.1656
16087TIP3   OH269751   3.836   3.845   1.614  0.7063  0.2792  0.0548
16087TIP3    H169752   3.780   3.923   1.619 -1.4886 -1.2909  0.7240
16087TIP3    H269753   3.842   3.814   1.705  0.5436 -1.0260 -0.3716
16088TIP3   OH269754   2.741   5.507  14.843 -0.6134  0.4859  0.2730
16088TIP3    H169755   2.743   5.412  14.829  0.4454  0.6080 -0.4869
16088TIP3    H269756   2.733   5.517  14.938 -1.8594 -0.3550  0.2666
16089TIP3   OH269757   0.725   4.308   4.328 -0.1041 -0.2307  0.6134
16089TIP3    H169758   0.781   4.377   4.292 -0.6512  0.3628  0.8922
16089TIP3    H269759   0.691   4.262   4.252 -0.0238  0.0369  0.4131
16090TIP3   OH269760   3.137   1.341  15.418  1.0075 -0.0465 -0.3510
16090TIP3    H169761   3.062   1.301  15.460 -0.3087  2.1718 -0.5034
16090TIP3    H269762   3.208   1.278  15.430 -0.4148 -1.3708  1.3665
16091TIP3   OH269763   4.925   0.531   0.974 -0.2351  0.1877  0.5574
16091TIP3    H169764   4.998   0.588   0.952  0.6046 -1.4968 -1.1127
16091TIP3    H269765   4.850   0.590   0.980  1.0162  1.7780  1.2016
16092TIP3   OH269766   6.017   4.927  12.160  0.2258  0.3428 -0.1074
16092TIP3    H169767   5.969   4.891  12.235 -1.0218 -0.5298 -1.3030
16092TIP3    H269768   6.067   4.852  12.127  0.4104  0.6104 -0.4269
16093TIP3   OH269769   0.776   0.508  12.484 -0.4369 -0.5822 -0.1176
16093TIP3    H169770   0.825   0.426  12.480  0.6892  0.0874 -0.1355
16093TIP3    H269771   0.727   0.510  12.401 -0.4250 -1.2003 -0.1430
16094TIP3   OH269772   3.449   4.194   5.554  0.1923  0.2202  0.2415
16094TIP3    H169773   3.379   4.193   5.489  2.2642  2.0055 -2.1559
16094TIP3    H269774   3.461   4.287   5.574  3.0687  0.1449 -0.8607
16095TIP3   OH269775   4.593   5.953   1.301 -0.5142  0.3082 -0.3991
16095TIP3    H169776   4.680   5.916   1.286  0.0836  0.4069  2.5487
16095TIP3    H269777   4.541   5.881   1.336 -0.4317  1.2284  1.7061
16096TIP3   OH269778   2.659   6.813   1.278  0.7535  0.0982  0.0134
16096TIP3    H169779   2.708   6.860   1.210  2.4807 -0.3145  0.9386
16096TIP3    H269780   2.649   6.877   1.349 -0.4198  0.3014 -0.3187
16097TIP3   OH269781   3.679   4.371  12.133 -0.1709 -0.2027  0.3050
16097TIP3    H169782   3.596   4.419  12.125 -0.8783 -1.2291  1.5357
16097TIP3    H269783   3.746   4.437  12.110 -1.3148  0.5480 -1.0026
16098TIP3   OH269784   0.909   6.443   3.815 -0.1285 -0.1812 -0.2359
16098TIP3    H169785   0.859   6.364   3.794 -0.6174  0.0667 -0.0051
16098TIP3    H269786   0.919   6.441   3.911 -0.7846  0.4145 -0.1465
16099TIP3   OH269787   2.082   1.888   1.220 -0.4819  0.1918  0.6353
16099TIP3    H169788   1.998   1.898   1.264 -0.3969  1.7376  0.4749
16099TIP3    H269789   2.145   1.873   1.291 -0.7674 -0.1707  0.8138
16100TIP3   OH269790   3.887   6.177  14.854  0.0385  0.8716  0.6823
16100TIP3    H169791   3.845   6.257  14.822 -0.6601  0.4247  0.4601
16100TIP3    H269792   3.827   6.142  14.919 -0.3697 -0.2474 -0.2789
16101TIP3   OH269793   1.563   3.794  16.410  0.0651  0.2889 -0.1949
16101TIP3    H169794   1.557   3.856  16.482  0.2146  2.0134 -1.6067
16101TIP3    H269795   1.655   3.765  16.411 -0.3147 -0.9103  1.2501
16102TIP3   OH269796   5.474   6.555   4.557  0.3843  0.4870 -0.0103
16102TIP3    H169797   5.486   6.559   4.652 -1.8997  1.9090  0.2441
16102TIP3    H269798   5.388   6.516   4.545 -0.0309  1.8104 -1.4612
16103TIP3   OH269799   6.531   4.704  13.877 -0.1869  0.3024  0.0466
16103TIP3    H169800   6.480   4.641  13.927 -0.0841 -0.1387 -0.4045
16103TIP3    H269801   6.467   4.745  13.818 -0.0522 -0.1292 -0.3988
16104TIP3   OH269802   5.907   1.916  14.158  0.0323  0.0273  0.6771
16104TIP3    H169803   5.995   1.887  14.181 -0.1138 -0.9989 -0.0587
16104TIP3    H269804   5.911   2.012  14.164  2.2551  0.2479 -3.0159
16105TIP3   OH269805   5.266   2.217   5.975 -0.3462  0.1428 -0.1166
16105TIP3    H169806   5.215   2.292   6.006 -0.5892 -0.0296 -0.0901
16105TIP3    H269807   5.204   2.144   5.978 -0.0974 -0.0693 -0.0884
16106TIP3   OH269808   4.882   0.380  16.651 -0.2463  0.0173 -0.0300
16106TIP3    H169809   4.865   0.320  16.578  1.7834 -0.0781 -0.4417
16106TIP3    H269810   4.805   0.371  16.707 -0.6082 -1.9135 -0.7970
16107TIP3   OH269811   3.558   3.362  13.546 -0.3591 -0.5396 -0.0771
16107TIP3    H169812   3.577   3.270  13.564  0.1025 -0.4312 -0.0192
16107TIP3    H269813   3.527   3.362  13.455  2.3693 -0.3783 -1.0396
16108TIP3   OH269814   5.733   5.904  11.629 -0.3452 -0.6599  0.6664
16108TIP3    H169815   5.796   5.862  11.689  0.4628  0.1170  0.3769
16108TIP3    H269816   5.778   5.906  11.545  0.6893  3.0491  1.2050
16109TIP3   OH269817   1.172   2.805  14.521 -0.1888  0.3980 -0.8985
16109TIP3    H169818   1.255   2.758  14.535  0.0167  0.5457 -1.6012
16109TIP3    H269819   1.198   2.888  14.482 -0.6936  0.3020 -1.4482
16110TIP3   OH269820   3.591   6.240  14.222  0.0890 -0.6158 -0.1871
16110TIP3    H169821   3.568   6.206  14.308 -0.1129  2.0715  0.8859
16110TIP3    H269822   3.508   6.266  14.183  0.4385  1.0725  0.1303
16111TIP3   OH269823   3.603   6.775   1.184  0.1580 -0.0953 -0.0325
16111TIP3    H169824   3.580   6.814   1.268 -0.2916 -0.2081 -0.1012
16111TIP3    H269825   3.534   6.710   1.168  1.5315 -1.7575  0.6571
16112TIP3   OH269826   3.550   0.024  13.072  0.0002  0.3063 -0.5757
16112TIP3    H169827   3.543   0.039  12.978 -2.8633  3.5579  0.0426
16112TIP3    H269828   3.467  -0.017  13.096 -0.4174  1.9501  0.9038
16113TIP3   OH269829   3.769   0.520  10.738  0.1353  0.0929 -0.0428
16113TIP3    H169830   3.806   0.608  10.742 -0.4952  0.4124 -1.0475
16113TIP3    H269831   3.750   0.498  10.829  1.4023  0.5107  0.3333
16114TIP3   OH269832   5.878   1.853   0.830  0.1250  0.1674  0.1623
16114TIP3    H169833   5.959   1.802   0.827  0.9768  1.4960  0.3124
16114TIP3    H269834   5.819   1.800   0.884  1.5606  0.1304  1.7400
16115TIP3   OH269835   2.618   3.108   5.420  0.3426 -0.4345 -0.1257
16115TIP3    H169836   2.557   3.103   5.494 -0.3592 -0.2704 -0.6802
16115TIP3    H269837   2.700   3.073   5.454  0.4770  1.1275  1.1746
16116TIP3   OH269838   6.315   4.948  13.898  0.2234 -0.4075  0.2632
16116TIP3    H169839   6.254   5.016  13.869  0.0972 -0.9996 -0.8796
16116TIP3    H269840   6.284   4.868  13.855 -0.6259 -1.5357  2.9043
16117TIP3   OH269841   5.105   3.141   2.296  0.0499  0.0481 -0.1963
16117TIP3    H169842   5.073   3.174   2.380  0.7740 -0.6026  0.3349
16117TIP3    H269843   5.200   3.148   2.302  0.1781 -1.4987 -0.3451
16118TIP3   OH269844   4.707   5.529   5.517 -0.5548  0.6862  0.0852
16118TIP3    H169845   4.694   5.434   5.514 -0.3665  0.6498  0.4299
16118TIP3    H269846   4.621   5.566   5.497 -1.4160  0.4506  3.0657
16119TIP3   OH269847   4.418   1.112  15.268 -0.4336  0.2129  0.2055
16119TIP3    H169848   4.500   1.158  15.286  0.1310 -1.0990  1.0500
16119TIP3    H269849   4.399   1.131  15.176  2.7323 -2.3783 -1.0872
16120TIP3   OH269850   1.737   6.450   4.022  0.3422  0.0888 -0.6148
16120TIP3    H169851   1.741   6.472   3.929  1.7924 -1.1778 -0.8521
16120TIP3    H269852   1.789   6.518   4.065  0.8976 -0.1825 -0.8677
16121TIP3   OH269853   0.655   4.645  12.802 -0.3512 -0.0105 -0.2281
16121TIP3    H169854   0.679   4.565  12.756 -0.5829  0.4870 -1.2286
16121TIP3    H269855   0.710   4.713  12.763 -2.7502  0.9886 -1.9597
16122TIP3   OH269856   2.206   3.688  11.523  0.3687 -0.0750  0.1479
16122TIP3    H169857   2.226   3.597  11.546  1.8635  0.5929  1.5736
16122TIP3    H269858   2.111   3.694  11.533  0.3604 -1.2534  0.9162
16123TIP3   OH269859   5.719   0.035  12.527  0.2093  0.2049 -0.6873
16123TIP3    H169860   5.650  -0.021  12.491 -1.1586  1.4120  0.0483
16123TIP3    H269861   5.673   0.098  12.581  1.9390  0.7646  0.1476
16124TIP3   OH269862   4.632   2.728  14.798  0.4283 -0.0217 -0.0161
16124TIP3    H169863   4.581   2.784  14.857  1.3387  3.0594 -2.0132
16124TIP3    H269864   4.704   2.695  14.852  0.4350  1.5671  0.9798
16125TIP3   OH269865   1.768   4.358   1.744 -0.1759  0.7101 -0.2025
16125TIP3    H169866   1.840   4.336   1.686 -0.7535  0.0335 -0.6680
16125TIP3    H269867   1.691   4.320   1.702 -0.7497  1.1137  0.4756
16126TIP3   OH269868   0.289   6.333   6.214  0.0126 -0.2086 -0.4294
16126TIP3    H169869   0.256   6.364   6.130 -0.5085  1.0920  0.2474
16126TIP3    H269870   0.326   6.411   6.256 -0.3563 -0.6975  0.8441
16127TIP3   OH269871   4.534   5.632   3.728 -0.1704 -0.2683  0.2110
16127TIP3    H169872   4.526   5.589   3.643 -2.2460  1.5297 -0.5362
16127TIP3    H269873   4.534   5.725   3.709 -0.9312  0.1696  2.2104
16128TIP3   OH269874   3.001   4.952   4.413  0.0275  0.2823 -0.0582
16128TIP3    H169875   3.041   4.933   4.329 -0.1086 -0.8556  0.1171
16128TIP3    H269876   2.954   4.871   4.436 -1.2486  1.1228  0.3598
16129TIP3   OH269877   3.890   2.617   3.172 -0.1518 -0.1986 -0.2461
16129TIP3    H169878   3.878   2.650   3.083 -1.3642 -0.8025 -0.3100
16129TIP3    H269879   3.832   2.541   3.178  1.6627 -1.5958  0.3042
16130TIP3   OH269880   3.468   3.098  15.791  0.0330 -0.2215 -0.7653
16130TIP3    H169881   3.561   3.080  15.796 -0.0070 -0.0451  0.9066
16130TIP3    H269882   3.462   3.194  15.784 -0.0099 -0.2368 -0.9309
16131TIP3   OH269883   5.632   0.263  12.181  0.5732 -0.0988 -0.4244
16131TIP3    H169884   5.626   0.175  12.142  2.1532  0.4229 -1.8909
16131TIP3    H269885   5.575   0.258  12.258 -0.3719 -2.0207 -1.2003
16132TIP3   OH269886   3.217   1.152   0.370  0.2870  0.7495 -0.0019
16132TIP3    H169887   3.156   1.161   0.297  1.7141  1.6758 -1.1042
16132TIP3    H269888   3.227   1.058   0.382 -0.1830  0.5983 -0.7985
16133TIP3   OH269889   2.560   6.083  11.986 -0.3380 -0.0684  0.3011
16133TIP3    H169890   2.605   6.070  12.069 -0.1327 -1.0713  0.0307
16133TIP3    H269891   2.472   6.047  11.999  0.0803 -1.3279 -0.2936
16134TIP3   OH269892   1.626   3.457  11.995  0.2323  0.4043 -0.1724
16134TIP3    H169893   1.568   3.392  12.034  2.1343 -1.1834  0.1030
16134TIP3    H269894   1.701   3.460  12.054  1.7305  0.3071 -2.0159
16135TIP3   OH269895   4.207   3.697  12.821  0.2551  0.2104  0.2917
16135TIP3    H169896   4.297   3.679  12.794  0.1570 -1.1914  0.8779
16135TIP3    H269897   4.156   3.689  12.741  0.3407 -1.2508  0.3752
16136TIP3   OH269898   3.857   3.702   0.654 -0.4890  0.3046  0.6869
16136TIP3    H169899   3.860   3.688   0.748 -0.3238 -0.2576  0.5969
16136TIP3    H269900   3.899   3.625   0.616 -0.1918  0.7109  0.1684
16137TIP3   OH269901   5.702   4.279   3.463 -0.2408 -0.0976  0.0741
16137TIP3    H169902   5.798   4.286   3.467 -0.3965  1.9272  1.4241
16137TIP3    H269903   5.679   4.228   3.541 -0.2693 -0.2313 -0.0234
16138TIP3   OH269904   1.789   0.811  13.055  0.7465  0.3424 -0.0173
16138TIP3    H169905   1.766   0.857  12.974 -0.0202  1.2964  0.7344
16138TIP3    H269906   1.878   0.778  13.039  0.5500  0.4060 -1.2952
16139TIP3   OH269907   3.472   3.764   4.348 -0.3677 -0.3280  0.0992
16139TIP3    H169908   3.514   3.762   4.434  2.4348  0.0147 -1.1939
16139TIP3    H269909   3.491   3.852   4.314 -0.1818 -0.9490 -1.4517
16140TIP3   OH269910   0.104   1.037  14.426 -0.4699  0.1503 -0.5807
16140TIP3    H169911   0.178   1.060  14.482 -0.7931  0.4132 -0.2605
16140TIP3    H269912   0.135   0.964  14.373 -0.3054 -0.3896  0.2562
16141TIP3   OH269913   3.842   1.356   0.703 -0.1109  0.6298 -0.2049
16141TIP3    H169914   3.918   1.314   0.743 -1.2996 -1.2066  0.1606
16141TIP3    H269915   3.874   1.388   0.619  0.7011 -1.4889 -0.7254
16142TIP3   OH269916   0.923   0.814  15.587  0.1797 -0.0644 -0.4033
16142TIP3    H169917   0.902   0.840  15.497  2.2690 -0.4657 -1.0163
16142TIP3    H269918   1.006   0.857  15.605  0.7062 -1.5163  0.6737
16143TIP3   OH269919   1.286   1.010   4.720  0.2986 -0.0577  0.6314
16143TIP3    H169920   1.351   1.081   4.724  1.8951 -1.4458 -0.0515
16143TIP3    H269921   1.243   1.013   4.806 -0.4384  2.4232  0.2193
16144TIP3   OH269922   0.240   1.423  11.581 -0.3841  0.1917 -0.5272
16144TIP3    H169923   0.282   1.431  11.495  0.7426 -1.0350 -0.1091
16144TIP3    H269924   0.146   1.434  11.563 -0.2692 -1.0945 -2.0753
16145TIP3   OH269925   4.672   3.079  15.885 -0.3603 -0.1248  0.2467
16145TIP3    H169926   4.717   2.998  15.860  0.2767 -0.0135  0.9951
16145TIP3    H269927   4.589   3.076  15.838  0.3425 -0.4288 -1.0240
16146TIP3   OH269928   0.981   4.348  11.329  0.1895  0.2431 -0.3539
16146TIP3    H169929   0.947   4.431  11.295 -1.2817 -0.0517  0.3196
16146TIP3    H269930   1.051   4.324  11.270 -1.6937  0.2090 -2.6511
16147TIP3   OH269931   3.038   2.682  11.386 -0.1782 -0.1239 -0.0024
16147TIP3    H169932   3.050   2.765  11.340  0.1130 -0.4158 -0.4586
16147TIP3    H269933   2.968   2.638  11.338 -0.2912 -0.1711  0.2042
16148TIP3   OH269934   1.102   6.337   2.258 -0.0048 -0.1190  0.3539
16148TIP3    H169935   1.043   6.402   2.222  1.6521  0.5105 -1.3167
16148TIP3    H269936   1.136   6.289   2.182  2.0194 -0.1034  1.2013
16149TIP3   OH269937   2.497   3.803  15.727 -0.0526  0.5475 -0.7824
16149TIP3    H169938   2.503   3.763  15.813  2.5967  1.9044 -0.2818
16149TIP3    H269939   2.501   3.730  15.666 -2.4016 -0.4625  0.2325
16150TIP3   OH269940   4.783   4.737   2.072 -0.4458  0.3254  0.3678
16150TIP3    H169941   4.786   4.710   1.980 -0.0913  3.2297 -0.5373
16150TIP3    H269942   4.727   4.672   2.114  0.8163 -2.0659 -1.5116
16151TIP3   OH269943   5.486   0.353  11.249  0.0923  0.7835 -0.0470
16151TIP3    H169944   5.496   0.428  11.190  1.0826  1.6533  1.1997
16151TIP3    H269945   5.437   0.289  11.198 -1.2149  2.4798 -0.9623
16152TIP3   OH269946   1.265   2.557   1.959 -0.1518  0.2051  0.0072
16152TIP3    H169947   1.223   2.574   2.043 -2.3384 -0.3076 -0.9349
16152TIP3    H269948   1.242   2.466   1.938  0.7780  0.1653 -0.9018
16153TIP3   OH269949   0.686   3.280  11.064 -0.6422  0.4129 -0.8346
16153TIP3    H169950   0.628   3.254  11.136  1.3758  2.8249  1.8275
16153TIP3    H269951   0.725   3.198  11.033 -1.2289 -0.6444  1.1377
16154TIP3   OH269952   1.674   4.648  13.141 -0.1082 -0.7181  0.0275
16154TIP3    H169953   1.698   4.557  13.119  0.5981 -0.5477  0.0712
16154TIP3    H269954   1.583   4.643  13.168 -0.1522 -1.3785 -0.2305
16155TIP3   OH269955   2.362   3.445  13.318  0.7761  0.0552  0.5534
16155TIP3    H169956   2.301   3.425  13.247  0.5637 -1.4784  1.1608
16155TIP3    H269957   2.358   3.540  13.326 -0.6528  0.0726 -0.1896
16156TIP3   OH269958   4.052   2.070  14.008 -0.1854  0.0886 -0.3486
16156TIP3    H169959   4.066   2.158  13.973  1.0246 -0.4341 -1.1988
16156TIP3    H269960   4.014   2.021  13.935 -1.9295  0.1980  0.4641
16157TIP3   OH269961   1.877   2.471   1.579  0.3464  0.0141 -0.3667
16157TIP3    H169962   1.948   2.474   1.643  2.2842  3.0389 -2.4700
16157TIP3    H269963   1.800   2.504   1.626  0.5928 -2.1225  1.6048
16158TIP3   OH269964   5.500   0.370   3.160  0.1029 -0.1810 -0.2569
16158TIP3    H169965   5.584   0.324   3.164  0.0255 -0.2550  0.6731
16158TIP3    H269966   5.523   0.460   3.138  0.5057  0.0096  0.9312
16159TIP3   OH269967   3.999   3.678  14.002 -0.2021 -0.3087  0.9824
16159TIP3    H169968   4.094   3.686  13.995 -0.2208  0.0514  1.1106
16159TIP3    H269969   3.985   3.618  14.075 -0.0935  1.2283  2.3024
16160TIP3   OH269970   5.886   6.048  15.803 -0.3303 -0.1029 -0.2973
16160TIP3    H169971   5.863   6.042  15.895 -1.0506  1.6966 -0.3426
16160TIP3    H269972   5.912   5.959  15.779 -1.5778 -0.9150  1.2550
16161TIP3   OH269973   4.969   6.532   1.573  0.1731 -0.1176 -0.2365
16161TIP3    H169974   4.907   6.573   1.633  0.7197 -0.1825  0.3748
16161TIP3    H269975   4.931   6.447   1.552  1.1552 -1.1186  1.9329
16162TIP3   OH269976   0.592   0.078   1.676  0.3821 -0.3624 -0.0363
16162TIP3    H169977   0.568   0.019   1.604  1.8966  0.0358 -0.8675
16162TIP3    H269978   0.676   0.115   1.650 -0.5084  2.1049  0.5317
16163TIP3   OH269979   6.252   0.353   6.537 -0.1157 -0.2606  0.0320
16163TIP3    H169980   6.218   0.405   6.609  0.0842  0.1229 -0.1477
16163TIP3    H269981   6.176   0.336   6.481 -0.1598 -0.0799  0.0386
16164TIP3   OH269982   0.158   0.620  16.653 -0.3930  0.2308 -0.1455
16164TIP3    H169983   0.106   0.546  16.685 -0.2249  0.2784  0.2344
16164TIP3    H269984   0.236   0.621  16.708  1.0663 -1.1771 -2.1374
16165TIP3   OH269985   5.052   4.112  12.888  0.0830  0.1942 -0.1988
16165TIP3    H169986   4.964   4.137  12.915  0.6015  1.5267  0.3119
16165TIP3    H269987   5.083   4.055  12.958 -0.6854 -1.0121 -0.8160
16166TIP3   OH269988   1.493   5.821  15.456  0.0536  0.0212  0.0056
16166TIP3    H169989   1.444   5.866  15.524 -0.0279  0.6807 -0.4891
16166TIP3    H269990   1.520   5.738  15.497 -0.5102  0.1462  0.6358
16167TIP3   OH269991   0.717   5.342  17.026  0.2751  0.6255 -0.3061
16167TIP3    H169992   0.757   5.280  16.965  1.6901  1.9406 -0.7564
16167TIP3    H269993   0.756   5.427  17.003  1.6124  1.0106  3.0576
16168TIP3   OH269994   2.359   5.396   2.237 -0.0337  0.2131 -0.7892
16168TIP3    H169995   2.281   5.364   2.284  0.5921 -0.5249 -0.2386
16168TIP3    H269996   2.324   5.460   2.175 -1.3541 -1.6109 -1.9975
16169TIP3   OH269997   2.703   3.527   0.275  0.1627 -0.6335 -0.1763
16169TIP3    H169998   2.798   3.525   0.287  0.4568  1.1538 -1.9112
16169TIP3    H269999   2.667   3.512   0.362  2.0642  1.3431  0.9948
16170TIP3   OH270000   4.081   4.547  14.039 -0.1468  0.2455  0.1343
16170TIP3    H170001   4.176   4.552  14.030 -0.1570 -1.6765 -1.3928
16170TIP3    H270002   4.063   4.588  14.123  1.9496  1.4003  0.0669
16171TIP3   OH270003   4.377   0.698  15.778 -0.2345 -0.0981  0.1457
16171TIP3    H170004   4.375   0.655  15.863  0.4564  1.8317  1.1569
16171TIP3    H270005   4.328   0.639  15.720  0.1662 -1.9146  1.6291
16172TIP3   OH270006   3.675   4.747  14.945  0.2522 -0.4743 -0.1908
16172TIP3    H170007   3.656   4.656  14.967 -1.9491  0.1379  0.6262
16172TIP3    H270008   3.622   4.765  14.868 -0.7442  0.6253  0.7339
16173TIP3   OH270009   1.019   4.505  12.139  0.4108  0.7270  0.5775
16173TIP3    H170010   1.039   4.525  12.231  0.9744  0.2555  0.5632
16173TIP3    H270011   1.043   4.413  12.129 -0.9130  0.3947  0.3087
16174TIP3   OH270012   1.290   3.491   6.429 -0.0738 -0.1737 -0.4602
16174TIP3    H170013   1.378   3.488   6.467  0.1060  0.5720 -0.8225
16174TIP3    H270014   1.292   3.425   6.359  0.1695 -0.2095 -0.4205
16175TIP3   OH270015   0.122   3.312  14.965  0.3544 -0.6263 -0.1520
16175TIP3    H170016   0.212   3.342  14.978  0.2911  0.1854 -1.4405
16175TIP3    H270017   0.078   3.330  15.048  0.4393  2.5184 -0.7215
16176TIP3   OH270018   5.893   0.157   7.019  0.4981 -0.0988  0.1850
16176TIP3    H170019   5.959   0.196   6.961  0.0685  1.6006  0.8116
16176TIP3    H270020   5.935   0.154   7.105  0.5329 -1.0766  0.1452
16177TIP3   OH270021   1.592   2.823  13.283  0.2356 -0.6704 -0.0989
16177TIP3    H170022   1.539   2.866  13.215 -1.8824 -0.9190  1.3477
16177TIP3    H270023   1.531   2.809  13.355  2.6297  0.3158  2.1937
16178TIP3   OH270024   0.995   4.909  14.138  0.0792  0.3590 -0.2271
16178TIP3    H170025   1.070   4.942  14.188  0.8430 -0.8650 -0.5277
16178TIP3    H270026   0.982   4.819  14.170 -1.6609  0.7691  0.2529
16179TIP3   OH270027   3.031   3.726  15.542 -0.2915  0.5162  0.3501
16179TIP3    H170028   2.998   3.759  15.625 -1.2024  0.6431 -0.0522
16179TIP3    H270029   3.060   3.804  15.494  0.4420  0.4213  0.6358
16180TIP3   OH270030   4.115   5.477  16.718  0.2674  0.3597  0.0424
16180TIP3    H170031   4.174   5.435  16.656  0.1894  1.9270 -1.1386
16180TIP3    H270032   4.139   5.441  16.803  1.4157 -0.6758 -0.7102
16181TIP3   OH270033   2.507   2.871  13.286  0.0277  0.1208 -0.3750
16181TIP3    H170034   2.467   2.937  13.230 -0.7763 -0.6627 -0.7368
16181TIP3    H270035   2.434   2.836  13.338 -0.0719 -2.4533 -2.1688
16182TIP3   OH270036   2.107   1.630   0.180 -0.2635 -0.0422 -0.5110
16182TIP3    H170037   2.137   1.671   0.099  1.3701  1.4587  0.8081
16182TIP3    H270038   2.019   1.664   0.193 -0.3214  0.1461 -1.3896
16183TIP3   OH270039   6.025   3.820   6.176 -0.1167 -0.7679  0.0781
16183TIP3    H170040   6.006   3.741   6.227 -1.4375 -0.0400  0.7550
16183TIP3    H270041   5.942   3.839   6.131 -0.7757  1.9814  2.3398
16184TIP3   OH270042   4.989   4.954  14.611 -0.0487 -0.1889  0.4693
16184TIP3    H170043   5.017   4.925  14.697 -0.6608  0.0604  0.7549
16184TIP3    H270044   5.066   5.000  14.575  0.8752 -2.0195  0.0633
16185TIP3   OH270045   4.889   3.524   1.840 -0.0785 -0.2398 -0.4880
16185TIP3    H170046   4.880   3.436   1.804 -1.2797 -0.0807 -0.5856
16185TIP3    H270047   4.831   3.525   1.916  0.2130  0.3521 -0.2696
16186TIP3   OH270048   5.142   1.458   3.955  0.8398  0.6020 -0.3894
16186TIP3    H170049   5.172   1.389   3.896 -0.0155 -0.6241  0.5754
16186TIP3    H270050   5.222   1.503   3.982  1.3749  0.2041 -1.2881
16187TIP3   OH270051   4.238   5.975  13.314  0.1143 -0.0919 -0.6986
16187TIP3    H170052   4.320   5.947  13.356  0.0051 -0.9442 -1.0389
16187TIP3    H270053   4.205   6.045  13.370  1.5832  0.9484 -1.0954
16188TIP3   OH270054   1.693   2.380   0.392 -0.4595  0.5655  0.0636
16188TIP3    H170055   1.659   2.437   0.461  0.1331  1.5558 -0.4458
16188TIP3    H270056   1.617   2.333   0.360 -0.9488  1.0215  0.5401
16189TIP3   OH270057   5.559   3.877  15.815 -0.2461 -0.7283  0.3158
16189TIP3    H170058   5.556   3.847  15.906  1.4382 -1.9166 -0.0124
16189TIP3    H270059   5.651   3.901  15.801 -0.3362 -1.3129 -1.3205
16190TIP3   OH270060   2.977   5.858   0.115  0.3754 -0.0735 -0.2793
16190TIP3    H170061   3.054   5.874   0.059  0.8373  3.0298  1.1736
16190TIP3    H270062   3.013   5.848   0.203 -0.6442 -1.8897 -0.0299
16191TIP3   OH270063   0.291   2.235   3.480 -0.1494  0.0783  0.0034
16191TIP3    H170064   0.369   2.248   3.534  0.5875 -1.6049 -0.6043
16191TIP3    H270065   0.219   2.231   3.542  0.4193  0.3370  0.6890
16192TIP3   OH270066   2.845   3.664   2.258  0.1226 -0.0076  0.0199
16192TIP3    H170067   2.783   3.712   2.313  0.0327  0.8875 -0.8673
16192TIP3    H270068   2.792   3.626   2.188  0.7899  2.1766 -1.7131
16193TIP3   OH270069   3.527   1.182  16.023 -0.3722 -0.7625  0.1447
16193TIP3    H170070   3.591   1.220  15.962  0.9291 -0.0067  1.9440
16193TIP3    H270071   3.544   1.088  16.021 -0.0892 -0.7036 -0.3377
16194TIP3   OH270072   1.155   3.119   2.363 -0.4317 -0.0364  0.1647
16194TIP3    H170073   1.087   3.180   2.392 -0.3951  0.0655  0.0362
16194TIP3    H270074   1.215   3.173   2.311  0.2995  0.0967  1.1157
16195TIP3   OH270075   5.967   6.399   5.433  0.0603  0.3019 -0.1213
16195TIP3    H170076   5.972   6.316   5.481 -0.4793 -0.0171 -0.6100
16195TIP3    H270077   6.025   6.458   5.481 -0.3538 -0.0547  0.8386
16196TIP3   OH270078   5.340   4.153   3.742 -0.0712  0.3913  0.0661
16196TIP3    H170079   5.357   4.138   3.835  0.0839  1.3707  0.1950
16196TIP3    H270080   5.326   4.247   3.734 -2.6141 -0.0098 -0.5179
16197TIP3   OH270081   0.114   2.269  15.792  0.2873  0.4152  0.0208
16197TIP3    H170082   0.028   2.234  15.769  0.1550  0.8989 -0.2175
16197TIP3    H270083   0.175   2.227  15.731 -0.0317  1.5370 -1.0850
16198TIP3   OH270084   4.194   0.693   5.369 -0.0065 -0.3026 -0.4053
16198TIP3    H170085   4.204   0.735   5.283  1.4377  0.7336  0.2433
16198TIP3    H270086   4.110   0.723   5.401  0.8282  1.8309 -0.1175
16199TIP3   OH270087   6.593   1.342   3.544  0.5212 -0.1209  0.3451
16199TIP3    H170088   6.564   1.433   3.548  1.6528  0.2615  0.2141
16199TIP3    H270089   6.642   1.329   3.625  1.3380 -0.2564 -0.1589
16200TIP3   OH270090   5.631   3.843  16.078  0.0732  0.2382  0.0585
16200TIP3    H170091   5.606   3.860  16.169  1.1799 -1.0121  0.6291
16200TIP3    H270092   5.663   3.753  16.080  0.0659  0.1977 -1.5886
16201TIP3   OH270093   4.893   1.673  13.003  0.1628  0.4251  0.2972
16201TIP3    H170094   4.970   1.683  13.058 -1.0681  2.2663  1.7673
16201TIP3    H270095   4.867   1.762  12.981 -1.8439 -0.1361  0.2563
16202TIP3   OH270096   5.233   2.152   2.047 -0.4239 -0.1517 -0.2480
16202TIP3    H170097   5.270   2.217   1.987  1.9556 -0.9792  0.2659
16202TIP3    H270098   5.234   2.196   2.133 -1.1304 -0.0007 -0.3120
16203TIP3   OH270099   2.670   2.119  15.734 -0.2458  0.1718  0.3575
16203TIP3    H170100   2.599   2.132  15.671  0.0532  1.2473  0.2508
16203TIP3    H270101   2.723   2.048  15.697 -2.8365 -2.6876  1.7945
16204TIP3   OH270102   1.189   1.436   2.079 -0.0829  0.3324  0.3906
16204TIP3    H170103   1.247   1.434   2.156 -1.9953 -0.6459  1.8490
16204TIP3    H270104   1.226   1.504   2.023  1.0324  1.4585  2.4362
16205TIP3   OH270105   3.085   5.176  15.272 -0.4187  0.2288  0.5307
16205TIP3    H170106   3.065   5.176  15.178 -0.5583  0.9630  0.5600
16205TIP3    H270107   3.010   5.133  15.312 -1.1600  1.4740  0.4776
16206TIP3   OH270108   2.012   0.138   0.813  0.1231  0.4107  0.0980
16206TIP3    H170109   1.933   0.192   0.803  0.3975  0.6426 -0.9525
16206TIP3    H270110   2.012   0.082   0.736  1.3871  0.9545 -0.3166
16207TIP3   OH270111   3.025   3.622   2.708  0.1671 -0.0145  0.2352
16207TIP3    H170112   3.016   3.572   2.789  0.3206 -1.8148 -0.8375
16207TIP3    H270113   2.934   3.640   2.681  0.0848 -1.1668 -0.2578
16208TIP3   OH270114   6.359   2.287  11.352 -0.3172  0.0361  0.1350
16208TIP3    H170115   6.311   2.207  11.374 -0.8018  0.4151  0.4680
16208TIP3    H270116   6.378   2.278  11.259  0.4401 -0.8878  0.3713
16209TIP3   OH270117   5.664   0.423   4.816 -0.2785 -0.3021  0.1341
16209TIP3    H170118   5.733   0.463   4.763 -0.7723 -1.2248 -1.2626
16209TIP3    H270119   5.682   0.451   4.905  0.6532  1.2038 -0.5072
16210TIP3   OH270120   3.372   0.611   3.707  0.3441 -0.3149 -0.4026
16210TIP3    H170121   3.310   0.668   3.661 -0.1698  0.1413  0.8244
16210TIP3    H270122   3.426   0.671   3.758  1.7467 -0.7206 -1.3864
16211TIP3   OH270123   0.067   0.828  11.058  0.1462 -0.0753  0.0731
16211TIP3    H170124   0.140   0.845  10.999 -0.6115  0.6183 -0.6727
16211TIP3    H270125   0.107   0.783  11.133  1.2661 -0.0623 -0.5057
16212TIP3   OH270126   3.891   6.406   5.638 -0.2808 -0.6057 -0.1823
16212TIP3    H170127   3.919   6.351   5.565 -0.2200 -0.9913  0.1332
16212TIP3    H270128   3.891   6.348   5.714 -1.1654 -0.4108 -0.0286
16213TIP3   OH270129   4.969   0.108   3.594  0.1422  0.1484  0.4203
16213TIP3    H170130   4.874   0.116   3.594 -0.0458 -1.1841  3.8741
16213TIP3    H270131   5.000   0.196   3.616 -0.3461  0.3914  0.1401
16214TIP3   OH270132   3.028   6.632   0.726  0.5333  0.0737 -0.0204
16214TIP3    H170133   3.076   6.711   0.750 -1.1958  0.9802  0.5509
16214TIP3    H270134   3.036   6.627   0.631 -2.1771  2.8945 -0.4870
16215TIP3   OH270135   5.360   0.574   4.044 -0.2494  0.3849  0.4339
16215TIP3    H170136   5.331   0.645   3.986 -1.3689  0.5233  1.1584
16215TIP3    H270137   5.340   0.494   3.995 -0.0578  0.5328  0.1086
16216TIP3   OH270138   6.131   6.095   3.693  0.5655  0.4724 -0.1073
16216TIP3    H170139   6.092   6.089   3.606  0.5080  0.0719 -0.0565
16216TIP3    H270140   6.078   6.036   3.747  0.3525  1.0331  0.2893
16217TIP3   OH270141   2.732   5.704  12.607 -0.0264 -0.4527  0.2569
16217TIP3    H170142   2.681   5.743  12.678  1.2500 -0.9663  1.4699
16217TIP3    H270143   2.811   5.758  12.602 -0.3899 -0.0296 -1.2094
16218TIP3   OH270144   0.863   0.164  16.697 -0.1918  0.1376 -0.6579
16218TIP3    H170145   0.864   0.257  16.719  1.1362  0.1704 -0.8704
16218TIP3    H270146   0.943   0.128  16.735 -1.3129 -1.1798  0.5058
16219TIP3   OH270147   2.619   1.766  12.814  0.2311  0.0423  0.3992
16219TIP3    H170148   2.559   1.733  12.746  0.4365 -0.8327  0.6455
16219TIP3    H270149   2.590   1.724  12.895  1.0704 -0.2510  0.5526
16220TIP3   OH270150   6.450   2.007  15.747 -0.7471  0.0216  0.0674
16220TIP3    H170151   6.376   2.067  15.758 -0.8209 -0.1776  0.6771
16220TIP3    H270152   6.437   1.941  15.816 -0.0630 -0.0802  0.0966
16221TIP3   OH270153   3.358   6.596   3.341 -0.0015  0.4751  0.8666
16221TIP3    H170154   3.394   6.510   3.320 -0.0830  0.7018 -0.2211
16221TIP3    H270155   3.299   6.580   3.415 -1.7135 -0.7890 -0.7434
16222TIP3   OH270156   4.211   6.312  14.547 -0.3216 -0.4412  0.2302
16222TIP3    H170157   4.123   6.286  14.519 -0.4146  0.0710  0.0357
16222TIP3    H270158   4.260   6.323  14.465 -0.3841  0.3343  0.2917
16223TIP3   OH270159   5.077   6.813  14.471  0.8369  0.4616 -0.2679
16223TIP3    H170160   5.067   6.741  14.409  1.6378  0.3964 -0.3291
16223TIP3    H270161   5.166   6.803  14.505  0.5595  0.7595  0.5601
16224TIP3   OH270162   1.287   5.122  12.872  1.2796 -0.3310  0.5240
16224TIP3    H170163   1.298   5.150  12.963  1.8967 -0.0716  0.3765
16224TIP3    H270164   1.377   5.110  12.841  1.1202  1.2334 -0.5666
16225TIP3   OH270165   3.657   5.044  14.916 -0.2723 -0.2786 -0.0197
16225TIP3    H170166   3.735   5.070  14.868  0.7020 -0.6995  1.3127
16225TIP3    H270167   3.680   4.961  14.957 -0.4275  0.9588  2.6619
16226TIP3   OH270168   3.161   4.584  10.445 -0.4789 -0.2461 -0.1752
16226TIP3    H170169   3.166   4.679  10.450  0.9003 -0.4180  2.5001
16226TIP3    H270170   3.218   4.561  10.371 -0.5130  0.9511 -0.5802
16227TIP3   OH270171   4.095   2.983  12.677  0.0665 -0.0368 -0.4386
16227TIP3    H170172   4.160   2.926  12.636  3.2740  2.6729  0.6134
16227TIP3    H270173   4.091   3.060  12.620 -1.1569  0.4240  0.2499
16228TIP3   OH270174   2.803   1.534  17.199  0.2005  0.1510 -0.4058
16228TIP3    H170175   2.766   1.621  17.180 -0.6460  0.1020  0.9133
16228TIP3    H270176   2.865   1.550  17.271 -1.2462 -0.5914  1.0310
16229TIP3   OH270177   4.968   1.910  14.347 -0.5008  0.1143  0.2410
16229TIP3    H170178   4.893   1.868  14.304 -1.0255  1.4710 -0.2032
16229TIP3    H270179   4.932   1.989  14.387  0.6464  0.6559  0.2405
16230TIP3   OH270180   4.007   3.488   4.354  0.2378  0.2187 -0.1176
16230TIP3    H170181   4.056   3.485   4.436  0.0974  1.6255  0.0272
16230TIP3    H270182   3.916   3.480   4.380  0.2633 -0.4550 -0.2298
16231TIP3   OH270183   1.880   3.499  12.633  0.0937 -0.1427 -0.0270
16231TIP3    H170184   1.940   3.457  12.571 -0.2942  0.3118 -0.7173
16231TIP3    H270185   1.909   3.590  12.636 -1.4617  0.4162 -1.4709
16232TIP3   OH270186   1.029   4.297   3.975  0.6893 -0.2638  0.2306
16232TIP3    H170187   1.100   4.360   3.965  0.9715 -0.8583 -1.6329
16232TIP3    H270188   1.060   4.235   4.041  0.2142  1.7916  2.4526
16233TIP3   OH270189   0.162   4.923  16.837 -0.1708 -0.1909 -0.0273
16233TIP3    H170190   0.211   4.842  16.827  0.1524  0.0260 -0.2182
16233TIP3    H270191   0.096   4.903  16.903  2.3682  0.5206  2.8423
16234TIP3   OH270192   3.264   1.840   0.560  0.6568 -0.5400 -0.4084
16234TIP3    H170193   3.184   1.833   0.612  2.0490 -0.6958  1.7982
16234TIP3    H270194   3.276   1.754   0.521  0.2479 -0.7904  0.0182
16235TIP3   OH270195   2.195   1.253  15.406  0.4151 -0.3431  0.2414
16235TIP3    H170196   2.130   1.235  15.474  1.0407  0.3629  1.0472
16235TIP3    H270197   2.227   1.341  15.426 -1.8735  1.3284 -3.0091
16236TIP3   OH270198   6.380   0.019   5.681 -0.3961  0.2991  0.2138
16236TIP3    H170199   6.324   0.056   5.612 -0.9986  0.4436  0.7757
16236TIP3    H270200   6.343  -0.067   5.699  1.3893 -0.8668 -1.5417
16237TIP3   OH270201   2.343   2.592  14.622  0.7117  0.5284  0.6880
16237TIP3    H170202   2.298   2.613  14.539  1.1836  2.6230  0.9242
16237TIP3    H270203   2.276   2.604  14.689  0.5797 -0.2192  0.6829
16238TIP3   OH270204   3.215   1.942  16.786 -0.6452  0.0063 -0.0626
16238TIP3    H170205   3.234   1.955  16.878 -0.2959 -1.7141  0.1296
16238TIP3    H270206   3.280   1.878  16.757 -1.6887 -0.5938 -1.1370
16239TIP3   OH270207   2.587   5.813  13.212  0.4266  0.0037  0.1050
16239TIP3    H170208   2.611   5.904  13.192 -1.1733 -0.0129 -1.9959
16239TIP3    H270209   2.661   5.762  13.180 -0.2256  0.3187 -1.9648
16240TIP3   OH270210   6.099   6.435  13.667  0.2439 -0.1401 -0.1434
16240TIP3    H170211   6.169   6.395  13.616  1.5621 -0.2553  1.7133
16240TIP3    H270212   6.075   6.513  13.617  1.8332  0.0156 -0.6965
16241TIP3   OH270213   0.332   4.250   4.525 -0.2918  0.3641 -0.5400
16241TIP3    H170214   0.348   4.210   4.610  0.7826  0.6812 -0.5964
16241TIP3    H270215   0.297   4.337   4.545  0.8712  0.8041 -0.4267
16242TIP3   OH270216   3.614   5.899  11.168 -0.5486  0.3039 -0.1823
16242TIP3    H170217   3.562   5.861  11.239  1.9699 -1.5579  0.7406
16242TIP3    H270218   3.569   5.871  11.088 -1.4413 -0.5543  0.5990
16243TIP3   OH270219   1.206   0.796  11.547  0.5552  0.3955  0.3035
16243TIP3    H170220   1.136   0.733  11.525  0.4386  0.7277 -0.2962
16243TIP3    H270221   1.189   0.820  11.638  1.7211 -1.8909  1.1533
16244TIP3   OH270222   3.028   6.103   4.618 -0.2880  0.4527  0.0037
16244TIP3    H170223   3.079   6.183   4.603 -1.1245  0.4546 -3.1405
16244TIP3    H270224   2.937   6.133   4.621 -0.3335  0.1742  3.5315
16245TIP3   OH270225   3.156   1.914   5.357 -0.0486 -0.1708  0.3718
16245TIP3    H170226   3.159   1.833   5.306 -1.7494 -0.2070  0.3047
16245TIP3    H270227   3.163   1.984   5.292  0.6774 -0.2359  0.3669
16246TIP3   OH270228   6.457   3.214   6.407  0.4484  0.6264 -0.3098
16246TIP3    H170229   6.447   3.137   6.462  0.9775 -0.1794 -1.3302
16246TIP3    H270230   6.442   3.288   6.466  2.5590 -0.1628  1.2450
16247TIP3   OH270231   4.693   2.033  16.621  0.6316  0.2432  0.4142
16247TIP3    H170232   4.727   1.993  16.541  0.4784 -2.4880  1.6712
16247TIP3    H270233   4.755   2.104  16.640  1.5338 -0.0626 -1.2603
16248TIP3   OH270234   4.057   4.516  14.737 -0.1379  0.1065  0.0416
16248TIP3    H170235   4.140   4.472  14.721 -2.5867 -4.1131 -2.0038
16248TIP3    H270236   4.041   4.505  14.831  0.6139 -0.9239  0.0493
16249TIP3   OH270237   2.755   5.165  12.564  0.7092  0.3657 -0.1689
16249TIP3    H170238   2.691   5.115  12.515  0.9002  0.5668 -0.6244
16249TIP3    H270239   2.714   5.251  12.577  0.6551  0.3098  0.0299
16250TIP3   OH270240   4.211   4.639   5.771  0.3726  0.3132  0.2804
16250TIP3    H170241   4.132   4.650   5.718  0.1979  0.4689  0.5708
16250TIP3    H270242   4.183   4.660   5.860  0.4088 -0.9643  0.6034
16251TIP3   OH270243   5.467   5.116   6.640 -0.1172  0.0282 -0.2271
16251TIP3    H170244   5.539   5.057   6.663  2.8965  1.9224 -4.2624
16251TIP3    H270245   5.399   5.059   6.604  0.7349 -1.4517  0.4769
16252TIP3   OH270246   4.475   3.147  15.649 -0.1294 -0.0282  0.2392
16252TIP3    H170247   4.451   3.159  15.557  2.3663  2.8107 -0.1262
16252TIP3    H270248   4.544   3.212  15.664 -0.2784 -0.6534  4.0407
16253TIP3   OH270249   1.967   4.801   4.236  0.1533 -0.7679 -0.4172
16253TIP3    H170250   2.021   4.740   4.186  1.8129 -0.4320  0.9104
16253TIP3    H270251   2.025   4.833   4.305 -1.0760  1.3258 -0.3125
16254TIP3   OH270252   0.218   0.235  11.779 -0.0735 -0.0053  0.3142
16254TIP3    H170253   0.175   0.312  11.818  2.0787  1.7782 -0.7230
16254TIP3    H270254   0.216   0.252  11.685  1.2268 -0.7912  0.1397
16255TIP3   OH270255   0.951   3.589  12.856 -0.1767  0.5440 -0.2353
16255TIP3    H170256   1.025   3.589  12.917  0.5744 -0.6722 -1.0956
16255TIP3    H270257   0.874   3.594  12.912  0.4933 -0.5089  0.8257
16256TIP3   OH270258   6.001   2.879   2.445 -0.1240 -0.2747 -0.5940
16256TIP3    H170259   5.998   2.938   2.369 -0.8038 -0.0974 -0.4290
16256TIP3    H270260   5.913   2.842   2.451  0.0712 -0.6813 -0.1974
16257TIP3   OH270261   6.506   5.494  16.814 -0.0219  0.1170  0.0055
16257TIP3    H170262   6.595   5.521  16.789  0.7797 -1.7804  0.7664
16257TIP3    H270263   6.485   5.423  16.753  0.4377 -1.9274  2.1606
16258TIP3   OH270264   5.127   5.019  10.972 -0.1282  0.9822  1.3578
16258TIP3    H170265   5.217   5.029  11.004  0.3492  0.4652  0.1871
16258TIP3    H270266   5.120   4.927  10.947 -0.8162  1.1443  0.9278
16259TIP3   OH270267   2.553   1.425   3.878  0.7922  0.0394  0.8421
16259TIP3    H170268   2.521   1.405   3.966 -0.4182  1.1198  0.6532
16259TIP3    H270269   2.518   1.512   3.859  1.8340  0.2111 -0.3360
16260TIP3   OH270270   2.625   0.567   0.873  0.0210 -0.4319  0.6062
16260TIP3    H170271   2.713   0.531   0.864 -0.6878 -1.9844 -0.2723
16260TIP3    H270272   2.571   0.514   0.815 -1.4029  0.8549  0.7219
16261TIP3   OH270273   2.087   1.476  14.883 -0.1854 -0.2429  0.4776
16261TIP3    H170274   2.101   1.447  14.974  1.3705 -2.0846 -0.3164
16261TIP3    H270275   2.174   1.471  14.843 -0.8779  0.5247 -1.1351
16262TIP3   OH270276   2.035   0.130  16.762 -0.5739 -0.0440  0.4290
16262TIP3    H170277   1.946   0.111  16.789 -0.0901 -0.4410  1.7788
16262TIP3    H270278   2.066   0.049  16.722 -0.7640  0.0494  0.0906
16263TIP3   OH270279   5.224   2.145  16.485  0.6590 -0.4015  0.4902
16263TIP3    H170280   5.226   2.079  16.555 -1.6326  0.4994  1.4594
16263TIP3    H270281   5.254   2.225  16.528  1.3371 -0.3275 -0.1237
16264TIP3   OH270282   5.540   6.489   5.129  0.1600 -0.7336 -0.2512
16264TIP3    H170283   5.486   6.565   5.148  0.4815 -0.8734  1.3212
16264TIP3    H270284   5.477   6.418   5.116 -0.1701 -0.0703 -2.4674
16265TIP3   OH270285   3.479   0.753   3.439 -0.4388 -0.3455  0.1498
16265TIP3    H170286   3.401   0.784   3.485 -0.3813 -0.3758  0.2658
16265TIP3    H270287   3.542   0.825   3.446 -0.2127 -0.5885  0.6430
16266TIP3   OH270288   3.645   0.448   0.008  0.6113  0.5867  0.2151
16266TIP3    H170289   3.589   0.393  -0.048  1.2163 -0.1087  0.2865
16266TIP3    H270290   3.626   0.419   0.097 -1.5192  2.7796  0.5012
16267TIP3   OH270291   1.290   4.357  15.442  0.1950  0.4842  0.4962
16267TIP3    H170292   1.372   4.308  15.445  0.3564  0.5202 -1.7792
16267TIP3    H270293   1.245   4.335  15.523  1.5263 -1.1722  0.8144
16268TIP3   OH270294   4.182   3.375  14.042 -0.0129  0.5207  0.6021
16268TIP3    H170295   4.245   3.384  13.970  0.8802  0.0751  1.3236
16268TIP3    H270296   4.191   3.284  14.071 -0.5734  0.6181  1.0856
16269TIP3   OH270297   6.191   2.418   2.117 -0.2569  0.5682  0.1726
16269TIP3    H170298   6.219   2.365   2.190  1.7585  1.1327 -0.1658
16269TIP3    H270299   6.188   2.508   2.151  2.3729  1.0814 -0.8483
16270TIP3   OH270300   0.426   3.757  14.940  0.9384  0.7364 -0.4592
16270TIP3    H170301   0.511   3.731  14.906 -0.3405 -3.2192 -0.9193
16270TIP3    H270302   0.367   3.754  14.865 -0.4740 -1.0500  0.6585
16271TIP3   OH270303   4.469   4.482   3.125  0.4169 -0.0817 -0.0966
16271TIP3    H170304   4.521   4.544   3.176 -0.7335  0.1409  0.8017
16271TIP3    H270305   4.384   4.523   3.115  0.0904 -0.8883 -0.7220
16272TIP3   OH270306   0.595   1.482   2.202 -0.0676  0.0527  0.4657
16272TIP3    H170307   0.589   1.393   2.237  0.4087  0.2904  1.1795
16272TIP3    H270308   0.505   1.506   2.179 -0.5923  0.3478  2.7149
16273TIP3   OH270309   3.936   1.914  11.589  0.1687  0.1566 -0.2010
16273TIP3    H170310   4.006   1.859  11.554 -0.8883 -0.4068 -1.4855
16273TIP3    H270311   3.963   2.003  11.567 -0.6036 -0.1992 -2.7953
16274TIP3   OH270312   5.547   1.690   3.053 -0.0780 -0.5560  0.3005
16274TIP3    H170313   5.476   1.686   3.117 -0.7062  0.6526 -0.2832
16274TIP3    H270314   5.563   1.599   3.028 -0.4560 -0.9523  1.4831
16275TIP3   OH270315   3.371   2.139   5.984  0.2859  0.5209  0.1866
16275TIP3    H170316   3.442   2.165   5.925  2.1575  1.1519  2.6180
16275TIP3    H270317   3.327   2.221   6.005 -0.4954  0.2721 -0.4578
16276TIP3   OH270318   2.940   4.953   0.912 -0.1175  0.5272  0.3552
16276TIP3    H170319   3.019   4.957   0.967  1.6021 -0.9452 -1.8789
16276TIP3    H270320   2.867   4.963   0.973  1.7577  0.4353  2.6805
16277TIP3   OH270321   1.724   4.661  15.988  0.2809  0.5692 -0.6396
16277TIP3    H170322   1.767   4.610  16.057 -1.6713 -0.1923  0.0549
16277TIP3    H270323   1.796   4.702  15.941  1.8099 -1.2115  0.0518
16278TIP3   OH270324   2.267   5.088  16.950 -0.0957  0.3403  0.5419
16278TIP3    H170325   2.250   5.163  17.006 -1.0915  0.9061 -0.4946
16278TIP3    H270326   2.193   5.086  16.889  0.9465 -0.2705 -0.7423
16279TIP3   OH270327   6.360   1.454  14.576 -0.3602 -0.5359  0.2577
16279TIP3    H170328   6.304   1.520  14.616 -0.1066  0.1938 -0.5711
16279TIP3    H270329   6.319   1.436  14.491  0.5462 -0.1154 -0.2856
16280TIP3   OH270330   6.608   0.511   3.290  0.3869  0.7062 -0.6110
16280TIP3    H170331   6.656   0.460   3.356 -1.2234  0.3436  0.3089
16280TIP3    H270332   6.660   0.589   3.276  0.9222  0.6022  0.8255
16281TIP3   OH270333   1.735   0.975   3.156 -0.0518  0.4665 -1.0964
16281TIP3    H170334   1.748   0.894   3.206  2.2115  1.6314  0.2696
16281TIP3    H270335   1.668   1.022   3.205 -0.0963  0.2056 -0.9028
16282TIP3   OH270336   3.068   6.079   4.049  0.0863  0.4784 -0.6640
16282TIP3    H170337   2.993   6.085   4.108 -0.5164  0.1880 -1.3907
16282TIP3    H270338   3.084   5.985   4.041 -0.2892  0.4858 -1.5280
16283TIP3   OH270339   3.737   3.449   0.339  0.3288  0.0339 -0.0944
16283TIP3    H170340   3.822   3.414   0.366  0.1995 -0.7151 -0.6255
16283TIP3    H270341   3.743   3.455   0.243  0.2739  1.2871 -0.0305
16284TIP3   OH270342   2.047   4.761   0.931  0.8868  0.1238 -0.4688
16284TIP3    H170343   2.097   4.802   1.002  0.0228  0.0985  0.1649
16284TIP3    H270344   1.959   4.752   0.967  0.3511  0.4596 -1.6941
16285TIP3   OH270345   0.227   6.577   2.930  0.1994  0.1635  0.1800
16285TIP3    H170346   0.140   6.549   2.958  0.1556 -0.5623 -0.6739
16285TIP3    H270347   0.240   6.662   2.973  0.5687 -1.3829  3.3067
16286TIP3   OH270348   4.016   6.060  15.486 -0.1858  0.2062 -0.3764
16286TIP3    H170349   4.045   6.139  15.531  1.6648 -1.3263  1.2377
16286TIP3    H270350   4.070   6.056  15.407  1.4346 -0.6850  0.7548
16287TIP3   OH270351   3.715   2.315   1.885  0.0637 -0.2947  0.0213
16287TIP3    H170352   3.643   2.372   1.860 -3.0053 -2.8809  2.5716
16287TIP3    H270353   3.758   2.360   1.958 -1.3760 -0.4933  1.0007
16288TIP3   OH270354   1.525   6.312   0.908  0.2365  0.3451 -0.3833
16288TIP3    H170355   1.490   6.347   0.990 -1.0969 -0.8590 -0.4198
16288TIP3    H270356   1.512   6.383   0.845 -1.2060  0.3226 -0.1433
16289TIP3   OH270357   3.972   5.611   1.093  0.0960  0.2261 -0.1800
16289TIP3    H170358   4.029   5.617   1.170  1.4600 -0.3324 -1.1347
16289TIP3    H270359   3.884   5.599   1.130  0.8681 -1.1329  1.3044
16290TIP3   OH270360   2.783   0.311  15.405 -0.1981  0.2850  0.1651
16290TIP3    H170361   2.804   0.317  15.499  0.2745 -3.1424  0.3471
16290TIP3    H270362   2.868   0.306  15.361 -0.4397 -0.9481 -0.1817
16291TIP3   OH270363   1.457   6.325   1.352  0.2457  0.4973 -0.4532
16291TIP3    H170364   1.516   6.342   1.425 -0.2407 -1.1997  0.3595
16291TIP3    H270365   1.482   6.239   1.320 -1.0950  0.2131 -0.7695
16292TIP3   OH270366   1.629   0.934  14.835  0.1514 -0.3954 -0.1969
16292TIP3    H170367   1.566   0.880  14.785  0.0072  1.0474 -1.5980
16292TIP3    H270368   1.712   0.923  14.788  0.5507 -0.8689  0.6130
16293TIP3   OH270369   4.060   4.335   0.009 -0.0688  0.1364 -0.0276
16293TIP3    H170370   4.130   4.393   0.041  0.0475 -0.7748  1.4509
16293TIP3    H270371   4.107   4.262  -0.032 -0.0584 -1.2810  2.3903
16294TIP3   OH270372   6.538   5.636  13.534 -0.2276  0.2175 -0.4330
16294TIP3    H170373   6.462   5.686  13.504 -2.3878 -2.8378 -0.2480
16294TIP3    H270374   6.514   5.605  13.621  0.8104 -1.7065 -0.8152
16295TIP3   OH270375   3.651   2.262  14.947  0.2920  0.0263 -0.2484
16295TIP3    H170376   3.696   2.178  14.942 -0.6146 -0.5479  1.0696
16295TIP3    H270377   3.692   2.315  14.878  0.8071 -1.5126 -1.1618
16296TIP3   OH270378   6.092   1.141   3.131  0.1196 -0.0543  0.6207
16296TIP3    H170379   6.040   1.197   3.188 -0.1716 -0.8877  1.1803
16296TIP3    H270380   6.102   1.192   3.051 -1.6530  0.0680  0.4537
16297TIP3   OH270381   0.486   6.499  11.725 -0.0046 -0.4744  0.2881
16297TIP3    H170382   0.533   6.453  11.794 -0.4210  0.7280  1.3969
16297TIP3    H270383   0.548   6.503  11.652  1.1117 -0.1181  1.2437
16298TIP3   OH270384   2.704   0.695  12.169 -0.1495 -0.1681  0.3849
16298TIP3    H170385   2.648   0.651  12.104  0.0542  2.1415 -1.4000
16298TIP3    H270386   2.667   0.783  12.177 -0.1775 -0.4202  3.4637
16299TIP3   OH270387   2.287   5.994  11.988 -1.2678 -0.1232  0.0094
16299TIP3    H170388   2.299   5.945  12.069  0.7289  0.0068 -0.1830
16299TIP3    H270389   2.261   5.929  11.923 -0.2273 -0.6807  0.1418
16300TIP3   OH270390   5.067   5.623  13.519  0.0573  0.1860 -0.1002
16300TIP3    H170391   5.108   5.697  13.564  0.5532  1.1118 -2.0386
16300TIP3    H270392   5.088   5.636  13.427 -0.4774 -1.9834 -0.5573
16301TIP3   OH270393   6.474   5.318  10.908  0.2051  0.5846  0.0406
16301TIP3    H170394   6.505   5.230  10.884 -0.7679  0.4387 -0.7050
16301TIP3    H270395   6.490   5.371  10.829 -2.3646  0.2715 -0.7310
16302TIP3   OH270396   5.619   3.755  16.861 -0.5768  0.5405 -0.6337
16302TIP3    H170397   5.671   3.676  16.849 -0.2974  0.2199  2.2654
16302TIP3    H270398   5.677   3.826  16.831  0.0545 -0.1360 -1.0418
16303TIP3   OH270399   1.604   6.645   5.108  0.5103 -0.7062  0.1032
16303TIP3    H170400   1.627   6.695   5.186 -2.9607  0.8648  0.2095
16303TIP3    H270401   1.595   6.555   5.138 -0.3117 -0.1901  1.4497
16304TIP3   OH270402   5.175   4.087   0.301  0.5559  0.1293 -0.0873
16304TIP3    H170403   5.221   4.004   0.301 -0.1408 -0.2880  2.3656
16304TIP3    H270404   5.206   4.132   0.379 -0.5430  1.3320 -0.3217
16305TIP3   OH270405   1.471   1.110  17.232 -0.2210  0.2334  0.2458
16305TIP3    H170406   1.424   1.109  17.316 -2.5838 -1.4211 -1.0185
16305TIP3    H270407   1.405   1.139  17.169  1.0402 -0.1757 -1.2821
16306TIP3   OH270408   4.957   2.226  16.375  0.0574 -0.1879 -0.0154
16306TIP3    H170409   4.962   2.306  16.427 -0.8919  0.5735 -1.0588
16306TIP3    H270410   5.038   2.179  16.395  0.6095  1.0221  0.6360
16307TIP3   OH270411   4.242   4.058   2.125 -0.0948  0.0717  0.5825
16307TIP3    H170412   4.231   3.966   2.147  1.2841  0.0873  1.3831
16307TIP3    H270413   4.276   4.099   2.205  0.4898  1.0298 -0.1364
16308TIP3   OH270414   3.779   3.626   6.150 -0.4909  0.3863 -0.4912
16308TIP3    H170415   3.689   3.627   6.182 -0.8985 -1.1311 -1.5010
16308TIP3    H270416   3.818   3.548   6.190  0.0522  0.4322 -0.9172
16309TIP3   OH270417   1.533   3.545  14.070 -0.3516 -1.0307  0.4905
16309TIP3    H170418   1.487   3.599  14.134  0.9725  0.7600 -0.0245
16309TIP3    H270419   1.472   3.541  13.995 -1.0816 -1.5092  1.1034
16310TIP3   OH270420   0.255   0.242  12.350  0.1606  0.0431 -0.3232
16310TIP3    H170421   0.208   0.170  12.309  0.9252 -0.3024 -0.6043
16310TIP3    H270422   0.306   0.201  12.420  1.8410  0.0501 -1.5036
16311TIP3   OH270423   3.633   2.875   1.537 -0.6658  0.2115  0.1995
16311TIP3    H170424   3.648   2.801   1.596  0.4578  1.1564  1.1176
16311TIP3    H270425   3.587   2.940   1.590 -0.4557  0.7055 -0.2137
16312TIP3   OH270426   1.023   1.385  10.798  0.1974 -0.0161 -0.2365
16312TIP3    H170427   1.070   1.350  10.874 -1.2581  0.3444  0.8522
16312TIP3    H270428   1.083   1.373  10.725  2.3366  1.2062  1.2618
16313TIP3   OH270429   5.148   4.865   4.444  0.6438 -0.2299  0.0225
16313TIP3    H170430   5.172   4.868   4.352  1.1512  0.4213  0.1758
16313TIP3    H270431   5.190   4.785   4.477  0.8499 -0.2134 -0.2018
16314TIP3   OH270432   1.446   3.694  16.953  0.0438  0.0449  0.0873
16314TIP3    H170433   1.475   3.755  17.021 -0.6920  1.0393 -0.4612
16314TIP3    H270434   1.388   3.747  16.898  1.2772 -0.5073 -1.7987
16315TIP3   OH270435   0.108   4.203   0.612 -0.1541 -0.0201  0.5618
16315TIP3    H170436   0.146   4.128   0.657 -0.6032  0.8396  2.4315
16315TIP3    H270437   0.179   4.268   0.608  0.0758 -0.3318 -0.5645
16316TIP3   OH270438   3.394   3.260   3.116 -0.4417  0.4945 -0.2853
16316TIP3    H170439   3.371   3.350   3.138 -0.3322  0.6161 -0.6646
16316TIP3    H270440   3.351   3.207   3.183  0.3385  0.8974  0.5486
16317TIP3   OH270441   3.366   5.885  16.478  0.0765 -0.4460 -0.4065
16317TIP3    H170442   3.324   5.967  16.503  2.0292 -0.1763  2.2145
16317TIP3    H270443   3.318   5.818  16.526 -0.0032 -0.5927 -0.6903
16318TIP3   OH270444   0.444   5.562  17.159 -0.3721  0.4784  0.2358
16318TIP3    H170445   0.468   5.626  17.092  0.7917 -0.1958 -0.0049
16318TIP3    H270446   0.408   5.488  17.109 -0.1414  0.2515  0.4105
16319TIP3   OH270447   5.772   0.933  15.653 -0.0620 -0.5812 -0.1188
16319TIP3    H170448   5.863   0.962  15.662  0.4550 -1.8449 -1.1350
16319TIP3    H270449   5.766   0.903  15.562 -1.4977 -0.5171 -0.0475
16320TIP3   OH270450   3.864   4.884   2.349 -0.2669 -0.4570  0.5315
16320TIP3    H170451   3.785   4.881   2.402  0.3033  1.5170  1.5373
16320TIP3    H270452   3.855   4.963   2.296  0.7473 -0.5455  0.2058
16321TIP3   OH270453   2.681   5.072   3.818  0.3532 -0.1259  0.0441
16321TIP3    H170454   2.755   5.121   3.782  0.7506 -1.1240 -0.4959
16321TIP3    H270455   2.659   5.008   3.751  2.2545 -3.2398  2.2708
16322TIP3   OH270456   6.751   1.109  11.599  0.2364  0.4313 -0.1741
16322TIP3    H170457   6.834   1.109  11.551  0.8802  0.6020  0.9390
16322TIP3    H270458   6.730   1.016  11.609  0.6797  0.3656  0.1953
16323TIP3   OH270459   4.345   0.312  16.263 -0.0179  0.0701  0.0185
16323TIP3    H170460   4.411   0.321  16.195 -0.2283 -1.7744 -0.4462
16323TIP3    H270461   4.338   0.218  16.278 -2.3151  0.2450  0.2846
16324TIP3   OH270462   0.118   3.743  12.615 -0.2000 -0.9177  0.0228
16324TIP3    H170463   0.050   3.779  12.559 -0.3300 -0.7243  0.3052
16324TIP3    H270464   0.185   3.811  12.619 -0.6418 -0.5313  0.9067
16325TIP3   OH270465   6.179   0.577   1.719  0.5256  0.4471  0.3152
16325TIP3    H170466   6.136   0.567   1.803 -0.0552 -0.6556 -0.1007
16325TIP3    H270467   6.144   0.506   1.665  2.0281  0.1954 -0.3699
16326TIP3   OH270468   2.166   5.906   3.030  0.1172 -0.0686  0.4200
16326TIP3    H170469   2.131   5.847   3.097  0.3436 -1.5854 -0.7692
16326TIP3    H270470   2.240   5.949   3.073 -1.1356  0.6888  1.8752
16327TIP3   OH270471   2.491   1.668  15.696  0.0031 -0.1631 -0.1690
16327TIP3    H170472   2.514   1.577  15.716  1.5367  0.1295 -0.5850
16327TIP3    H270473   2.532   1.686  15.612 -1.3211  0.5461 -0.6809
16328TIP3   OH270474   4.030   2.517  15.801 -0.2978 -0.1838  0.1058
16328TIP3    H170475   4.095   2.582  15.828 -0.2197 -0.6462  1.0712
16328TIP3    H270476   4.074   2.467  15.732 -0.6649  1.3055 -1.2295
16329TIP3   OH270477   6.470   3.450   4.495 -0.2941  0.8644  0.4650
16329TIP3    H170478   6.378   3.427   4.509  0.2974 -2.1667 -0.2599
16329TIP3    H270479   6.483   3.530   4.545 -2.6599 -0.1492  2.8193
16330TIP3   OH270480   5.485   5.364  16.442  0.2629 -0.3188 -0.4483
16330TIP3    H170481   5.559   5.423  16.433  2.1252 -2.4056  0.7457
16330TIP3    H270482   5.477   5.348  16.536 -0.2612 -1.8818 -0.7433
16331TIP3   OH270483   1.065   0.833  11.894 -0.3491  0.1694 -0.0706
16331TIP3    H170484   1.120   0.767  11.936 -0.0037 -0.0665 -0.8774
16331TIP3    H270485   1.114   0.915  11.903  0.1937 -0.0615 -0.8897
16332TIP3   OH270486   4.039   3.722   4.744  0.0740  0.1632  0.2440
16332TIP3    H170487   4.044   3.793   4.680 -0.0147  0.0239  0.0832
16332TIP3    H270488   3.953   3.733   4.785  0.8202  1.2797  1.5310
16333TIP3   OH270489   1.392   4.938   5.257 -0.3565 -0.2698  0.2195
16333TIP3    H170490   1.346   5.021   5.258  2.2702  1.3209  5.1558
16333TIP3    H270491   1.421   4.928   5.166 -1.7673  3.5643 -0.7534
16334TIP3   OH270492   1.377   4.229  11.427 -0.1341 -0.3311 -0.1752
16334TIP3    H170493   1.414   4.278  11.500  0.1937 -1.4786  0.4372
16334TIP3    H270494   1.295   4.193  11.461 -0.4104 -0.1658 -0.6475
16335TIP3   OH270495   4.212   0.341  16.510 -0.1331  0.2466  0.2864
16335TIP3    H170496   4.266   0.350  16.432 -1.4894 -2.4518 -1.0335
16335TIP3    H270497   4.134   0.394  16.492  0.4234  1.2304  0.6882
16336TIP3   OH270498   3.172   3.100  13.346  0.1394  0.0661 -0.5082
16336TIP3    H170499   3.164   3.010  13.316  2.0080  0.3407 -1.9519
16336TIP3    H270500   3.229   3.142  13.281 -0.5859  2.2509  0.1981
16337TIP3   OH270501   3.654   5.316  14.608 -0.0660 -0.0060  0.4138
16337TIP3    H170502   3.669   5.351  14.520  1.5607  1.4061  1.2260
16337TIP3    H270503   3.611   5.388  14.655 -0.6915 -0.6609  0.8482
16338TIP3   OH270504   6.612   0.362   0.360  0.4231  0.0048 -0.5145
16338TIP3    H170505   6.610   0.329   0.450 -0.8621 -1.0139 -0.8941
16338TIP3    H270506   6.608   0.457   0.369 -2.4013 -0.1451  0.4685
16339TIP3   OH270507   2.877   4.205   1.570 -0.1898 -0.1002  0.1762
16339TIP3    H170508   2.841   4.268   1.633  0.4592 -0.4402  0.8978
16339TIP3    H270509   2.969   4.197   1.595 -0.5029 -2.1606  0.7955
16340TIP3   OH270510   4.584   4.432  14.697 -0.2163 -0.6252  0.4764
16340TIP3    H170511   4.560   4.500  14.634 -0.7685 -0.8878  0.3988
16340TIP3    H270512   4.662   4.465  14.740 -0.6696  0.2052  0.6708
16341TIP3   OH270513   3.157   6.090   5.614  0.8962  0.3914  0.2270
16341TIP3    H170514   3.212   6.133   5.680 -0.3306  0.1501  1.4455
16341TIP3    H270515   3.170   5.996   5.631  0.8009  0.3233 -0.0768
16342TIP3   OH270516   5.424   1.536  11.725 -0.4387 -0.0332  0.2131
16342TIP3    H170517   5.452   1.448  11.699 -0.2152 -1.2593  4.2107
16342TIP3    H270518   5.502   1.590  11.711 -0.4002 -0.5492 -1.7385
16343TIP3   OH270519   4.669   5.355  12.125  0.5297 -0.7076  0.8016
16343TIP3    H170520   4.762   5.341  12.141  0.7775 -0.7186 -0.5826
16343TIP3    H270521   4.656   5.449  12.138  1.1120 -0.3914 -0.7888
16344TIP3   OH270522   2.543   4.352   0.017 -0.0568  0.0658  0.7178
16344TIP3    H170523   2.629   4.393   0.027 -0.8950  1.8304  0.8878
16344TIP3    H270524   2.529   4.306   0.100  0.7452 -0.2970  0.6609
16345TIP3   OH270525   1.255   5.543  15.846 -0.3965  0.4065  0.4478
16345TIP3    H170526   1.171   5.555  15.891 -0.2972  2.0737  0.2016
16345TIP3    H270527   1.279   5.630  15.816  0.5023 -0.3767 -1.1444
16346TIP3   OH270528   1.706   2.863   0.122 -0.8486  0.4434 -0.5136
16346TIP3    H170529   1.770   2.810   0.073 -0.5770  0.1260  0.1835
16346TIP3    H270530   1.647   2.897   0.055 -0.4381  0.0576 -1.0737
16347TIP3   OH270531   3.828   6.240  16.179  0.0522 -0.0022 -0.4823
16347TIP3    H170532   3.912   6.261  16.137  0.1624  1.2383  0.3238
16347TIP3    H270533   3.767   6.231  16.106  0.5025  0.9256 -0.9859
16348TIP3   OH270534   3.987   5.010  10.870  0.1910  0.0624 -0.4725
16348TIP3    H170535   3.902   5.025  10.829 -0.2444  0.4097  0.5332
16348TIP3    H270536   4.017   4.926  10.835  0.1569  0.6762 -2.0167
16349TIP3   OH270537   2.616   5.243  17.068 -0.4572  0.0634 -0.3705
16349TIP3    H170538   2.691   5.233  17.009 -0.0225  1.3809 -0.0638
16349TIP3    H270539   2.585   5.154  17.083  2.7280 -0.7909  1.6850
16350TIP3   OH270540   3.192   2.314  16.725 -0.1066  0.1998  0.4674
16350TIP3    H170541   3.197   2.405  16.694  0.9739  0.5003  1.4984
16350TIP3    H270542   3.166   2.264  16.647 -1.3323  1.4594  0.0239
16351TIP3   OH270543   3.077   2.828  14.166 -0.8851 -0.2410 -0.1484
16351TIP3    H170544   3.018   2.902  14.181  1.2264  1.2759  0.8541
16351TIP3    H270545   3.118   2.812  14.251 -1.6922 -2.9390 -0.2139
16352TIP3   OH270546   4.049   4.827  11.471 -0.1170  0.1148 -0.1038
16352TIP3    H170547   4.071   4.745  11.427 -1.5168  1.1316 -2.7604
16352TIP3    H270548   4.133   4.869  11.487  0.4432 -0.5254 -1.3044
16353TIP3   OH270549   3.737   0.399   6.555 -0.4715  0.5474 -0.0974
16353TIP3    H170550   3.695   0.335   6.498 -0.9606  1.2508 -0.5427
16353TIP3    H270551   3.718   0.484   6.514  0.5182  0.9465  0.2546
16354TIP3   OH270552   4.794   1.652  15.109 -0.1567  0.3476  0.1314
16354TIP3    H170553   4.790   1.693  15.022 -0.1016  1.1866  0.5146
16354TIP3    H270554   4.886   1.663  15.136  0.1014 -0.9516 -0.1903
16355TIP3   OH270555   3.142   6.126  12.529 -0.3968 -0.1606  0.4451
16355TIP3    H170556   3.175   6.054  12.583 -0.9851  0.0948  1.1600
16355TIP3    H270557   3.198   6.200  12.551 -0.2033 -0.2329  0.1947
16356TIP3   OH270558   0.894   4.886   3.491 -0.3253 -0.0943 -0.3696
16356TIP3    H170559   0.904   4.934   3.573  2.5057 -0.4437 -0.4618
16356TIP3    H270560   0.886   4.794   3.517 -1.1110 -0.0562 -0.4388
16357TIP3   OH270561   2.101   5.338   5.697  0.9345 -0.0890 -0.4280
16357TIP3    H170562   2.076   5.430   5.687  0.0811  0.0719  2.5497
16357TIP3    H270563   2.176   5.340   5.757  0.0954 -1.3894  0.6965
16358TIP3   OH270564   1.458   3.632  12.068  0.5684  0.2991 -0.4249
16358TIP3    H170565   1.521   3.564  12.043  0.5765  1.4828 -3.9492
16358TIP3    H270566   1.507   3.688  12.128  0.7788 -2.3284  1.9692
16359TIP3   OH270567   4.448   5.213  15.109  0.2324  0.2232  0.2765
16359TIP3    H170568   4.487   5.230  15.024  0.8813 -2.1150  0.0607
16359TIP3    H270569   4.430   5.119  15.108  0.2577  0.1637  2.7088
16360TIP3   OH270570   0.544   1.726  14.928  0.3186  0.0149  0.2357
16360TIP3    H170571   0.546   1.654  14.865  1.2334 -0.3698  0.7022
16360TIP3    H270572   0.617   1.783  14.903 -0.0908  0.5259  0.1769
16361TIP3   OH270573   0.983   3.360  14.158  0.4629 -0.2173 -0.3617
16361TIP3    H170574   0.980   3.269  14.129 -0.2541 -0.3514  0.1176
16361TIP3    H270575   1.043   3.360  14.232  0.2376 -0.3557 -0.1780
16362TIP3   OH270576   6.122   4.551   3.390  0.1016  0.2431  0.5634
16362TIP3    H170577   6.101   4.640   3.417  0.1184  0.6713 -0.8429
16362TIP3    H270578   6.218   4.546   3.399  0.2899  0.9242 -1.0579
16363TIP3   OH270579   6.395   4.161   2.789 -0.3146  0.4057 -0.2743
16363TIP3    H170580   6.344   4.165   2.708  0.3854  0.9217 -0.6985
16363TIP3    H270581   6.357   4.229   2.845 -0.4121  0.4535 -0.4000
16364TIP3   OH270582   5.267   1.949   0.605  0.2392  0.0720 -0.2063
16364TIP3    H170583   5.328   1.960   0.678 -0.3809  0.2669  0.2898
16364TIP3    H270584   5.234   1.859   0.616  2.0609 -0.8137 -1.7405
16365TIP3   OH270585   0.266   6.813   3.061 -0.1720 -0.0601  0.2737
16365TIP3    H170586   0.316   6.781   3.136 -1.0387 -0.0833  0.8496
16365TIP3    H270587   0.193   6.861   3.100 -1.6228 -1.5727 -0.5457
16366TIP3   OH270588   2.302   6.150   1.992  0.2821  0.2295  0.0857
16366TIP3    H170589   2.288   6.217   2.059  0.7014 -0.2761  0.6832
16366TIP3    H270590   2.287   6.196   1.909 -4.3946 -0.1489  0.6045
16367TIP3   OH270591   3.512   3.515  11.831  0.9417  0.7098 -0.3388
16367TIP3    H170592   3.551   3.552  11.752  1.5221  1.3465  0.2447
16367TIP3    H270593   3.528   3.580  11.899  0.0164  0.3794  0.1978
16368TIP3   OH270594   0.045   1.928   1.660 -0.1256 -0.3499  0.2459
16368TIP3    H170595   0.051   1.835   1.640 -1.0428 -0.4586  0.4276
16368TIP3    H270596   0.037   1.932   1.755  1.4718  0.0061  0.3692
16369TIP3   OH270597   0.345   2.153  15.964  0.0907  0.0225  0.1860
16369TIP3    H170598   0.416   2.212  15.989  0.9470 -1.2557  0.8190
16369TIP3    H270599   0.267   2.209  15.963  1.1322  1.5054 -0.7866
16370TIP3   OH270600   5.247   2.731   1.164  0.0497 -0.3144  0.5066
16370TIP3    H170601   5.175   2.768   1.215  1.0853  2.5148  0.0180
16370TIP3    H270602   5.321   2.730   1.224  0.3646 -0.3314  0.1195
16371TIP3   OH270603   3.085   5.491   4.017  0.0240 -0.1897  0.1876
16371TIP3    H170604   3.043   5.503   4.103  0.0549 -0.0857  0.1876
16371TIP3    H270605   3.012   5.495   3.955  0.1173  0.6728  0.1309
16372TIP3   OH270606   3.293   6.357  15.219  0.2550  0.1542 -0.2539
16372TIP3    H170607   3.381   6.331  15.248  0.6843  1.1167 -0.6595
16372TIP3    H270608   3.291   6.452  15.231 -1.2801 -0.0479  1.2020
16373TIP3   OH270609   3.515   4.058  11.681  0.4706 -0.0399  0.3942
16373TIP3    H170610   3.431   4.027  11.648  0.8783 -1.6714  0.7924
16373TIP3    H270611   3.546   4.121  11.616 -0.4260 -0.4682 -0.4468
16374TIP3   OH270612   5.630   0.389  15.306 -0.1639 -0.2423 -0.3121
16374TIP3    H170613   5.707   0.429  15.346  1.4864 -1.6849 -1.9825
16374TIP3    H270614   5.614   0.310  15.359  1.4064 -1.6041 -1.8159
16375TIP3   OH270615   3.213   4.519   4.937 -0.1956 -0.1159 -0.4981
16375TIP3    H170616   3.271   4.448   4.909 -0.8240 -0.5830 -0.6257
16375TIP3    H270617   3.267   4.598   4.930  1.3963 -0.9079  2.4067
16376TIP3   OH270618   4.204   3.530  16.237 -0.0198  0.2546  0.3158
16376TIP3    H170619   4.264   3.600  16.262 -1.4305  1.0460  1.5656
16376TIP3    H270620   4.167   3.499  16.319 -1.5818  0.0168 -0.4495
16377TIP3   OH270621   3.361   2.630  13.032 -0.2667 -0.0740 -0.0783
16377TIP3    H170622   3.273   2.619  13.065  0.8417 -0.1609  2.9860
16377TIP3    H270623   3.357   2.710  12.979 -1.6685  1.1459  1.8443
16378TIP3   OH270624   5.328   0.230  15.885  0.1544 -0.4353 -0.0842
16378TIP3    H170625   5.269   0.238  15.960  0.0791  0.5010 -0.2369
16378TIP3    H270626   5.293   0.156  15.835 -1.9865  1.2053 -1.1179
16379TIP3   OH270627   0.329   4.370   0.551  0.9019 -0.2221  0.3121
16379TIP3    H170628   0.369   4.395   0.468 -2.3759  0.7566 -1.0391
16379TIP3    H270629   0.310   4.453   0.595  1.2716 -0.7006  1.4023
16380TIP3   OH270630   1.389   0.440   5.947  0.5552  0.2782  0.3442
16380TIP3    H170631   1.386   0.408   5.856 -1.3284 -1.2544  0.9182
16380TIP3    H270632   1.463   0.394   5.986  2.0890  1.8036 -0.7089
16381TIP3   OH270633   2.679   2.996   3.343 -0.1338 -0.0616 -0.2448
16381TIP3    H170634   2.670   2.993   3.248 -0.7775 -0.6563 -0.1623
16381TIP3    H270635   2.593   3.021   3.375  0.0140 -0.1273  0.2073
16382TIP3   OH270636   3.106   3.838  14.613 -0.3264  0.1127  0.0385
16382TIP3    H170637   3.087   3.891  14.690  0.0884  0.9069 -0.4019
16382TIP3    H270638   3.091   3.896  14.539 -2.8151 -1.2541 -0.6070
16383TIP3   OH270639   6.088   2.091  10.398 -0.2408  0.2254 -0.0057
16383TIP3    H170640   6.157   2.135  10.449  0.2047 -0.3045 -0.1416
16383TIP3    H270641   6.042   2.162  10.353  2.4204  0.3934 -2.6535
16384TIP3   OH270642   2.673   4.886  13.965  0.0477  0.1420  0.9580
16384TIP3    H170643   2.694   4.876  14.058  2.6327  2.1660  0.6685
16384TIP3    H270644   2.681   4.980  13.948  1.6981 -0.4102 -1.7303
16385TIP3   OH270645   5.911   6.254  14.159 -0.0371 -0.3589  0.1034
16385TIP3    H170646   5.939   6.346  14.153 -0.5866 -0.2222 -0.5001
16385TIP3    H270647   5.832   6.257  14.212  0.7280 -0.6619  1.2665
16386TIP3   OH270648   1.880   4.339  14.500 -0.3725 -0.2043  0.2691
16386TIP3    H170649   1.892   4.360  14.407 -1.1610  2.2985  0.7067
16386TIP3    H270650   1.886   4.423  14.545 -0.2278 -1.3652  2.4886
16387TIP3   OH270651   2.007   4.443  15.953 -0.0260 -0.4784 -0.2342
16387TIP3    H170652   2.073   4.436  15.884 -0.1022  2.3129 -0.6420
16387TIP3    H270653   2.038   4.384  16.022  2.2162 -0.1968 -0.9717
16388TIP3   OH270654   2.020   0.514   4.878  0.0418 -0.3920 -0.7553
16388TIP3    H170655   1.930   0.493   4.904  0.7655 -1.5812  0.9164
16388TIP3    H270656   2.038   0.456   4.804 -0.2891 -0.7795 -0.5359
16389TIP3   OH270657   5.854   5.931  14.579 -0.1178  0.2814  0.2726
16389TIP3    H170658   5.877   5.952  14.489  4.9718  2.7011  1.9591
16389TIP3    H270659   5.786   5.993  14.602  0.8512  1.8261 -0.9281
16390TIP3   OH270660   4.610   6.817   2.780 -0.5921  0.1304 -0.1440
16390TIP3    H170661   4.571   6.901   2.804  1.4183  1.1545 -0.3440
16390TIP3    H270662   4.689   6.810   2.834 -0.6687 -1.5790 -0.2066
16391TIP3   OH270663   0.470   3.302   0.270  0.3032  0.7284  0.3430
16391TIP3    H170664   0.488   3.377   0.326  1.9017 -0.5144  1.5445
16391TIP3    H270665   0.549   3.248   0.275 -0.7640 -0.9772 -0.5781
16392TIP3   OH270666   3.335   6.646  13.073  0.1078  0.5493 -0.1931
16392TIP3    H170667   3.252   6.693  13.086 -0.1805  0.1352 -0.4986
16392TIP3    H270668   3.337   6.581  13.143  0.3853  0.8509  0.0779
16393TIP3   OH270669   6.674   2.245  14.794 -0.1945  0.1144  0.0019
16393TIP3    H170670   6.631   2.160  14.805  1.6229 -0.7630  0.5159
16393TIP3    H270671   6.660   2.290  14.878 -1.7357  0.5985 -0.5088
16394TIP3   OH270672   1.231   1.288  16.682 -0.4087  0.5292 -0.1043
16394TIP3    H170673   1.316   1.288  16.638 -0.5530 -3.4237 -0.6334
16394TIP3    H270674   1.185   1.363  16.645  1.0227 -0.2309 -3.6577
16395TIP3   OH270675   2.341   6.299  12.552  0.0342 -0.1553  0.6301
16395TIP3    H170676   2.341   6.367  12.619  0.9953  0.5131 -0.0445
16395TIP3    H270677   2.267   6.322  12.495  1.5166  1.4439 -0.7045
16396TIP3   OH270678   4.080   0.447  14.639  0.6748 -0.7816 -0.0592
16396TIP3    H170679   4.006   0.488  14.683  1.8953  2.6873 -1.0745
16396TIP3    H270680   4.151   0.451  14.703  0.6280 -1.9768  0.0770
16397TIP3   OH270681   2.652   6.071  13.169  0.5599 -0.6376 -1.0175
16397TIP3    H170682   2.608   6.133  13.111 -0.8367 -0.1283  0.5352
16397TIP3    H270683   2.742   6.103  13.176 -0.0871  1.0799 -0.4128
16398TIP3   OH270684   2.468   3.273   1.356  0.1406  0.0976 -0.1515
16398TIP3    H170685   2.527   3.329   1.407 -0.2121  0.5481 -0.2376
16398TIP3    H270686   2.383   3.317   1.361 -0.2784 -0.7625  0.2954
16399TIP3   OH270687   5.793   5.717   1.674 -0.6315 -0.0260  0.2120
16399TIP3    H170688   5.749   5.800   1.656  0.7381  0.3347 -1.6853
16399TIP3    H270689   5.870   5.718   1.616 -0.0056 -2.1240  0.9671
16400TIP3   OH270690   6.332   2.736   3.256 -0.4964  0.0014 -0.3356
16400TIP3    H170691   6.424   2.712   3.272 -0.6930 -0.8252 -0.4130
16400TIP3    H270692   6.293   2.658   3.217 -1.4356  0.0762  0.4376
16401TIP3   OH270693   2.260   2.684  12.614  0.3297 -0.1915 -0.1359
16401TIP3    H170694   2.316   2.617  12.575  0.2823  0.1806 -0.8389
16401TIP3    H270695   2.282   2.681  12.708  2.0462  0.4519 -0.4938
16402TIP3   OH270696   6.030   4.545  15.280 -0.1374  0.0132 -0.1767
16402TIP3    H170697   6.069   4.571  15.196 -0.1679 -0.6956 -0.4078
16402TIP3    H270698   5.947   4.593  15.283 -0.1422  0.0349 -0.5564
16403TIP3   OH270699   4.802   5.328  12.800 -0.5297  0.5408 -0.2239
16403TIP3    H170700   4.857   5.251  12.786 -0.9117  0.2161  0.0570
16403TIP3    H270701   4.712   5.294  12.801 -0.6237  0.7843  1.2673
16404TIP3   OH270702   6.503   5.098   4.914 -0.0135 -0.0744  0.2547
16404TIP3    H170703   6.566   5.151   4.866 -0.6394  0.3248 -0.1169
16404TIP3    H270704   6.522   5.008   4.887  2.1830 -0.2264  2.1727
16405TIP3   OH270705   6.057   3.349  11.867  0.6202  0.0849  0.5180
16405TIP3    H170706   5.977   3.346  11.921 -0.2130  1.1320 -0.6452
16405TIP3    H270707   6.041   3.284  11.798  0.9620 -0.0105  0.5273
16406TIP3   OH270708   4.771   5.652   3.972  0.1943 -0.0052  0.4500
16406TIP3    H170709   4.719   5.670   3.893  0.1996  2.1011  0.8954
16406TIP3    H270710   4.853   5.617   3.939 -0.0330  0.3008 -0.4653
16407TIP3   OH270711   3.958   2.796  16.875  0.3518 -0.2132  0.3009
16407TIP3    H170712   3.863   2.797  16.880  0.3765 -1.2785  1.4816
16407TIP3    H270713   3.979   2.710  16.838  0.8448  0.1979 -0.3927
16408TIP3   OH270714   1.642   2.276  12.863 -0.3039  0.4995  0.7675
16408TIP3    H170715   1.592   2.208  12.818 -1.0973  2.2097 -0.9920
16408TIP3    H270716   1.678   2.232  12.940  1.1280 -2.5493 -1.5132
16409TIP3   OH270717   5.696   5.625  12.889  0.3573 -0.2374 -0.2248
16409TIP3    H170718   5.698   5.685  12.814  2.4950 -0.5736 -0.4681
16409TIP3    H270719   5.735   5.544  12.857  2.2139 -0.0725  1.4879
16410TIP3   OH270720   3.677   4.089   5.415 -0.4462  0.0900 -1.0798
16410TIP3    H170721   3.615   4.131   5.474  2.6537  1.5016  1.3545
16410TIP3    H270722   3.698   4.006   5.458  1.6089  1.0004 -0.2366
16411TIP3   OH270723   1.485   2.408  13.345  0.3069  0.0599  0.2279
16411TIP3    H170724   1.391   2.419  13.330  0.4146 -0.4980 -0.9630
16411TIP3    H270725   1.525   2.424  13.259  1.2226 -0.4965  0.5429
16412TIP3   OH270726   5.154   2.797  15.501 -0.0165  0.1755  0.2554
16412TIP3    H170727   5.126   2.762  15.416  1.5434 -0.8267  0.1402
16412TIP3    H270728   5.126   2.889  15.499  0.0330  0.1754 -1.3664
16413TIP3   OH270729   3.954   0.815   5.933  0.4963 -0.0942  0.3714
16413TIP3    H170730   3.902   0.870   5.992 -1.7287 -0.3765 -1.2749
16413TIP3    H270731   3.958   0.730   5.978  1.0873  0.4407  1.3463
16414TIP3   OH270732   1.159   5.105  15.606 -0.2300 -0.1467  0.3315
16414TIP3    H170733   1.066   5.127  15.597 -0.3774  0.0939  2.1084
16414TIP3    H270734   1.161   5.010  15.610 -0.4129 -0.1483  0.4127
16415TIP3   OH270735   2.030   6.556   2.046 -0.2305  0.0418  0.2072
16415TIP3    H170736   1.974   6.613   2.099 -0.7274 -0.9602  0.7701
16415TIP3    H270737   1.972   6.521   1.979 -0.5825 -1.8722  1.4559
16416TIP3   OH270738   2.594   6.180   0.157  0.7387 -0.2305 -0.3152
16416TIP3    H170739   2.655   6.138   0.218  0.3725  0.8440  0.8163
16416TIP3    H270740   2.586   6.118   0.085  1.6753 -1.2477  0.4330
16417TIP3   OH270741   6.159   1.984  13.300  0.0277 -1.1369 -0.2342
16417TIP3    H170742   6.224   1.933  13.349 -0.1419 -1.1012  0.0290
16417TIP3    H270743   6.150   1.937  13.217  0.6896 -0.9131 -0.4402
16418TIP3   OH270744   3.105   0.086   4.828 -0.4091  0.6305 -0.1292
16418TIP3    H170745   3.155   0.099   4.747 -1.1382 -1.6440 -0.9723
16418TIP3    H270746   3.113  -0.007   4.846 -0.4081  1.0821  2.3508
16419TIP3   OH270747   2.766   3.846  15.279 -0.2936 -0.3066 -0.5858
16419TIP3    H170748   2.785   3.773  15.220 -0.2008  0.7154 -1.8232
16419TIP3    H270749   2.671   3.848  15.285 -0.3025 -0.4288 -0.6713
16420TIP3   OH270750   4.422   4.300   6.635  0.2546 -0.2666  0.1483
16420TIP3    H170751   4.343   4.266   6.593 -0.7784  0.4901  1.4194
16420TIP3    H270752   4.477   4.224   6.650  0.9770 -0.4620 -3.2197
16421TIP3   OH270753   5.360   6.595  13.783  0.2923 -0.4898  0.2077
16421TIP3    H170754   5.422   6.658  13.819  0.7921  0.2280 -1.8712
16421TIP3    H270755   5.401   6.510  13.798  1.1331 -0.1091  0.1175
16422TIP3   OH270756   2.343   2.164   1.510 -0.1006 -0.9348 -0.5323
16422TIP3    H170757   2.315   2.207   1.591 -0.3726 -2.0783 -0.0107
16422TIP3    H270758   2.268   2.170   1.452 -0.8965 -2.5713  0.2955
16423TIP3   OH270759   3.302   2.393  11.579  0.4281 -0.1790  0.1609
16423TIP3    H170760   3.241   2.464  11.599  0.4675 -0.5661  1.6954
16423TIP3    H270761   3.369   2.398  11.647  1.7353 -0.1997 -1.1171
16424TIP3   OH270762   4.959   3.834  14.919  0.1868  0.1024  0.2254
16424TIP3    H170763   4.971   3.928  14.928 -1.6217  0.2416  1.6184
16424TIP3    H270764   4.936   3.805  15.007 -2.8643 -1.0454 -0.8624
16425TIP3   OH270765   6.027   2.782   5.674  1.1866  0.3075  0.1323
16425TIP3    H170766   6.120   2.790   5.651  0.1235  1.2156 -4.2970
16425TIP3    H270767   5.985   2.858   5.634 -1.5834 -0.4481  1.4520
16426TIP3   OH270768   0.740   3.854   3.808  0.1521 -0.8695 -0.0358
16426TIP3    H170769   0.766   3.944   3.825  0.0569 -0.8394 -0.0499
16426TIP3    H270770   0.646   3.853   3.821 -0.1451 -0.5077 -1.9872
16427TIP3   OH270771   3.049   3.405   1.031  0.3082  0.3935  0.0659
16427TIP3    H170772   3.032   3.329   0.975  0.1521  0.8283 -0.4750
16427TIP3    H270773   3.127   3.446   0.993  1.0526 -0.1170  1.0081
16428TIP3   OH270774   3.176   2.617   0.177  0.4295 -0.2984  0.2165
16428TIP3    H170775   3.210   2.597   0.265  1.0976 -1.4684 -0.2875
16428TIP3    H270776   3.129   2.699   0.187 -1.0069 -1.3049  2.0527
16429TIP3   OH270777   4.177   4.755  12.528 -0.5418 -0.4575 -0.2026
16429TIP3    H170778   4.103   4.718  12.481  0.5643 -2.2560 -0.5546
16429TIP3    H270779   4.230   4.797  12.461 -0.7697  0.0697 -0.0625
16430TIP3   OH270780   6.334   6.494   1.396 -0.7571  0.4552 -0.0432
16430TIP3    H170781   6.350   6.404   1.424 -2.4043 -0.2912 -1.3767
16430TIP3    H270782   6.376   6.548   1.462  0.7709 -1.3073  0.4491
16431TIP3   OH270783   4.395   6.629   3.221  0.0094 -0.2783 -0.4603
16431TIP3    H170784   4.443   6.591   3.295 -0.4988  0.6943  0.3856
16431TIP3    H270785   4.456   6.625   3.148  0.7495 -0.6748  0.1706
16432TIP3   OH270786   4.668   0.686  15.922 -0.3830 -0.4429 -0.6012
16432TIP3    H170787   4.694   0.667  16.012  2.1493 -1.4111 -1.4875
16432TIP3    H270788   4.607   0.759  15.929 -0.5841 -0.8210  1.9289
16433TIP3   OH270789   5.965   2.106  11.486 -0.3552 -0.2955  0.5339
16433TIP3    H170790   6.019   2.141  11.415  0.9449 -2.1770  0.5795
16433TIP3    H270791   5.982   2.165  11.560 -0.7224  0.9023 -0.3167
16434TIP3   OH270792   0.476   5.920  16.360  0.5990 -0.2479 -0.1690
16434TIP3    H170793   0.550   5.860  16.366 -1.4340 -2.7213  0.6858
16434TIP3    H270794   0.447   5.914  16.269  0.9078  0.0961 -0.2957
16435TIP3   OH270795   5.624   5.735   3.195  0.3961 -0.0318 -0.3287
16435TIP3    H170796   5.607   5.699   3.282 -0.2267 -1.7271 -1.1259
16435TIP3    H270797   5.543   5.779   3.171  0.0121 -0.9257 -0.6917
16436TIP3   OH270798   3.625   4.653   3.204  0.2671 -0.2546  0.2997
16436TIP3    H170799   3.686   4.590   3.165  0.5285 -0.4027  0.9373
16436TIP3    H270800   3.681   4.723   3.236  0.1650 -0.6548  1.3895
16437TIP3   OH270801   3.072   6.143  16.945 -0.1883 -0.0992 -0.2567
16437TIP3    H170802   3.162   6.137  16.913  0.0464  1.3580  0.0704
16437TIP3    H270803   3.019   6.155  16.866  0.1605  1.2999 -0.3024
16438TIP3   OH270804   6.068   5.460   4.750 -0.6472  0.7457  0.2225
16438TIP3    H170805   6.109   5.477   4.835  0.7240 -0.5283 -0.1663
16438TIP3    H270806   6.032   5.372   4.758 -2.4608  1.4514  0.2035
16439TIP3   OH270807   4.078   4.007  11.128  0.1207  0.1365  0.8316
16439TIP3    H170808   4.058   4.051  11.046 -0.6380 -1.2638  0.2461
16439TIP3    H270809   4.170   3.982  11.120  0.1033  0.1791  0.4902
16440TIP3   OH270810   4.379   2.915  15.023 -0.5312  0.5831 -0.1993
16440TIP3    H170811   4.439   2.966  15.077  0.2381  0.3649 -0.8350
16440TIP3    H270812   4.320   2.980  14.985  0.6803  1.0572 -1.3003
16441TIP3   OH270813   3.419   4.891  11.602 -0.1870 -0.9657  0.3868
16441TIP3    H170814   3.447   4.834  11.531 -1.2814 -2.2364  0.9459
16441TIP3    H270815   3.418   4.834  11.679 -0.1707  0.0919  1.1749
16442TIP3   OH270816   3.189   6.323  10.352 -0.2554 -0.2733 -0.1330
16442TIP3    H170817   3.281   6.340  10.370 -0.7785  0.3919  2.1373
16442TIP3    H270818   3.172   6.367  10.269  1.6366 -1.0149 -0.9275
16443TIP3   OH270819   6.768   3.938  15.220 -0.4162 -0.7383  0.1589
16443TIP3    H170820   6.807   3.974  15.141  0.2024 -2.7787 -0.5160
16443TIP3    H270821   6.788   4.001  15.289 -1.0895  1.1306 -1.3246
16444TIP3   OH270822   4.989   3.616  12.218  0.6878 -0.1026  1.0159
16444TIP3    H170823   5.065   3.664  12.185 -1.1927  2.0759 -0.3465
16444TIP3    H270824   5.010   3.524  12.203  1.3658  0.6310 -3.2153
16445TIP3   OH270825   1.093   4.655  16.905  0.3619  0.0910  0.1929
16445TIP3    H170826   1.153   4.672  16.832  0.4854  0.4291  0.3709
16445TIP3    H270827   1.008   4.638  16.863  0.9315 -2.0300 -0.1456
16446TIP3   OH270828   4.547   2.668  17.275 -0.2622 -0.1895  0.4314
16446TIP3    H170829   4.459   2.702  17.260 -0.7104 -0.1685  2.8292
16446TIP3    H270830   4.555   2.591  17.219 -1.2007  0.7667 -1.0150
16447TIP3   OH270831   4.401   2.205   0.534 -0.6418  0.3243 -0.7728
16447TIP3    H170832   4.452   2.285   0.521  3.1244 -1.5109  1.8223
16447TIP3    H270833   4.413   2.155   0.454  1.0259  0.2782 -0.5073
16448TIP3   OH270834   3.977   4.035  12.244 -0.3528 -0.1306 -0.6814
16448TIP3    H170835   4.006   3.950  12.210  0.0660 -0.0431 -0.5424
16448TIP3    H270836   3.985   4.027  12.339  0.9306  0.5162 -0.7297
16449TIP3   OH270837   1.829   0.882   4.648 -0.3698  0.0403  0.5545
16449TIP3    H170838   1.775   0.955   4.678  1.7378  1.2709  1.4614
16449TIP3    H270839   1.919   0.911   4.662  0.5321 -2.3021 -0.1046
16450TIP3   OH270840   5.457   1.410  12.097  1.1248  0.3980  0.3340
16450TIP3    H170841   5.547   1.380  12.080  1.0661  0.0479  0.6355
16450TIP3    H270842   5.444   1.482  12.036  0.7849 -1.1142 -1.4376
16451TIP3   OH270843   6.561   6.299  11.479  0.6523 -0.2687  0.1567
16451TIP3    H170844   6.604   6.376  11.440  0.8664  0.4062  1.6851
16451TIP3    H270845   6.613   6.225  11.450  1.6522  0.3628  0.3283
16452TIP3   OH270846   2.690   2.599   2.603 -0.5314  0.0631  0.0984
16452TIP3    H170847   2.738   2.534   2.551  0.5098  1.2038 -0.3891
16452TIP3    H270848   2.683   2.559   2.690  0.3938 -0.5571 -0.0991
16453TIP3   OH270849   2.261   6.414   1.069 -0.5540 -0.5633 -0.0063
16453TIP3    H170850   2.187   6.362   1.038 -0.8691 -1.4768  2.1673
16453TIP3    H270851   2.227   6.503   1.075 -1.1529 -0.7872 -0.0542
16454TIP3   OH270852   6.743   0.440  16.308  0.2413 -0.3898 -0.9956
16454TIP3    H170853   6.823   0.392  16.329  0.8202  1.5796  1.4427
16454TIP3    H270854   6.772   0.511  16.251  0.0665 -0.2412 -0.8997
16455TIP3   OH270855   3.855   0.551   0.305 -0.3203 -0.3491 -0.4410
16455TIP3    H170856   3.861   0.457   0.286  1.2633 -0.0626 -1.5030
16455TIP3    H270857   3.787   0.583   0.245 -0.2630 -0.6773 -0.6860
16456TIP3   OH270858   0.937   1.932  15.188  0.2185 -0.0569  0.4417
16456TIP3    H170859   1.023   1.911  15.151  0.5919  1.3225  0.4917
16456TIP3    H270860   0.956   1.961  15.278 -0.3205  0.0155  0.5347
16457TIP3   OH270861   1.829   0.538  15.757  0.3908 -0.4381  0.6117
16457TIP3    H170862   1.905   0.580  15.797 -0.1382 -0.3190  1.5163
16457TIP3    H270863   1.857   0.449  15.739  1.6364  0.3693 -1.6500
16458TIP3   OH270864   0.422   0.037   0.305  0.5196 -0.4359  0.1732
16458TIP3    H170865   0.466  -0.037   0.348  0.0352 -0.1810  1.1338
16458TIP3    H270866   0.428   0.017   0.212  2.7128 -0.3633  0.2710
16459TIP3   OH270867   6.197   4.674  13.979  0.2719  0.2926  0.1145
16459TIP3    H170868   6.151   4.715  14.051 -1.9270 -0.9416 -0.5477
16459TIP3    H270869   6.278   4.640  14.018 -0.5525  0.2839  1.8276
16460TIP3   OH270870   4.223   3.115  14.893 -0.3898  0.2232 -0.2077
16460TIP3    H170871   4.191   3.203  14.873 -1.6471 -0.4107 -1.0601
16460TIP3    H270872   4.266   3.087  14.811  1.3032  0.5903  0.5270
16461TIP3   OH270873   2.877   0.350   1.840  0.5914  0.2216  0.2773
16461TIP3    H170874   2.802   0.397   1.877 -0.5638 -2.3788  1.3872
16461TIP3    H270875   2.954   0.400   1.868 -0.5831  1.4538  1.3721
16462TIP3   OH270876   6.252   1.498   1.486 -0.2081  0.4081 -0.4966
16462TIP3    H170877   6.278   1.476   1.575  2.6637  2.6956 -0.7195
16462TIP3    H270878   6.316   1.452   1.431 -2.9435 -2.3681 -1.5445
16463TIP3   OH270879   4.917   2.712  16.584 -0.5187 -0.1335  0.2205
16463TIP3    H170880   4.829   2.714  16.621  1.0038  1.3737  3.9816
16463TIP3    H270881   4.935   2.802  16.556  0.8281  0.1824  2.0312
16464TIP3   OH270882   5.911   2.476   0.126 -0.1220 -1.0069  0.7294
16464TIP3    H170883   5.866   2.525   0.057  0.8989  0.7680  1.2690
16464TIP3    H270884   5.995   2.453   0.087  0.3720 -0.1851  1.2799
16465TIP3   OH270885   6.729   5.541   3.099  0.0008  0.3264 -0.2711
16465TIP3    H170886   6.796   5.519   3.034  0.8865  0.8089  0.4767
16465TIP3    H270887   6.699   5.456   3.133  0.1820  0.1108 -0.6436
16466TIP3   OH270888   1.076   5.031   0.902 -0.3660 -0.2682 -0.6958
16466TIP3    H170889   1.061   5.123   0.924 -3.4523 -0.9717  0.4661
16466TIP3    H270890   1.125   4.997   0.977  0.5092  0.3641 -0.9789
16467TIP3   OH270891   6.510   3.692  15.114  0.6215 -0.0582  0.4359
16467TIP3    H170892   6.474   3.655  15.194  1.1090  0.7025  1.0216
16467TIP3    H270893   6.599   3.718  15.138  0.8356 -0.0074 -0.4052
16468TIP3   OH270894   2.782   4.273   2.469 -0.0940 -0.2723  0.2925
16468TIP3    H170895   2.812   4.282   2.560  0.0295 -0.3963  0.2640
16468TIP3    H270896   2.814   4.352   2.425 -0.7330  0.1196  0.5146
16469TIP3   OH270897   5.314   0.275   3.343 -0.1240  0.4338 -0.0786
16469TIP3    H170898   5.368   0.284   3.265  0.8252 -1.7742  0.2731
16469TIP3    H270899   5.361   0.322   3.411  0.0634  0.6800 -0.3818
16470TIP3   OH270900   3.699   3.917   1.213  0.4303  0.0342  0.1064
16470TIP3    H170901   3.733   3.990   1.162  1.0567 -0.7936 -0.6629
16470TIP3    H270902   3.775   3.881   1.257  0.0146  0.2557  1.0255
16471TIP3   OH270903   1.884   5.225  13.141  0.5751  0.1472 -0.2480
16471TIP3    H170904   1.832   5.180  13.075  1.4966 -1.2689 -0.0327
16471TIP3    H270905   1.824   5.235  13.215  0.0089  0.3386 -0.7248
16472TIP3   OH270906   0.071   4.281   0.191  0.5795 -0.5331 -0.0525
16472TIP3    H170907   0.151   4.252   0.147  1.0110  0.7878 -0.1737
16472TIP3    H270908   0.036   4.202   0.232  1.9449 -1.1315 -0.0051
16473TIP3   OH270909   4.968   0.398   4.652  0.5739 -0.0258  0.4976
16473TIP3    H170910   4.967   0.435   4.564  0.8768  1.8819  1.2664
16473TIP3    H270911   4.962   0.474   4.710 -1.4867 -1.3721  2.1177
16474TIP3   OH270912   1.872   5.116  14.811 -0.2676 -0.0832 -0.3870
16474TIP3    H170913   1.783   5.087  14.794  0.1053 -0.7351 -1.2315
16474TIP3    H270914   1.904   5.057  14.880 -1.0234  1.1628  1.0627
16475TIP3   OH270915   3.470   5.876   0.032  0.0100 -0.3570  0.2675
16475TIP3    H170916   3.560   5.896   0.005  0.4779  0.0411  2.0281
16475TIP3    H270917   3.464   5.781   0.028  0.2881 -0.3449 -0.5377
16476TIP3   OH270918   0.955   1.176  15.690 -0.4484 -0.2657 -0.5102
16476TIP3    H170919   1.022   1.186  15.622 -1.0085  3.8070 -0.5663
16476TIP3    H270920   0.971   1.089  15.726  3.2279 -0.4254 -2.2748
16477TIP3   OH270921   1.831   1.249   3.022 -0.0249  0.1894 -0.3276
16477TIP3    H170922   1.743   1.227   3.055 -0.6981  1.2683 -1.3623
16477TIP3    H270923   1.884   1.259   3.101 -1.0581  0.4331  0.3528
16478TIP3   OH270924   1.494   6.160   4.997  0.4969  0.7924 -0.3042
16478TIP3    H170925   1.580   6.122   5.014 -0.5807 -0.4180  2.7241
16478TIP3    H270926   1.488   6.234   5.057 -1.1802 -0.1022  0.6758
16479TIP3   OH270927   0.297   2.377   0.927  0.8304 -0.0526 -0.5321
16479TIP3    H170928   0.299   2.462   0.972 -1.7547  1.0226 -2.3203
16479TIP3    H270929   0.260   2.317   0.992  0.2113  0.7560 -0.1282
16480TIP3   OH270930   0.761   0.418  16.768  0.1182 -0.1584 -0.1120
16480TIP3    H170931   0.679   0.418  16.819  0.4424 -2.3270  0.4850
16480TIP3    H270932   0.818   0.479  16.814  0.2887 -1.8553  2.0309
16481TIP3   OH270933   5.105   5.667   4.975 -0.2204  0.2232  0.1017
16481TIP3    H170934   5.127   5.711   4.893 -1.4272 -1.3367 -1.0714
16481TIP3    H270935   5.189   5.640   5.011  0.1630 -1.2874 -1.8684
16482TIP3   OH270936   1.569   1.099   2.037  0.0241 -0.2031  0.4067
16482TIP3    H170937   1.655   1.133   2.063  0.3540 -1.5053  1.0388
16482TIP3    H270938   1.589   1.030   1.974 -0.5633 -0.6567  0.7229
16483TIP3   OH270939   5.990   1.871   1.947 -0.2055  0.0518  0.1617
16483TIP3    H170940   6.004   1.916   1.863 -0.8166 -0.1000 -0.0256
16483TIP3    H270941   6.066   1.813   1.956 -1.3776 -1.8461 -1.5425
16484TIP3   OH270942   3.598   3.408   1.546 -0.4878  0.1140 -0.0725
16484TIP3    H170943   3.667   3.394   1.611  0.1661  2.4748 -0.1931
16484TIP3    H270944   3.548   3.326   1.545  1.4484 -1.1150  1.0455
16485TIP3   OH270945   2.876   4.306  12.860  0.1004  0.0866  0.2436
16485TIP3    H170946   2.826   4.375  12.904  1.6579  1.3520  0.0651
16485TIP3    H270947   2.930   4.353  12.796 -1.5711 -1.6140 -2.5559
16486TIP3   OH270948   0.463   6.463  12.723  0.8989  0.5874  0.0495
16486TIP3    H170949   0.430   6.550  12.744  0.1524  0.0049  1.3331
16486TIP3    H270950   0.386   6.414  12.695  1.1830  0.1162  0.0844
16487TIP3   OH270951   0.468   2.939   5.531 -0.5908  0.0369  0.2216
16487TIP3    H170952   0.522   2.956   5.454 -1.0526  0.4120 -0.0164
16487TIP3    H270953   0.441   2.848   5.522  0.2462 -0.2443  0.4936
16488TIP3   OH270954   5.845   6.558   1.212  0.4240  0.0303 -0.1055
16488TIP3    H170955   5.908   6.536   1.281 -1.0362 -0.1957  1.1792
16488TIP3    H270956   5.784   6.618   1.254  1.3097  2.3955 -2.1034
16489TIP3   OH270957   5.388   4.858  14.562  0.3372 -0.2666  0.2428
16489TIP3    H170958   5.468   4.858  14.615  0.3147  1.1531  0.2865
16489TIP3    H270959   5.321   4.824  14.621  1.0643 -2.3446 -0.0716
16490TIP3   OH270960   0.867   4.174  12.685  0.4352  0.5683  0.5479
16490TIP3    H170961   0.904   4.162  12.773  2.0788  1.7285  0.0199
16490TIP3    H270962   0.933   4.140  12.626 -0.2128  0.7838 -0.3047
16491TIP3   OH270963   4.565   4.312   3.359  0.5826  0.0368 -0.1552
16491TIP3    H170964   4.619   4.389   3.377 -0.0910  0.0421  2.0081
16491TIP3    H270965   4.476   4.338   3.382  0.4167 -1.5226  1.1149
16492TIP3   OH270966   3.844   4.111   1.075 -0.2579 -0.1242 -0.3252
16492TIP3    H170967   3.828   4.055   0.999  1.4921 -1.3340  0.1659
16492TIP3    H270968   3.930   4.149   1.060 -0.7303  1.1503  0.1396
16493TIP3   OH270969   1.013   1.385   1.388 -0.1042 -0.0311 -0.2939
16493TIP3    H170970   1.042   1.382   1.479  1.3506 -0.1962 -0.7355
16493TIP3    H270971   1.084   1.342   1.339 -1.0699 -0.3450 -1.4500
16494TIP3   OH270972   3.584   0.359   0.281 -0.6839  0.6344  0.1290
16494TIP3    H170973   3.539   0.392   0.358  0.9906  0.4649  1.2029
16494TIP3    H270974   3.592   0.265   0.295  2.0047  0.9622  1.0485
16495TIP3   OH270975   5.823   5.859   6.006  0.0062  0.3560 -0.0819
16495TIP3    H170976   5.824   5.864   5.911  0.3543  0.7166 -0.0599
16495TIP3    H270977   5.898   5.911   6.034  0.2347 -0.2084  0.3720
16496TIP3   OH270978   4.885   4.222   5.916 -0.0432 -0.4246  0.1655
16496TIP3    H170979   4.885   4.300   5.860 -1.7288 -0.3451  0.2345
16496TIP3    H270980   4.936   4.247   5.992  1.9139 -0.3816 -1.1276
16497TIP3   OH270981   1.563   0.153  11.840  0.4419  0.6165 -0.1008
16497TIP3    H170982   1.506   0.077  11.853 -0.9008  1.4218 -1.1743
16497TIP3    H270983   1.627   0.147  11.911 -0.6701 -0.5973  0.8299
16498TIP3   OH270984   0.729   4.453   4.793  0.0117  0.6519  0.5434
16498TIP3    H170985   0.747   4.433   4.701  0.2218  0.7844  0.5527
16498TIP3    H270986   0.815   4.477   4.828 -0.3665  2.4347  0.3041
16499TIP3   OH270987   0.175   3.759  15.722 -0.0455  0.4168 -0.2761
16499TIP3    H170988   0.105   3.822  15.743 -0.6410  0.1681 -1.4813
16499TIP3    H270989   0.161   3.738  15.630  2.0098  0.8433 -0.7020
16500TIP3   OH270990   0.797   2.638  15.381 -0.3023  0.1383  0.1677
16500TIP3    H170991   0.816   2.691  15.304 -1.2158  1.5775  0.9160
16500TIP3    H270992   0.712   2.599  15.363 -0.0220 -0.3881 -0.0162
16501TIP3   OH270993   6.587   0.915  17.189 -0.6384  0.5186 -0.0619
16501TIP3    H170994   6.626   0.892  17.104 -2.3696  1.1284 -1.0566
16501TIP3    H270995   6.538   0.995  17.171  0.4353  1.6487  1.9605
16502TIP3   OH270996   6.076   5.799   0.204  0.5226 -0.1106 -0.4877
16502TIP3    H170997   6.027   5.789   0.285  0.7135  0.9221 -0.2400
16502TIP3    H270998   6.134   5.874   0.219 -0.0209  0.6109 -1.8521
16503TIP3   OH270999   6.515   2.470   4.913 -0.2053  0.0005  0.9728
16503TIP3    H171000   6.465   2.390   4.895 -1.5226  1.0176 -0.0353
16503TIP3    H271001   6.603   2.451   4.880 -1.2348 -0.0595 -1.8807
16504TIP3   OH271002   3.470   4.600  12.826 -0.4115  0.1405  0.0908
16504TIP3    H171003   3.541   4.567  12.771 -0.7154  0.7628 -0.6829
16504TIP3    H271004   3.390   4.570  12.782 -0.6445  0.1225  0.5251
16505TIP3   OH271005   6.513   2.879   2.819  0.0822  0.0565 -0.3934
16505TIP3    H171006   6.522   2.803   2.877  2.1056  1.5076  1.2259
16505TIP3    H271007   6.574   2.862   2.747 -0.7541 -0.6645 -0.9405
16506TIP3   OH271008   2.863   5.355  11.306 -0.1066  0.0175 -0.4149
16506TIP3    H171009   2.849   5.410  11.383 -0.0556  0.9658 -1.0715
16506TIP3    H271010   2.892   5.271  11.341 -2.7872 -0.4783  0.7456
16507TIP3   OH271011   1.522   1.570   6.164 -0.3481 -0.3915 -0.5470
16507TIP3    H171012   1.563   1.489   6.135  0.1167 -1.2396  2.3209
16507TIP3    H271013   1.594   1.633   6.168 -0.0974 -0.7364  0.4069
16508TIP3   OH271014   3.419   4.243  11.001 -0.1422  0.4302 -0.8267
16508TIP3    H171015   3.482   4.254  11.073 -2.5934 -0.5097  1.5775
16508TIP3    H271016   3.334   4.259  11.042 -1.6915 -1.0841 -3.3337
16509TIP3   OH271017   0.338   3.999  15.045  0.0566  0.3143 -1.0179
16509TIP3    H171018   0.377   4.063  14.985 -0.3161  1.2903 -0.2331
16509TIP3    H271019   0.388   3.918  15.030  3.0587  1.7792  0.6386
16510TIP3   OH271020   3.913   2.136  11.396  0.0926 -0.0509  0.3340
16510TIP3    H171021   3.981   2.204  11.397  0.1140 -0.0902  1.4870
16510TIP3    H271022   3.932   2.085  11.317  0.9121  0.4301  0.2097
16511TIP3   OH271023   1.124   4.736  12.799 -0.3815  0.3601  0.5460
16511TIP3    H171024   1.217   4.761  12.801 -0.6251  1.4186 -0.7514
16511TIP3    H271025   1.077   4.818  12.811 -1.1649  0.0302 -0.2264
16512TIP3   OH271026   5.664   6.649  15.838  0.4189  0.4265 -0.4198
16512TIP3    H171027   5.716   6.683  15.911  0.6246 -0.7734 -0.0032
16512TIP3    H271028   5.720   6.658  15.761  0.2844  1.4853 -0.4068
16513TIP3   OH271029   1.472   2.705   5.278  0.7047  0.5066 -0.0032
16513TIP3    H171030   1.537   2.775   5.279  0.8340  0.3804  1.2816
16513TIP3    H271031   1.397   2.742   5.232  1.5919  0.7246 -1.3117
16514TIP3   OH271032   1.506   1.154  12.461 -0.1094 -0.0144 -0.4123
16514TIP3    H171033   1.453   1.233  12.453 -0.5661 -0.3684 -0.9137
16514TIP3    H271034   1.570   1.174  12.530 -1.3749  0.1396  0.7228
16515TIP3   OH271035   4.254   4.460   0.462 -0.3247  0.0215  1.0024
16515TIP3    H171036   4.163   4.486   0.474 -1.3948 -2.4490 -1.2583
16515TIP3    H271037   4.269   4.397   0.533 -0.3566  0.4171  1.3671
16516TIP3   OH271038   1.654   4.955  15.519 -0.4677 -0.1563 -0.0712
16516TIP3    H171039   1.736   4.938  15.565 -0.4198  0.4088  0.0477
16516TIP3    H271040   1.603   5.010  15.579  0.8744  3.3193 -1.9734
16517TIP3   OH271041   0.036   5.045   5.080 -0.9365 -0.5421 -0.6091
16517TIP3    H171042   0.070   5.057   4.991 -0.5371 -0.1402 -0.4033
16517TIP3    H271043   0.103   4.991   5.123 -0.2159  0.7987 -0.0052
16518TIP3   OH271044   0.339   3.460  12.990  0.0589 -0.3608 -0.7892
16518TIP3    H171045   0.264   3.475  13.048  0.0141 -1.0851 -0.6554
16518TIP3    H271046   0.406   3.421  13.047  0.3856 -0.1283 -1.0080
16519TIP3   OH271047   1.705   1.233  11.945  0.0072 -0.1554  0.0115
16519TIP3    H171048   1.695   1.309  11.887  0.2264  0.5025  0.8139
16519TIP3    H271049   1.683   1.158  11.890  0.9559  0.3881 -1.1393
16520TIP3   OH271050   0.095   6.344   4.101 -0.1075 -0.1741  0.6557
16520TIP3    H171051   0.105   6.368   4.009 -0.7715 -2.6876 -0.1034
16520TIP3    H271052   0.185   6.337   4.133  0.1325  0.3385  0.1073
16521TIP3   OH271053   4.935   5.572   0.138 -0.0524  0.2301  0.0453
16521TIP3    H171054   4.947   5.556   0.232 -2.0623 -1.0456  0.1014
16521TIP3    H271055   4.869   5.642   0.134 -0.6251 -0.3361 -0.4297
16522TIP3   OH271056   5.637   5.944   1.136  0.2566  0.3927  0.0610
16522TIP3    H171057   5.637   6.038   1.119  0.6530  0.0794 -1.7807
16522TIP3    H271058   5.721   5.913   1.101 -1.0881 -1.0716 -1.9544
16523TIP3   OH271059   0.780   5.379  11.569  1.0206 -0.0817 -0.5578
16523TIP3    H171060   0.793   5.340  11.655 -1.7443  1.7387  0.7565
16523TIP3    H271061   0.757   5.306  11.512  2.8445 -1.2902  0.2337
16524TIP3   OH271062   3.527   2.175  15.197  0.2496  0.2084 -0.0719
16524TIP3    H171063   3.591   2.124  15.246 -0.5075 -0.4061  0.2879
16524TIP3    H271064   3.573   2.202  15.118 -0.1231 -3.2668 -1.5629
16525TIP3   OH271065   5.280   5.206  10.740  0.2401  0.7388  0.0980
16525TIP3    H171066   5.303   5.114  10.724 -1.6852  0.2312  0.1925
16525TIP3    H271067   5.364   5.249  10.757  1.2829 -0.7727 -1.0645
16526TIP3   OH271068   6.453   1.688   4.185  0.1851  0.4650 -0.6827
16526TIP3    H171069   6.411   1.603   4.191  0.1157  0.4495 -1.3384
16526TIP3    H271070   6.398   1.747   4.236  0.1780  0.1401 -0.3147
16527TIP3   OH271071   2.351   4.942  12.021 -0.3411 -0.4206  0.2471
16527TIP3    H171072   2.295   4.948  11.943 -2.3152 -1.6704  1.5307
16527TIP3    H271073   2.421   4.882  11.996  0.4471  1.1284 -1.3760
16528TIP3   OH271074   3.800   4.451  16.392 -0.4925 -0.3138 -0.0601
16528TIP3    H171075   3.851   4.397  16.452 -0.6731 -0.0268  0.3589
16528TIP3    H271076   3.745   4.389  16.344 -3.1177 -0.2955  2.7254
16529TIP3   OH271077   0.762   2.254   3.144  0.0770 -0.3083  0.1171
16529TIP3    H171078   0.846   2.291   3.118  0.3968  0.9389  2.7290
16529TIP3    H271079   0.729   2.212   3.065  2.0676  1.1993 -1.5859
16530TIP3   OH271080   1.123   1.501   6.511 -0.3625  0.5179  0.1537
16530TIP3    H171081   1.029   1.489   6.504 -0.4609 -0.1312  2.0644
16530TIP3    H271082   1.150   1.540   6.428 -2.0934 -0.6430 -0.9804
16531TIP3   OH271083   5.516   2.819   2.354 -0.4176  0.0917  0.1013
16531TIP3    H171084   5.554   2.801   2.268  0.5919 -1.6023  0.8834
16531TIP3    H271085   5.586   2.865   2.401  0.1442 -1.6500  1.0131
16532TIP3   OH271086   2.636   3.717  11.832 -0.1571 -0.7758  0.1419
16532TIP3    H171087   2.577   3.777  11.786 -1.0926 -1.7360  0.0610
16532TIP3    H271088   2.641   3.752  11.921 -0.4066 -0.3658 -0.0036
16533TIP3   OH271089   2.890   6.370   0.629  0.4975  0.1021  0.2982
16533TIP3    H171090   2.944   6.445   0.604 -0.5080  1.0338  0.8806
16533TIP3    H271091   2.930   6.295   0.584  1.4823  0.9910 -0.3213
16534TIP3   OH271092   1.501   6.119  15.082 -0.5709 -0.3312 -0.1270
16534TIP3    H171093   1.408   6.134  15.069 -0.3636 -0.8562 -2.5858
16534TIP3    H271094   1.506   6.034  15.125 -1.2403 -0.0671  0.4750
16535TIP3   OH271095   1.413   4.293  14.697 -0.2519 -0.8247 -0.5383
16535TIP3    H171096   1.344   4.229  14.678 -1.0751  0.4145 -1.8915
16535TIP3    H271097   1.423   4.341  14.615 -0.8965  1.9236  0.9323
16536TIP3   OH271098   6.727   1.015  15.406  0.4384  0.0187  0.1072
16536TIP3    H171099   6.710   1.073  15.332 -1.4550 -0.5581  0.0666
16536TIP3    H271100   6.640   0.985  15.433  1.4406 -3.8947 -0.7694
16537TIP3   OH271101   3.246   6.753  16.525 -0.2308  0.2676  0.1417
16537TIP3    H171102   3.279   6.808  16.455  1.4900 -0.3206  0.4646
16537TIP3    H271103   3.151   6.763  16.522  0.0104  2.4136 -0.4593
16538TIP3   OH271104   0.654   2.456  12.317  0.1397  0.2660  0.1375
16538TIP3    H171105   0.604   2.519  12.370 -0.4235  0.2997 -0.4280
16538TIP3    H271106   0.742   2.492  12.314  0.5169 -0.4299  2.1909
16539TIP3   OH271107   3.400   1.279  14.639 -0.0084 -0.0709 -0.4111
16539TIP3    H171108   3.422   1.230  14.560  0.8872 -0.6869  0.2043
16539TIP3    H271109   3.457   1.356  14.637 -0.5707  0.3397 -0.7756
16540TIP3   OH271110   2.788   6.521   1.300  0.3786  0.1253 -0.3672
16540TIP3    H171111   2.763   6.613   1.302 -1.2152 -0.3069  0.1173
16540TIP3    H271112   2.751   6.489   1.218  1.7299  0.1211 -0.9926
16541TIP3   OH271113   2.008   3.102  12.365  0.1109 -0.1372 -0.5519
16541TIP3    H171114   2.099   3.079  12.350 -0.2849 -0.7819 -2.1091
16541TIP3    H271115   2.000   3.192  12.332  0.4844  0.4141  0.8337
16542TIP3   OH271116   4.211   1.585  15.272 -0.0475 -0.1965 -0.4620
16542TIP3    H171117   4.306   1.576  15.258  0.2126  0.7693  0.5410
16542TIP3    H271118   4.171   1.527  15.207  1.2164 -0.1120 -1.3395
16543TIP3   OH271119   4.599   0.100   0.955 -0.2718 -0.0289  0.0515
16543TIP3    H171120   4.651   0.046   0.895  0.0283 -0.8126  1.0094
16543TIP3    H271121   4.557   0.164   0.898  1.4140  0.3551 -0.7844
16544TIP3   OH271122   2.730   4.698   5.268  0.3726 -0.5054 -0.1373
16544TIP3    H171123   2.658   4.636   5.262 -0.4900  0.5716 -1.2706
16544TIP3    H271124   2.804   4.646   5.300 -1.0884 -1.4473  1.7681
16545TIP3   OH271125   4.635   0.045   1.861 -0.4569  0.0476 -0.4010
16545TIP3    H171126   4.598   0.124   1.900  0.4386 -0.3312  1.2711
16545TIP3    H271127   4.691   0.077   1.790  0.1761  0.9670  0.4909
16546TIP3   OH271128   0.715   6.425  12.056  0.0768 -0.4030  0.4366
16546TIP3    H171129   0.795   6.384  12.022  0.9797  1.9964 -0.4563
16546TIP3    H271130   0.645   6.389  12.002  0.9936  0.0144 -1.0621
16547TIP3   OH271131   0.360   4.259  12.606  0.0126  0.1440 -0.3871
16547TIP3    H171132   0.445   4.250  12.649 -0.7188 -1.4910  0.7309
16547TIP3    H271133   0.375   4.327  12.540  1.9117  0.6128  0.4768
16548TIP3   OH271134   6.058   3.687   2.487 -0.3603 -0.6066  0.5951
16548TIP3    H171135   6.006   3.682   2.567  0.1566 -0.4868  0.9487
16548TIP3    H271136   5.997   3.714   2.419 -0.4148  1.3086  1.3614
16549TIP3   OH271137   5.072   5.314  14.549 -0.0015  0.6102  0.4897
16549TIP3    H171138   5.091   5.386  14.489  0.4023  1.1264  1.2235
16549TIP3    H271139   5.149   5.258  14.545 -0.9691 -0.6059 -1.2540
16550TIP3   OH271140   0.035   3.482   4.519 -0.8448  0.5281  0.2201
16550TIP3    H171141  -0.012   3.559   4.487 -2.3098 -0.0161  1.0058
16550TIP3    H271142  -0.015   3.453   4.595 -0.7545 -1.6166 -0.4895
16551TIP3   OH271143   4.473   5.555  16.618  0.5812  0.0076 -0.3594
16551TIP3    H171144   4.397   5.521  16.570 -0.9427  0.3191  1.7269
16551TIP3    H271145   4.465   5.650  16.610  1.0326  0.0310 -0.5386
16552TIP3   OH271146   1.299   6.297   0.511 -0.2516 -0.1120 -0.2291
16552TIP3    H171147   1.379   6.350   0.517  0.2499 -0.4885 -2.8566
16552TIP3    H271148   1.321   6.215   0.554  0.8609 -0.2619 -1.0402
16553TIP3   OH271149   4.723   1.520   2.810 -0.4322 -0.0659 -0.2424
16553TIP3    H171150   4.696   1.442   2.860  1.2346 -1.3215 -1.2278
16553TIP3    H271151   4.718   1.492   2.718  0.0970  1.0224 -0.6043
16554TIP3   OH271152   6.481   2.015  15.484  0.2666  0.1400  0.2333
16554TIP3    H171153   6.573   1.992  15.472  0.1476  0.1253 -0.6648
16554TIP3    H271154   6.473   2.035  15.577  0.5172 -2.7830  0.9338
16555TIP3   OH271155   4.048   6.675  16.210  0.1719 -0.2712  0.0977
16555TIP3    H171156   4.003   6.729  16.144 -1.0658 -0.0645  1.0897
16555TIP3    H271157   4.094   6.608  16.159  1.2763  1.3782 -1.1113
16556TIP3   OH271158   6.635   5.888  15.489 -0.1136  0.0599 -0.3407
16556TIP3    H171159   6.719   5.877  15.444 -0.2277 -0.6445 -0.3835
16556TIP3    H271160   6.654   5.863  15.580 -0.9417 -2.9476 -0.9298
16557TIP3   OH271161   3.678   2.752   0.504  0.2049 -0.1329  0.3184
16557TIP3    H171162   3.704   2.807   0.430  0.4022 -0.2121  0.3298
16557TIP3    H271163   3.606   2.699   0.471  0.6628 -0.5659  0.0238
16558TIP3   OH271164   6.210   3.903   5.993  0.5405  0.4182 -0.0144
16558TIP3    H171165   6.252   3.830   5.948  0.2186  0.0965  0.2081
16558TIP3    H271166   6.157   3.862   6.061  0.1113  0.8404 -0.0961
16559TIP3   OH271167   5.724   5.174  16.548 -0.4240  0.1821 -0.6000
16559TIP3    H171168   5.718   5.183  16.643 -0.7416  0.6390 -0.6566
16559TIP3    H271169   5.636   5.197  16.517 -0.9659 -2.1456 -0.8490
16560TIP3   OH271170   3.567   4.735   2.704  0.7802 -0.6068 -0.3575
16560TIP3    H171171   3.495   4.725   2.767  0.5337  0.8804 -0.3956
16560TIP3    H271172   3.535   4.695   2.624 -0.6150  1.4304 -0.8353
16561TIP3   OH271173   3.759   4.295   4.126  0.1499 -0.1370 -0.0005
16561TIP3    H171174   3.748   4.311   4.220 -2.0392 -3.0574  0.2969
16561TIP3    H271175   3.804   4.210   4.121  1.1035  0.4389 -1.6100
16562TIP3   OH271176   2.092   2.040  12.550  0.4100 -0.3760 -0.5078
16562TIP3    H171177   1.999   2.038  12.530  0.8031  0.6126 -2.5847
16562TIP3    H271178   2.116   2.132  12.541  1.7178 -0.7182 -0.6309
16563TIP3   OH271179   6.347   6.735  16.032  0.2201 -0.0820  0.3099
16563TIP3    H171180   6.263   6.777  16.017 -0.3318 -1.6900 -1.1985
16563TIP3    H271181   6.368   6.693  15.949  1.8344 -0.8963  1.1120
16564TIP3   OH271182   6.140   6.086  16.257  0.1237  0.1375  0.6388
16564TIP3    H171183   6.200   6.013  16.274 -0.0339 -0.1426  0.0197
16564TIP3    H271184   6.068   6.047  16.207 -1.0971  0.2698  2.2661
16565TIP3   OH271185   2.583   2.917   4.095 -0.2228  0.2914 -0.1024
16565TIP3    H171186   2.621   2.995   4.055 -4.7700  3.2891  1.0479
16565TIP3    H271187   2.528   2.880   4.026  1.0666 -1.3554 -0.2842
16566TIP3   OH271188   6.551   2.569   3.392  0.2869  0.1588  0.3782
16566TIP3    H171189   6.506   2.485   3.397 -0.5871  0.6907  1.7390
16566TIP3    H271190   6.594   2.568   3.307 -1.6119 -0.7022 -0.5800
16567TIP3   OH271191   0.765   2.870   1.033  0.2283  0.5686  0.4909
16567TIP3    H171192   0.797   2.921   0.959  1.1549  0.5336  0.8588
16567TIP3    H271193   0.673   2.893   1.039  0.3440  1.2395 -0.1314
16568TIP3   OH271194   1.637   6.260   2.238 -0.1721  0.1324 -0.4682
16568TIP3    H171195   1.712   6.215   2.276  1.2394  1.6506 -1.3476
16568TIP3    H271196   1.580   6.281   2.312  0.9970  0.2773  0.3897
16569TIP3   OH271197   5.274   5.736   6.193  0.2804  0.2644 -0.8209
16569TIP3    H171198   5.230   5.804   6.244  0.1518  0.4681 -1.2015
16569TIP3    H271199   5.203   5.688   6.151  0.3900  0.1238 -0.8485
16570TIP3   OH271200   0.291   4.835  15.426 -0.7310  0.0612  0.0044
16570TIP3    H171201   0.296   4.897  15.353 -0.6724  0.3694  0.2700
16570TIP3    H271202   0.199   4.808  15.427 -0.0072 -2.7948 -2.5387
16571TIP3   OH271203   2.034   4.545  12.378  0.0270  0.3541 -0.8779
16571TIP3    H171204   2.001   4.502  12.299 -0.9551  1.1584 -0.9208
16571TIP3    H271205   2.100   4.606  12.347 -2.1847  2.5804 -1.4219
16572TIP3   OH271206   2.093   1.230   4.880  0.0088 -0.3448  0.6936
16572TIP3    H171207   2.141   1.305   4.844  0.9569 -1.0977  0.3595
16572TIP3    H271208   2.043   1.266   4.953  0.1170  0.6968  0.2656
16573TIP3   OH271209   1.895   0.835   5.640  0.0609  0.7363 -0.3251
16573TIP3    H171210   1.900   0.794   5.553  0.7108  1.4863 -0.6436
16573TIP3    H271211   1.835   0.779   5.689 -0.7711  0.6351 -1.4403
16574TIP3   OH271212   4.338   0.113  16.643 -0.0518 -0.2101 -0.0128
16574TIP3    H171213   4.420   0.136  16.599  0.6216 -0.9022  0.8457
16574TIP3    H271214   4.278   0.184  16.622  0.2499 -0.5183 -2.0347
16575TIP3   OH271215   0.632   2.339  13.405  0.8934  0.4811  0.7159
16575TIP3    H171216   0.576   2.415  13.392  0.9452  0.5266  0.7624
16575TIP3    H271217   0.572   2.270  13.433  0.7326  0.2994 -0.0494
16576TIP3   OH271218   3.550   2.603  12.680 -0.2039 -0.3751 -0.0277
16576TIP3    H171219   3.481   2.620  12.615  0.7703 -1.2647 -1.3069
16576TIP3    H271220   3.525   2.657  12.755 -1.5423  0.4010 -0.9993
16577TIP3   OH271221   1.026   3.470  15.938  0.7132  0.1150  0.2680
16577TIP3    H171222   1.051   3.501  16.025 -0.8095  0.0602  0.7455
16577TIP3    H271223   0.946   3.519  15.917  0.5888 -0.4967 -0.7241
16578TIP3   OH271224   2.466   2.986   2.513  0.3611  0.0251 -0.0542
16578TIP3    H171225   2.515   2.999   2.595  0.9383 -1.1185 -0.2127
16578TIP3    H271226   2.525   3.020   2.446  0.6125 -0.6118 -0.1620
16579TIP3   OH271227   1.526   2.065  16.911  0.0897 -0.2142  0.0729
16579TIP3    H171228   1.525   2.152  16.870 -0.6100 -0.6384 -0.8363
16579TIP3    H271229   1.434   2.045  16.927  0.2753 -0.6251  0.6507
16580TIP3   OH271230   4.459   1.157   1.873  0.4844  0.7259 -0.1488
16580TIP3    H171231   4.524   1.116   1.929 -1.0032 -1.6665 -0.1200
16580TIP3    H271232   4.395   1.195   1.934 -0.5279 -0.8828 -0.1852
16581TIP3   OH271233   4.275   4.626  15.690 -0.0399  0.3000  0.0234
16581TIP3    H171234   4.336   4.611  15.763 -0.9961  0.2308  0.8324
16581TIP3    H271235   4.252   4.719  15.697 -0.2063  0.2704 -0.1261
16582TIP3   OH271236   1.132   2.101  13.404 -0.4478  0.1597  0.0451
16582TIP3    H171237   1.099   2.066  13.321 -1.5872  1.6681 -0.1419
16582TIP3    H271238   1.185   2.029  13.439  1.0338 -0.1078 -2.5412
16583TIP3   OH271239   0.305   4.458  14.938  0.2218  0.3389  0.2598
16583TIP3    H171240   0.306   4.548  14.907 -1.3807  0.5931  0.8941
16583TIP3    H271241   0.217   4.446  14.975  0.5824 -1.3221  0.6307
16584TIP3   OH271242   1.825   1.259  16.014  0.0252  0.2178 -0.2576
16584TIP3    H171243   1.841   1.180  16.066  1.1310 -0.6016 -1.8075
16584TIP3    H271244   1.735   1.248  15.982 -0.9780  1.1372  2.1434
16585TIP3   OH271245   1.916   3.841   5.181  0.0899  0.0443  0.2609
16585TIP3    H171246   1.895   3.765   5.236 -0.3209 -0.6030 -0.7852
16585TIP3    H271247   1.952   3.905   5.243 -3.1499  0.4936  1.7941
16586TIP3   OH271248   5.527   3.407   5.353 -0.6316 -0.1904 -0.1291
16586TIP3    H171249   5.485   3.429   5.270 -1.7736 -0.8521  0.2502
16586TIP3    H271250   5.454   3.381   5.410  0.1735 -0.1064  0.9597
16587TIP3   OH271251   2.166   2.106  16.420  0.1196 -0.1370  0.6198
16587TIP3    H171252   2.086   2.149  16.450 -0.5937 -0.7909 -0.3144
16587TIP3    H271253   2.219   2.177  16.385 -0.1684  0.2676  0.9989
16588TIP3   OH271254   1.650   2.892   4.569 -0.7509  0.0637 -0.3411
16588TIP3    H171255   1.689   2.807   4.549 -2.5832 -0.7021 -0.7072
16588TIP3    H271256   1.643   2.893   4.665 -2.3326 -0.9284 -0.4374
16589TIP3   OH271257   1.135   6.206  13.908  0.2353  0.4876  0.4623
16589TIP3    H171258   1.105   6.296  13.917 -0.2702  0.2238  1.4334
16589TIP3    H271259   1.074   6.166  13.845  0.4387  0.8026  0.0608
16590TIP3   OH271260   3.376   1.564   2.023  0.3340  0.3800  0.3059
16590TIP3    H171261   3.328   1.526   2.097  2.4869 -0.5849  1.2723
16590TIP3    H271262   3.415   1.644   2.058 -0.9260  1.4064 -0.6023
16591TIP3   OH271263   3.636   0.910  11.582  0.8306  0.0276  0.1384
16591TIP3    H171264   3.619   1.004  11.584  0.1567 -0.0884  0.0253
16591TIP3    H271265   3.550   0.870  11.592  0.9993 -0.5846 -0.8061
16592TIP3   OH271266   1.152   6.747  16.224 -0.3148 -0.3699 -0.4657
16592TIP3    H171267   1.161   6.670  16.280  1.9188  0.3723  0.2231
16592TIP3    H271268   1.240   6.764  16.190 -0.5635  2.4532  0.1470
16593TIP3   OH271269   4.040   5.056  15.608 -0.6696  0.4764 -0.6194
16593TIP3    H171270   4.025   5.023  15.520  1.7046  1.1932 -1.3423
16593TIP3    H271271   4.074   5.144  15.595  0.2505  0.3789  0.9957
16594TIP3   OH271272   3.447   4.585  11.517  0.7108  0.5673  0.1522
16594TIP3    H171273   3.468   4.645  11.445 -1.4647 -0.2232 -1.1930
16594TIP3    H271274   3.527   4.582  11.570  0.7730  5.0109  0.5377
16595TIP3   OH271275   0.655   4.455  16.080  0.5192 -0.6425 -0.3924
16595TIP3    H171276   0.572   4.411  16.097  0.1489  0.5701  0.9617
16595TIP3    H271277   0.648   4.485  15.989 -0.4164 -0.7660 -0.3621
16596TIP3   OH271278   4.540   0.342  15.547  0.2522 -0.0785 -0.1745
16596TIP3    H171279   4.571   0.432  15.542 -1.6899  0.8113  2.6173
16596TIP3    H271280   4.568   0.312  15.634 -2.1143 -0.9471  0.3328
16597TIP3   OH271281   1.496   4.811   1.277 -0.0369 -0.3064  0.0996
16597TIP3    H171282   1.517   4.719   1.295  0.4351 -0.1761  0.2160
16597TIP3    H271283   1.568   4.860   1.316  0.1230  0.0706 -0.6489
16598TIP3   OH271284   4.806   3.699   4.986  0.1190 -0.4761 -0.0005
16598TIP3    H171285   4.816   3.783   4.943  0.6126 -0.0435  0.9361
16598TIP3    H271286   4.711   3.685   4.990  0.0230  0.2306  0.2073
16599TIP3   OH271287   5.323   5.319  11.547  0.3855 -0.6019  0.1026
16599TIP3    H171288   5.351   5.387  11.487  0.3028 -1.5283 -1.0062
16599TIP3    H271289   5.231   5.337  11.564 -0.1815 -1.5593 -1.7700
16600TIP3   OH271290   4.880   5.859  13.681 -0.2375  0.2581 -0.1943
16600TIP3    H171291   4.973   5.835  13.676 -0.2565  0.3628 -1.2208
16600TIP3    H271292   4.875   5.920  13.754  0.3466 -0.4650  0.4565
16601TIP3   OH271293   2.553   4.448  11.236 -0.0736  0.1224  0.2778
16601TIP3    H171294   2.487   4.390  11.198 -0.5663 -0.8061  2.4325
16601TIP3    H271295   2.628   4.391  11.254 -0.1359  0.3685  1.3658
16602TIP3   OH271296   1.342   0.899   2.793 -0.2244 -0.2463 -1.1426
16602TIP3    H171297   1.410   0.952   2.835 -0.2709 -0.7694 -0.4006
16602TIP3    H271298   1.286   0.870   2.865  0.5987 -2.4678 -1.3805
16603TIP3   OH271299   3.069   5.392  13.180  0.4604 -0.2233  0.0080
16603TIP3    H171300   3.141   5.350  13.228 -2.0437 -2.9663  1.5005
16603TIP3    H271301   3.102   5.480  13.161  3.7813 -1.0119  1.6119
16604TIP3   OH271302   1.440   2.451  15.341 -0.5289  0.2259  0.1596
16604TIP3    H171303   1.419   2.359  15.323 -3.0759  0.7074  0.4971
16604TIP3    H271304   1.478   2.451  15.428  3.3304 -0.9823 -1.4168
16605TIP3   OH271305   4.397   1.997   1.005  0.4585  0.0478 -0.5031
16605TIP3    H171306   4.349   2.011   0.924 -1.4636  1.6204  0.8782
16605TIP3    H271307   4.482   2.040   0.990  0.3527 -0.1958 -1.8741
16606TIP3   OH271308   0.730   1.928  11.870  0.5790 -0.0935  0.4896
16606TIP3    H171309   0.754   1.991  11.938 -0.1109  1.8301 -1.0008
16606TIP3    H271310   0.799   1.935  11.805 -2.0200  2.9515 -2.1413
16607TIP3   OH271311   4.425   1.888  13.299 -0.2370 -0.3767 -0.3740
16607TIP3    H171312   4.413   1.905  13.393  0.1623  0.3065 -0.4423
16607TIP3    H271313   4.458   1.971  13.264  0.7722 -0.9996 -0.9078
16608TIP3   OH271314   2.426   1.614  12.689 -0.0877  0.4558  0.0137
16608TIP3    H171315   2.394   1.564  12.764  2.5722 -2.3324 -0.6695
16608TIP3    H271316   2.372   1.585  12.616  0.3199 -0.1264 -0.0519
16609TIP3   OH271317   3.217   1.270   2.235  0.4270 -0.6687  0.2198
16609TIP3    H171318   3.208   1.366   2.239  1.4493 -0.5960  1.0033
16609TIP3    H271319   3.153   1.243   2.170  0.3086  0.5783 -0.2002
16610TIP3   OH271320   1.612   5.462  12.475  0.0785  0.8153  0.8120
16610TIP3    H171321   1.527   5.461  12.519  0.4615 -0.3353  1.5207
16610TIP3    H271322   1.592   5.437  12.384 -0.5988  2.4530  0.4821
16611TIP3   OH271323   5.881   0.916   4.396 -0.1584 -0.3451 -0.5559
16611TIP3    H171324   5.929   0.936   4.476 -1.1039  2.5769 -0.6603
16611TIP3    H271325   5.950   0.905   4.330  0.5119  0.3468  0.0103
16612TIP3   OH271326   6.716   4.640   5.938 -0.4988 -0.8195  0.2438
16612TIP3    H171327   6.751   4.607   6.021 -1.0372  1.1807  1.2870
16612TIP3    H271328   6.621   4.636   5.948 -0.5731  0.4806  0.1825
16613TIP3   OH271329   4.714   2.001   5.328 -0.1039  0.2619  0.8553
16613TIP3    H171330   4.643   1.947   5.294  0.0907  0.5273 -0.0088
16613TIP3    H271331   4.766   1.941   5.382  0.8757 -0.7923 -1.1839
16614TIP3   OH271332   2.214   0.008  11.603 -0.2110  0.8858  0.4465
16614TIP3    H171333   2.174   0.091  11.576 -1.0740  1.1680  2.5301
16614TIP3    H271334   2.308   0.026  11.601 -0.3491  1.5880 -0.1400
16615TIP3   OH271335   2.087   5.478  11.091  0.2868 -0.0424  0.0839
16615TIP3    H171336   2.011   5.491  11.148  0.9320  1.0308  0.7249
16615TIP3    H271337   2.159   5.519  11.139  1.2154 -0.8306 -0.6384
16616TIP3   OH271338   5.625   1.162   2.740 -0.0039 -0.7009 -0.2096
16616TIP3    H171339   5.675   1.085   2.765  1.9319 -0.0744 -2.0272
16616TIP3    H271340   5.684   1.235   2.757 -1.6420  0.3570  1.0297
16617TIP3   OH271341   2.879   1.715   3.604 -0.5467 -0.4747  0.5742
16617TIP3    H171342   2.869   1.742   3.695 -2.5248  0.4305  0.1091
16617TIP3    H271343   2.805   1.755   3.558 -1.0011 -2.9794 -0.9782
16618TIP3   OH271344   3.750   6.389   4.747  0.2875  0.5754 -0.1019
16618TIP3    H171345   3.689   6.422   4.813  0.4242 -0.8827  0.7635
16618TIP3    H271346   3.813   6.336   4.796  0.0212 -1.0421 -1.4859
16619TIP3   OH271347   6.583   6.357   3.037  0.2389 -0.0817  0.3840
16619TIP3    H171348   6.564   6.392   3.124 -0.7081  0.8959 -0.2010
16619TIP3    H271349   6.535   6.274   3.033  1.8625 -1.1211  1.4880
16620TIP3   OH271350   4.579   0.123   0.391  0.2138 -0.2610  0.1101
16620TIP3    H171351   4.563   0.216   0.407  0.4135 -0.1838 -0.1290
16620TIP3    H271352   4.514   0.098   0.326  0.6042 -0.1226 -0.3307
16621TIP3   OH271353   1.665   5.177   3.947 -0.3796 -0.4649  0.0334
16621TIP3    H171354   1.612   5.177   4.027 -0.6633 -0.3838 -0.1538
16621TIP3    H271355   1.718   5.097   3.954  1.6751  0.9746  1.6504
16622TIP3   OH271356   6.386   0.733  14.937  0.2470 -0.3763 -0.2043
16622TIP3    H171357   6.293   0.733  14.913 -0.0176  1.9754  0.6592
16622TIP3    H271358   6.387   0.700  15.027  0.1370  0.4239  0.0952
16623TIP3   OH271359   1.776   4.788   5.150 -0.3834 -0.6623  0.0630
16623TIP3    H171360   1.819   4.770   5.067 -1.3751  0.1495 -0.6327
16623TIP3    H271361   1.685   4.762   5.137 -0.9691  1.2322  0.2669
16624TIP3   OH271362   3.339   1.570  13.985 -0.1640 -0.2472 -0.1389
16624TIP3    H171363   3.297   1.509  14.046  0.5279  0.1537  0.7579
16624TIP3    H271364   3.270   1.595  13.925 -0.9771 -0.3235  0.7507
16625TIP3   OH271365   3.803   1.282   4.787  0.3587  0.7276  0.0090
16625TIP3    H171366   3.865   1.336   4.836  0.0556  0.7083  0.4128
16625TIP3    H271367   3.773   1.216   4.850  1.3519 -0.4284 -0.6885
16626TIP3   OH271368   5.743   2.959  12.932 -0.2608 -0.1534  0.1543
16626TIP3    H171369   5.690   2.956  13.012 -1.3888 -0.2590 -0.6014
16626TIP3    H271370   5.742   3.051  12.906  0.6631 -0.0002  0.6195
16627TIP3   OH271371   5.510   0.884  12.442 -0.0313  0.5348 -0.2063
16627TIP3    H171372   5.493   0.816  12.377 -0.9765 -0.0928  0.6921
16627TIP3    H271373   5.605   0.895  12.442 -0.0153  0.4382 -1.5849
16628TIP3   OH271374   4.632   4.390   2.432 -0.0233  0.1471 -0.3448
16628TIP3    H171375   4.724   4.377   2.455  0.5120  2.1495 -1.2881
16628TIP3    H271376   4.604   4.466   2.482 -1.3699 -0.8095  0.4117
16629TIP3   OH271377   1.310   0.000   3.926  0.2258  0.4865 -0.2711
16629TIP3    H171378   1.230  -0.019   3.877  0.4228 -1.2321  0.0591
16629TIP3    H271379   1.280   0.055   3.999 -0.8223 -1.0184  0.4489
16630TIP3   OH271380   4.844   0.010  11.109  0.4845  0.4947  0.1429
16630TIP3    H171381   4.897  -0.052  11.058 -0.3301  0.4621 -0.6785
16630TIP3    H271382   4.792  -0.045  11.167 -0.6080  0.3614 -0.9383
16631TIP3   OH271383   5.422   0.502   4.747  0.5297  0.0875 -0.6281
16631TIP3    H171384   5.383   0.423   4.709  0.3981  0.4953 -1.3459
16631TIP3    H271385   5.501   0.470   4.792  1.2087 -0.2817 -2.0557
16632TIP3   OH271386   6.528   6.538   4.331 -0.2851 -0.7241 -0.6806
16632TIP3    H171387   6.509   6.584   4.413  2.4217 -0.8736  0.0790
16632TIP3    H271388   6.522   6.445   4.353  0.8230 -0.7693 -0.5356
16633TIP3   OH271389   1.157   2.372  16.374 -0.3579 -0.2832 -0.1518
16633TIP3    H171390   1.207   2.448  16.404 -0.6417  0.1103 -0.6446
16633TIP3    H271391   1.204   2.343  16.296 -1.2897  0.5292 -1.0336
16634TIP3   OH271392   2.568   6.575   3.248 -0.0222  0.2274  0.4445
16634TIP3    H171393   2.571   6.661   3.290  1.7542  0.6626 -0.5229
16634TIP3    H271394   2.547   6.593   3.157 -0.9026 -0.4729  0.5060
16635TIP3   OH271395   6.800   2.189   3.416  0.1438  0.5598  0.1608
16635TIP3    H171396   6.771   2.250   3.483 -1.4197  0.5640 -0.4973
16635TIP3    H271397   6.760   2.105   3.441 -1.6694  0.8713 -1.5168
16636TIP3   OH271398   5.501   6.324   1.311  0.2977 -0.1776  0.1911
16636TIP3    H171399   5.573   6.262   1.317 -1.2744 -1.9013  1.5060
16636TIP3    H271400   5.510   6.379   1.389  1.2640  0.8124 -0.6039
16637TIP3   OH271401   4.910   5.448   3.451  0.2618 -0.3662 -0.0044
16637TIP3    H171402   4.998   5.457   3.415 -0.3418 -0.9057 -1.7002
16637TIP3    H271403   4.853   5.485   3.384 -0.7060  1.4571  1.7765
16638TIP3   OH271404   6.795   1.691  12.726 -0.1678 -0.0290 -0.0801
16638TIP3    H171405   6.814   1.670  12.635 -0.1885  1.7043 -0.4999
16638TIP3    H271406   6.762   1.781  12.724 -0.4082 -0.0565  1.6065
16639TIP3   OH271407   0.956   3.314  12.524 -0.5479 -0.1139  0.1392
16639TIP3    H171408   0.882   3.299  12.583 -0.0997 -0.6565  0.5544
16639TIP3    H271409   0.977   3.407  12.536 -0.2187 -0.3117  1.0991
16640TIP3   OH271410   1.632   3.061   0.337 -0.2861 -0.0773  0.3671
16640TIP3    H171411   1.654   2.986   0.393 -1.4481 -0.2076  0.6559
16640TIP3    H271412   1.543   3.043   0.306 -0.1980  0.7038 -0.3642
16641TIP3   OH271413   0.108   1.322  16.148 -0.0680 -0.4341  0.4164
16641TIP3    H171414   0.163   1.334  16.225 -0.7397 -1.7176  1.0990
16641TIP3    H271415   0.018   1.322  16.181 -0.3073 -2.2763 -0.1838
16642TIP3   OH271416   3.185   6.749  10.985  0.0970 -0.1792  0.8552
16642TIP3    H171417   3.254   6.705  11.034  1.4496  0.7393 -0.1795
16642TIP3    H271418   3.156   6.683  10.921  0.8706 -0.1629  0.4847
16643TIP3   OH271419   3.252   5.333  14.591  0.2240 -1.0096  0.2819
16643TIP3    H171420   3.212   5.403  14.643  0.7631  0.8311 -1.7126
16643TIP3    H271421   3.261   5.260  14.652 -0.7643  0.5053  2.2947
16644TIP3   OH271422   2.541   2.430  16.330 -0.4385 -0.3275 -0.7151
16644TIP3    H171423   2.447   2.442  16.321 -0.5745 -1.5461 -1.0031
16644TIP3    H271424   2.550   2.350  16.381  0.4584 -1.9299 -3.3186
16645TIP3   OH271425   0.925   1.467   3.907  0.2666  0.4311 -0.2953
16645TIP3    H171426   0.945   1.546   3.857  1.4521  0.5972  0.4318
16645TIP3    H271427   0.831   1.475   3.926  0.5138  2.0142  0.3660
16646TIP3   OH271428   2.588   4.394  15.792 -0.2733  0.1296  0.8163
16646TIP3    H171429   2.586   4.463  15.858 -0.9149  1.2093 -0.3129
16646TIP3    H271430   2.509   4.343  15.808  0.1660 -0.3188  1.6065
16647TIP3   OH271431   3.825   5.788   3.007  0.2426 -0.3350  0.6833
16647TIP3    H171432   3.850   5.768   3.098  3.0621  0.6326  0.1769
16647TIP3    H271433   3.859   5.876   2.992 -0.6370 -0.2937 -1.1694
16648TIP3   OH271434   4.326   2.082   0.771  0.5335  1.0095 -0.4150
16648TIP3    H171435   4.239   2.122   0.765 -0.5219 -1.2560 -0.5533
16648TIP3    H271436   4.380   2.135   0.712 -1.0511  1.6556 -1.3231
16649TIP3   OH271437   2.402   5.909  16.003 -0.2576 -0.3509 -0.4066
16649TIP3    H171438   2.470   5.854  16.042  1.0393  0.0579 -2.0088
16649TIP3    H271439   2.437   5.931  15.917 -2.4802 -0.2077 -1.3014
16650TIP3   OH271440   3.433   3.372   4.243  0.1214  0.1235  0.1142
16650TIP3    H171441   3.428   3.347   4.335  0.3194 -0.0728  0.0710
16650TIP3    H271442   3.500   3.315   4.206  0.6298  0.7722  0.0319
16651TIP3   OH271443   0.812   0.316   0.160 -0.4156  0.2856 -0.5405
16651TIP3    H171444   0.777   0.244   0.213  0.1612 -0.3366 -1.0001
16651TIP3    H271445   0.894   0.340   0.204 -0.8038  0.9166 -0.1670
16652TIP3   OH271446   1.310   2.897  15.504  0.1729 -0.0069  0.4131
16652TIP3    H171447   1.225   2.940  15.494  0.8488  1.4444  0.8163
16652TIP3    H271448   1.318   2.842  15.426 -0.7281  0.5588 -0.0908
16653TIP3   OH271449   6.432   4.499  13.187 -0.2962 -0.4519  0.0308
16653TIP3    H171450   6.361   4.481  13.125 -1.2266 -0.0225  0.9496
16653TIP3    H271451   6.469   4.583  13.158 -3.0568  1.5628  2.1133
16654TIP3   OH271452   3.276   1.355  14.165 -0.2669 -0.0325 -0.2228
16654TIP3    H171453   3.214   1.289  14.197  1.6811 -1.1268  1.4155
16654TIP3    H271454   3.321   1.312  14.093 -0.4096  0.2413 -0.4732
16655TIP3   OH271455   4.880   4.283  15.946 -0.3467  1.0071 -0.2332
16655TIP3    H171456   4.851   4.311  15.859 -1.1424  1.1556  0.0741
16655TIP3    H271457   4.799   4.261  15.992  0.1349 -0.0044  0.1510
16656TIP3   OH271458   2.985   3.913   5.656 -0.9134  0.1941  0.0312
16656TIP3    H171459   2.956   3.909   5.565 -0.5765  1.7374 -0.1580
16656TIP3    H271460   2.948   3.995   5.689  0.9309  0.8204  0.5884
16657TIP3   OH271461   0.031   5.194  16.062  0.3861  0.4251 -0.6945
16657TIP3    H171462   0.103   5.247  16.095 -0.3692 -0.3110  2.3294
16657TIP3    H271463   0.065   5.104  16.061 -0.0721  0.2423 -0.4316
16658TIP3   OH271464   5.973   4.203   1.961 -0.5764  0.5790  0.1469
16658TIP3    H171465   5.908   4.236   1.899 -0.8785 -0.3196 -0.0155
16658TIP3    H271466   6.043   4.268   1.958 -0.9087  0.9143 -0.6057
16659TIP3   OH271467   2.592   0.933  14.358  0.5325  0.0083 -0.0535
16659TIP3    H171468   2.551   1.019  14.369  0.3381  0.2843 -2.6244
16659TIP3    H271469   2.523   0.870  14.378 -0.1833  0.4589 -1.0887
16660TIP3   OH271470   3.924   6.433   0.059 -0.2492 -0.4217  0.0069
16660TIP3    H171471   3.989   6.460  -0.006  0.2615  0.9692  1.0822
16660TIP3    H271472   3.851   6.494   0.046  0.0634  0.1850  1.0767
16661TIP3   OH271473   1.782   5.953  13.549 -0.2816 -0.4272 -0.8629
16661TIP3    H171474   1.780   5.904  13.467  0.0421  0.1661 -1.2256
16661TIP3    H271475   1.699   6.001  13.550 -1.6195 -2.6353  0.5274
16662TIP3   OH271476   0.048   2.600  12.250 -0.1839 -0.4298 -0.4712
16662TIP3    H171477   0.053   2.505  12.239 -0.9598 -0.5617  0.2304
16662TIP3    H271478  -0.014   2.612  12.322 -1.2001  0.6721 -1.5275
16663TIP3   OH271479   6.632   4.974  11.151 -0.0078 -0.5573 -0.8885
16663TIP3    H171480   6.637   4.916  11.227  1.1006  0.2524 -0.3296
16663TIP3    H271481   6.547   4.955  11.112 -0.7348 -0.7445  0.7520
16664TIP3   OH271482   3.079   2.060  12.605  0.1880 -0.4116  0.0112
16664TIP3    H171483   3.149   2.125  12.614  0.8122 -0.9644 -0.8621
16664TIP3    H271484   3.000   2.112  12.594  0.5286  0.2158  0.4835
16665TIP3   OH271485   1.406   4.761  12.790  0.5894 -0.3926 -0.3120
16665TIP3    H171486   1.425   4.803  12.874 -0.5728 -0.2329 -0.1260
16665TIP3    H271487   1.404   4.667  12.810 -1.2407 -0.2711  0.1655
16666TIP3   OH271488   5.034   4.271  11.659  0.1866 -0.2841 -0.2933
16666TIP3    H171489   5.017   4.346  11.716  1.2206  0.1017 -0.4679
16666TIP3    H271490   4.995   4.196  11.704  2.3859 -0.2691  1.7141
16667TIP3   OH271491   4.522   1.460  11.428  0.1476 -0.5162 -0.1415
16667TIP3    H171492   4.527   1.371  11.464 -0.6310 -0.6004 -0.2428
16667TIP3    H271493   4.510   1.448  11.334  1.2867 -0.2955 -0.3171
16668TIP3   OH271494   0.142   4.277  14.310  0.0238  0.4472 -0.2476
16668TIP3    H171495   0.142   4.288  14.405  1.6183 -1.1743 -0.0443
16668TIP3    H271496   0.234   4.280  14.285 -0.1494 -2.2216 -1.3538
16669TIP3   OH271497   6.271   5.844  16.330  0.2209 -0.3805 -0.3071
16669TIP3    H171498   6.323   5.766  16.349  0.2162 -0.2619  0.1871
16669TIP3    H271499   6.189   5.831  16.378  0.1417 -0.1602 -0.3810
16670TIP3   OH271500   1.747   1.826  11.121  0.3611  1.0204 -0.2093
16670TIP3    H171501   1.784   1.763  11.059  0.3877  0.1347  0.6959
16670TIP3    H271502   1.791   1.807  11.204 -0.7783  1.1770  0.4449
16671TIP3   OH271503   0.109   0.820   0.429  0.4654  0.5488 -0.2577
16671TIP3    H171504   0.135   0.832   0.520 -0.4030 -1.2210  0.2343
16671TIP3    H271505   0.027   0.867   0.420  0.4502  0.5548 -0.0798
16672TIP3   OH271506   1.632   2.563   3.461 -0.0667  0.4999  0.5773
16672TIP3    H171507   1.538   2.577   3.468 -0.1589 -0.1512  0.6691
16672TIP3    H271508   1.641   2.470   3.441  0.5660  0.4836  0.9131
16673TIP3   OH271509   1.780   0.713  15.449 -0.0719 -0.2607  0.0242
16673TIP3    H171510   1.820   0.628  15.432  1.0611  0.1463  0.6448
16673TIP3    H271511   1.819   0.742  15.531 -0.7359  0.6946  0.0071
16674TIP3   OH271512   3.011   5.961   3.699  0.2178 -0.0782 -0.1774
16674TIP3    H171513   2.962   6.043   3.711  2.0222  1.1790 -1.0878
16674TIP3    H271514   2.971   5.920   3.623  0.1947  0.6543 -0.5666
16675TIP3   OH271515   1.768   6.209   0.009 -0.1143  0.0224 -0.4026
16675TIP3    H171516   1.769   6.141   0.076  1.3283 -0.2077 -0.6403
16675TIP3    H271517   1.784   6.162  -0.073  1.3324  0.6780 -0.5173
16676TIP3   OH271518   5.229   4.821   4.781 -0.3298 -0.1986 -0.2003
16676TIP3    H171519   5.173   4.888   4.820  0.8697 -0.0071  1.2638
16676TIP3    H271520   5.317   4.842   4.812  0.3103 -1.4408 -1.1220
16677TIP3   OH271521   5.385   3.192  14.112  0.0085 -0.0934 -0.0445
16677TIP3    H171522   5.355   3.281  14.127  0.6761  0.5082 -2.1160
16677TIP3    H271523   5.400   3.157  14.199  2.0718  2.6438  0.7671
16678TIP3   OH271524   1.489   6.155   0.174  0.1028 -0.0883  0.3499
16678TIP3    H171525   1.514   6.247   0.162 -0.1691 -0.2331 -1.4229
16678TIP3    H271526   1.571   6.107   0.174  0.1543 -0.0103 -0.3676
16679TIP3   OH271527   3.342   5.608   4.801 -0.3282 -0.1402 -0.9776
16679TIP3    H171528   3.430   5.622   4.766 -0.2362 -0.7675 -1.0015
16679TIP3    H271529   3.350   5.528   4.853 -0.7225  0.1869 -0.4200
16680TIP3   OH271530   1.366   0.310   6.546  0.5641 -0.4117  0.9211
16680TIP3    H171531   1.373   0.340   6.455 -0.5225  0.7953  1.2106
16680TIP3    H271532   1.331   0.386   6.593  0.4971 -1.2391  2.2291
16681TIP3   OH271533   6.705   2.388   3.206  0.1500 -0.2778 -0.3548
16681TIP3    H171534   6.645   2.320   3.234  1.2546 -1.3887 -0.6302
16681TIP3    H271535   6.789   2.344   3.197  0.9021  1.1323 -0.4821
16682TIP3   OH271536   1.426   2.405  17.098  0.2769  0.4545 -0.7278
16682TIP3    H171537   1.366   2.340  17.063  1.5324 -1.9315  1.4095
16682TIP3    H271538   1.506   2.394  17.046  0.4790  0.3265 -0.3892
16683TIP3   OH271539   2.294   1.719  16.415  0.6043  0.2032  0.2033
16683TIP3    H171540   2.326   1.694  16.329 -0.5881  0.8399 -0.4331
16683TIP3    H271541   2.374   1.735  16.466  1.3129 -0.0506 -0.8082
16684TIP3   OH271542   2.525   1.040   3.595 -0.4704  0.1249  0.2033
16684TIP3    H171543   2.579   0.961   3.592 -0.1202  0.4286 -1.8439
16684TIP3    H271544   2.586   1.110   3.618 -0.2649  0.2216 -0.6193
16685TIP3   OH271545   2.197   0.957   1.745  0.1770  0.0576  0.2938
16685TIP3    H171546   2.217   0.972   1.837  0.5532 -1.9203  0.5704
16685TIP3    H271547   2.185   0.862   1.738  0.6009  0.1096 -1.7715
16686TIP3   OH271548   4.548   3.248  16.070  0.4660  0.1135 -0.3326
16686TIP3    H171549   4.459   3.238  16.036  0.4774  2.0341 -1.0400
16686TIP3    H271550   4.604   3.232  15.994  0.6382  0.5375 -0.3010
16687TIP3   OH271551   1.037   2.074  14.782 -0.1753 -0.4811  0.3656
16687TIP3    H171552   1.018   2.063  14.876 -1.1072 -1.1847  0.1025
16687TIP3    H271553   1.132   2.064  14.776 -0.2126 -1.4230  1.1174
16688TIP3   OH271554   1.987   0.768  11.070  0.4506 -0.7230 -0.3324
16688TIP3    H171555   2.027   0.812  10.995  0.5507 -0.6875 -0.2594
16688TIP3    H271556   1.893   0.781  11.059  0.5481  0.8700  0.5071
16689TIP3   OH271557   5.588   0.146   6.618  0.1257  0.1500  0.0767
16689TIP3    H171558   5.553   0.060   6.596 -0.4928  0.0444  1.4234
16689TIP3    H271559   5.683   0.132   6.626  0.1379 -0.1929 -0.6471
16690TIP3   OH271560   1.639   1.863  11.571 -0.1918  0.0340 -0.3017
16690TIP3    H171561   1.561   1.867  11.516 -1.4177 -1.3504  1.3218
16690TIP3    H271562   1.710   1.843  11.510 -1.4654 -1.0922 -1.4353
16691TIP3   OH271563   6.279   3.373  10.934  0.1261 -0.2263  0.8337
16691TIP3    H171564   6.186   3.395  10.921  0.2024  0.3694  1.2893
16691TIP3    H271565   6.292   3.379  11.028  0.3158 -1.5943  0.8938
16692TIP3   OH271566   6.643   1.561   5.726 -0.4807  0.2001  0.1291
16692TIP3    H171567   6.647   1.643   5.677 -0.1239  0.8062  1.1597
16692TIP3    H271568   6.565   1.517   5.692  1.3228 -0.7060 -2.9917
16693TIP3   OH271569   5.600   5.524  16.772 -0.5142 -0.4868  0.2223
16693TIP3    H171570   5.632   5.521  16.682 -0.0363 -2.3808  0.4319
16693TIP3    H271571   5.660   5.583  16.817  1.6778 -2.5956  0.1939
16694TIP3   OH271572   0.250   4.560   5.414 -0.8459 -0.2665 -0.1142
16694TIP3    H171573   0.317   4.623   5.388 -0.5200 -0.6744 -0.2716
16694TIP3    H271574   0.293   4.504   5.478 -1.4472  0.3123  0.8001
16695TIP3   OH271575   0.034   0.138  16.358  0.0295  0.6316  0.0894
16695TIP3    H171576   0.072   0.127  16.271  3.3727 -0.7912  1.6518
16695TIP3    H271577   0.102   0.182  16.409 -0.0615 -2.5303  3.1631
16696TIP3   OH271578   3.477   0.780   1.511 -0.0827 -0.0202  0.0040
16696TIP3    H171579   3.541   0.786   1.441 -0.5438 -0.4406 -0.4598
16696TIP3    H271580   3.470   0.686   1.530 -0.4563  0.0326  0.1441
16697TIP3   OH271581   3.594   6.117  13.199  0.0015 -0.1301  0.2076
16697TIP3    H171582   3.549   6.036  13.225  0.5938  0.0595  1.9064
16697TIP3    H271583   3.608   6.163  13.282  1.0327  1.0016 -0.5938
16698TIP3   OH271584   3.281   3.823   6.086  0.4276 -0.4391  0.0513
16698TIP3    H171585   3.272   3.759   6.157 -0.2589  1.4004  1.6639
16698TIP3    H271586   3.202   3.811   6.033 -0.8627  0.6606  1.6907
16699TIP3   OH271587   6.772   0.004   1.248 -0.6345  0.1951  0.5405
16699TIP3    H171588   6.707  -0.056   1.285  1.9532 -1.0226  3.3798
16699TIP3    H271589   6.839  -0.053   1.211  1.2231  1.2980  2.1143
16700TIP3   OH271590   2.309   1.969   4.162 -0.0807  0.3741 -0.1113
16700TIP3    H171591   2.357   2.051   4.175  1.5126 -0.3387 -1.2313
16700TIP3    H271592   2.331   1.943   4.072 -0.5159 -1.2949  0.2511
16701TIP3   OH271593   2.330   6.004   5.253 -0.3355 -0.7228  0.0955
16701TIP3    H171594   2.248   5.977   5.210  0.4863 -0.4012 -1.7335
16701TIP3    H271595   2.382   6.043   5.182  0.7375  0.5731  1.5683
16702TIP3   OH271596   6.142   2.062   0.192 -0.4586 -0.4606 -0.2441
16702TIP3    H171597   6.140   2.040   0.099  0.1345 -0.3195 -0.2965
16702TIP3    H271598   6.050   2.072   0.217 -0.6675 -1.4432 -0.5832
16703TIP3   OH271599   6.178   0.148   0.266  0.3264 -0.0543 -0.4000
16703TIP3    H171600   6.271   0.130   0.284  0.4886  0.3215 -0.8422
16703TIP3    H271601   6.174   0.157   0.171 -0.1103  0.2186 -0.3552
16704TIP3   OH271602   0.931   3.071   6.256 -0.3674  0.3236 -0.2408
16704TIP3    H171603   0.907   2.988   6.298  1.1069 -0.7574 -1.4624
16704TIP3    H271604   1.026   3.075   6.264 -0.3012  1.2618 -1.3492
16705TIP3   OH271605   1.291   4.819  12.193 -0.0065  0.1504  0.0424
16705TIP3    H171606   1.279   4.731  12.156  0.1982 -0.5543  1.5680
16705TIP3    H271607   1.202   4.855  12.198 -0.2316 -0.4337  0.4424
16706TIP3   OH271608   2.195   1.365   4.368 -0.1382 -0.4870  0.6300
16706TIP3    H171609   2.137   1.425   4.416 -0.2674 -0.8986  0.9924
16706TIP3    H271610   2.283   1.402   4.379 -0.0223 -1.1531  2.0974
16707TIP3   OH271611   3.243   3.535   1.456 -0.1732  0.3117 -0.0681
16707TIP3    H171612   3.224   3.453   1.411  0.0818  0.4097 -0.3578
16707TIP3    H271613   3.250   3.600   1.386  1.5609  0.2100 -0.0053
16708TIP3   OH271614   0.959   0.865  16.629  0.4763 -0.4644 -0.1843
16708TIP3    H171615   0.949   0.829  16.717 -2.9293  1.5886  0.3630
16708TIP3    H271616   1.021   0.937  16.640  0.5064 -0.5801  0.4428
16709TIP3   OH271617   6.395   3.891  13.835  0.1836  0.1850  0.0815
16709TIP3    H171618   6.477   3.852  13.805 -0.6519 -2.2811  0.8675
16709TIP3    H271619   6.353   3.922  13.755  0.6054 -1.1059 -0.6566
16710TIP3   OH271620   2.203   3.493   4.751 -0.4152  0.0274 -0.2535
16710TIP3    H171621   2.279   3.547   4.767  0.3740 -1.7961  2.4716
16710TIP3    H271622   2.128   3.552   4.759  0.5444  1.1765  0.2295
16711TIP3   OH271623   1.997   3.242  11.380 -0.6952  0.0850 -0.0806
16711TIP3    H171624   2.077   3.192  11.367 -0.8065 -0.5357  1.4306
16711TIP3    H271625   1.968   3.266  11.292  0.9624  0.0226 -0.6465
16712TIP3   OH271626   1.045   6.158  12.591  0.2066 -0.0642  0.2486
16712TIP3    H171627   1.075   6.190  12.676 -0.7553  1.7205 -0.0502
16712TIP3    H271628   1.063   6.230  12.531 -0.3200 -0.8048 -0.8107
16713TIP3   OH271629   5.674   2.707  11.234  0.5791  1.1832  0.1944
16713TIP3    H171630   5.730   2.667  11.168  0.6555 -0.1760  1.0597
16713TIP3    H271631   5.588   2.669  11.218  0.9020 -0.2836  1.7714
16714TIP3   OH271632   2.891   5.940  12.681 -0.1507 -0.2191  0.0407
16714TIP3    H171633   2.962   5.902  12.629 -0.1321 -0.3499  0.1638
16714TIP3    H271634   2.926   5.947  12.769  0.4649  1.7289 -0.3357
16715TIP3   OH271635   1.169   4.575  11.413 -0.6323 -0.2123  0.3683
16715TIP3    H171636   1.244   4.618  11.455 -0.0114 -0.2666 -0.6558
16715TIP3    H271637   1.095   4.594  11.470 -0.4597  2.6447 -0.3035
16716TIP3   OH271638   2.734   5.623   0.524  0.1892  0.4890 -0.7144
16716TIP3    H171639   2.801   5.578   0.471 -0.0710  0.6009 -1.1441
16716TIP3    H271640   2.685   5.552   0.566  0.2987  0.3932 -0.7476
16717TIP3   OH271641   5.642   3.185  12.407 -0.0105  0.1096 -0.1781
16717TIP3    H171642   5.651   3.098  12.446 -0.0715  0.2333  0.1133
16717TIP3    H271643   5.549   3.194  12.390 -0.3151  0.9818  1.8115
16718TIP3   OH271644   0.379   4.969  16.134  0.1543  0.1504  0.0841
16718TIP3    H171645   0.370   4.998  16.225 -0.5783 -0.6011  0.2574
16718TIP3    H271646   0.473   4.969  16.118  0.3037 -0.0080  0.9433
16719TIP3   OH271647   6.584   1.700   3.941 -0.0103 -0.1340 -0.6434
16719TIP3    H171648   6.626   1.616   3.924  0.1925 -0.0464 -0.5758
16719TIP3    H271649   6.569   1.701   4.035 -2.9113 -1.4596 -1.0206
16720TIP3   OH271650   2.624   0.266  11.444 -0.7332  0.0891  0.4796
16720TIP3    H171651   2.693   0.311  11.395 -0.7910  0.0081  0.3258
16720TIP3    H271652   2.628   0.175  11.415 -1.3005  0.2035  0.0213
16721TIP3   OH271653   0.750   2.244  14.892 -0.4355  0.0930 -0.2404
16721TIP3    H171654   0.812   2.316  14.900  0.0042 -0.5867  3.1691
16721TIP3    H271655   0.748   2.224  14.798  3.6935  0.8214 -0.5729
16722TIP3   OH271656   1.192   2.023   3.013  0.1402 -0.3053  0.2875
16722TIP3    H171657   1.252   1.973   2.957 -0.4100 -0.8120  0.1411
16722TIP3    H271658   1.244   2.098   3.042  0.4641 -0.0824 -0.8367
16723TIP3   OH271659   3.676   0.731   0.167 -0.1395 -0.4624  0.3063
16723TIP3    H171660   3.675   0.826   0.172  1.1969 -0.3580 -1.1852
16723TIP3    H271661   3.633   0.711   0.084 -1.7855 -1.2306  1.3232
16724TIP3   OH271662   4.159   0.404   0.839 -0.8937 -0.3846  0.0378
16724TIP3    H171663   4.188   0.479   0.788 -1.5026 -0.7052 -0.7850
16724TIP3    H271664   4.074   0.380   0.801  0.0404 -2.5212 -0.8077
16725TIP3   OH271665   0.892   6.585   5.193 -0.2735 -0.6671  0.0944
16725TIP3    H171666   0.806   6.628   5.195 -0.8717 -1.8912  1.8044
16725TIP3    H271667   0.874   6.494   5.217  1.2989 -1.3180 -1.1294
16726TIP3   OH271668   4.082   1.059   4.932 -0.1534 -0.6276  0.5201
16726TIP3    H171669   3.999   1.055   4.979 -0.5491 -0.1055 -0.1340
16726TIP3    H271670   4.144   1.094   4.996 -0.4657 -0.8977  0.9713
16727TIP3   OH271671   5.212   2.528   2.001  0.0277  0.0692 -0.2680
16727TIP3    H171672   5.228   2.570   2.086  1.7155 -1.7341  0.3625
16727TIP3    H271673   5.124   2.491   2.008  1.2018 -2.4924  1.8090
16728TIP3   OH271674   0.381   6.235  11.636  0.0788  0.1319 -0.2225
16728TIP3    H171675   0.396   6.176  11.562 -0.2692 -0.6474  0.3192
16728TIP3    H271676   0.450   6.301  11.630 -0.5545  0.6587 -1.8358
16729TIP3   OH271677   5.589   0.364   2.503  0.0039 -0.4244  0.5543
16729TIP3    H171678   5.562   0.286   2.551  0.7416 -0.6620  0.5792
16729TIP3    H271679   5.684   0.361   2.502  0.0108 -0.1148 -0.4085
16730TIP3   OH271680   3.494   0.718   4.860 -0.5394 -0.0002 -0.4109
16730TIP3    H171681   3.400   0.711   4.846 -0.2801 -0.8618 -1.8054
16730TIP3    H271682   3.533   0.680   4.781  0.9763  2.9658 -1.1655
16731TIP3   OH271683   3.321   6.059  12.086 -0.4139  0.0591  0.8835
16731TIP3    H171684   3.354   6.109  12.160  0.5748 -0.5147  0.8406
16731TIP3    H271685   3.229   6.085  12.078 -0.2422  0.9116  1.6405
16732TIP3   OH271686   4.151   0.927  11.251 -0.0484  0.4613 -0.5007
16732TIP3    H171687   4.180   0.870  11.322  0.1393  0.2648 -0.7348
16732TIP3    H271688   4.105   0.869  11.191  2.4600  0.0386 -2.0853
16733TIP3   OH271689   0.262   6.769   0.511  0.1203  0.3527  0.4389
16733TIP3    H171690   0.293   6.795   0.425  0.3604  1.8216  0.9600
16733TIP3    H271691   0.341   6.759   0.564 -0.0695  0.3033  0.7190
16734TIP3   OH271692   4.782   5.826   3.288  0.4826  0.3309 -0.7612
16734TIP3    H171693   4.696   5.866   3.291 -0.1705 -1.1405  1.0562
16734TIP3    H271694   4.813   5.843   3.199 -1.5252  1.1813 -1.3298
16735TIP3   OH271695   0.923   3.047  13.239  0.3008 -0.4580  0.1306
16735TIP3    H171696   0.858   2.993  13.283 -2.5111  0.1368 -3.0545
16735TIP3    H271697   0.946   3.114  13.303  0.1898 -2.5050  2.4040
16736TIP3   OH271698   4.708   6.528   5.211  0.1692 -0.3371  0.4961
16736TIP3    H171699   4.642   6.463   5.187  2.3663 -2.3989 -0.1916
16736TIP3    H271700   4.712   6.524   5.307 -0.6069 -0.2657  0.5347
16737TIP3   OH271701   1.632   1.549  11.247 -1.2207  0.2531 -0.0324
16737TIP3    H171702   1.608   1.529  11.156 -0.3712  1.2358 -0.4947
16737TIP3    H271703   1.681   1.472  11.277 -0.0422  0.6165 -0.9815
16738TIP3   OH271704   5.468   6.568  11.458 -0.2921 -0.0717  0.0460
16738TIP3    H171705   5.425   6.510  11.396  1.3975 -1.4331  0.1289
16738TIP3    H271706   5.464   6.655  11.417 -0.8573 -0.6292 -1.0815
16739TIP3   OH271707   1.928   3.082  16.670  0.0951 -0.2524  0.1901
16739TIP3    H171708   1.922   3.125  16.755 -0.9629  1.9864 -0.9795
16739TIP3    H271709   1.857   3.017  16.671  1.1901 -1.4691  1.6534
16740TIP3   OH271710   2.115   3.307   6.365  0.4749 -0.0704  0.1368
16740TIP3    H171711   2.188   3.358   6.402 -0.3098  1.0740  0.1198
16740TIP3    H271712   2.037   3.341   6.409 -0.1585 -0.6398 -0.5417
16741TIP3   OH271713   0.167   1.040   0.176  0.2190 -0.1379 -0.0090
16741TIP3    H171714   0.259   1.064   0.185  0.1667  0.5225 -1.0713
16741TIP3    H271715   0.119   1.118   0.206  0.0068 -0.2819  0.0281
16742TIP3   OH271716   1.448   1.514  16.203  0.0616  0.2305  0.0843
16742TIP3    H171717   1.366   1.560  16.182 -0.1292  0.1844  0.7127
16742TIP3    H271718   1.516   1.581  16.193  0.0225  0.1079 -1.0503
16743TIP3   OH271719   1.573   3.036  15.214  0.4444  0.1982  0.4398
16743TIP3    H171720   1.484   3.005  15.231  0.6002  0.8216  2.4973
16743TIP3    H271721   1.626   2.957  15.206 -0.1495 -0.1560 -0.0740
16744TIP3   OH271722   4.443   0.583  12.403 -0.0268  0.1959 -0.1710
16744TIP3    H171723   4.433   0.662  12.455 -2.6715  0.0961 -0.4498
16744TIP3    H271724   4.442   0.511  12.467  1.5453  0.3253  0.0129
16745TIP3   OH271725   2.244   5.720   4.432  0.3156 -0.2986 -0.2017
16745TIP3    H171726   2.237   5.641   4.486  1.3391 -0.6265 -0.5467
16745TIP3    H271727   2.330   5.756   4.452  0.2106  0.2454 -0.7134
16746TIP3   OH271728   5.426   1.458  16.352 -0.0983  0.6583  0.0396
16746TIP3    H171729   5.456   1.541  16.314  1.7230  0.3374  0.7144
16746TIP3    H271730   5.498   1.397  16.336 -1.1762 -0.6553  0.0705
16747TIP3   OH271731   3.069   0.440  13.835 -0.6839 -0.2272 -0.1184
16747TIP3    H171732   3.069   0.344  13.833  0.5373 -0.2790  1.0151
16747TIP3    H271733   3.123   0.461  13.912 -2.1548  1.3574  0.4964
16748TIP3   OH271734   4.188   1.624  14.217 -0.4069  0.1743  0.5402
16748TIP3    H171735   4.180   1.719  14.207  1.7115  0.1777 -1.6471
16748TIP3    H271736   4.241   1.597  14.142  0.2337 -2.5578  1.9377
16749TIP3   OH271737   1.527   4.318   4.764 -0.1908  0.4772  0.3723
16749TIP3    H171738   1.620   4.341   4.763 -0.2307  0.6101 -1.0124
16749TIP3    H271739   1.525   4.223   4.759 -0.1063  0.3814  1.9745
16750TIP3   OH271740   3.509   5.961   5.481  0.0998 -0.3248  0.2649
16750TIP3    H171741   3.442   5.988   5.418  0.3917  0.8423  0.4524
16750TIP3    H271742   3.502   6.025   5.553  1.2807 -0.3110  0.3795
16751TIP3   OH271743   4.525   1.366   1.477  0.1070 -0.0604  0.4435
16751TIP3    H171744   4.518   1.271   1.475  0.3186 -0.1005  1.2144
16751TIP3    H271745   4.449   1.397   1.429  0.7873 -0.6327 -1.0393
16752TIP3   OH271746   0.223   2.188  15.539  0.0910 -0.3814  0.0692
16752TIP3    H171747   0.173   2.257  15.495 -0.4853  0.9171  2.6945
16752TIP3    H271748   0.308   2.190  15.495 -0.2155  1.4098 -0.5026
16753TIP3   OH271749   4.091   6.430  10.797 -0.2478  0.1753 -0.2477
16753TIP3    H171750   4.089   6.407  10.704 -0.4769  1.3898 -0.5538
16753TIP3    H271751   4.071   6.523  10.799 -2.6720 -0.3302  1.2022
16754TIP3   OH271752   1.993   4.974  10.520  0.3360  0.2811 -0.0762
16754TIP3    H171753   1.932   5.003  10.452 -0.2851  0.4847  0.5602
16754TIP3    H271754   2.077   4.967  10.476 -0.0135  0.6637 -0.8073
16755TIP3   OH271755   1.753   5.745  11.370 -0.5268  1.2944 -0.8898
16755TIP3    H171756   1.846   5.721  11.369 -1.1223 -1.4783  2.0578
16755TIP3    H271757   1.747   5.818  11.430 -0.1543  2.0990 -1.8143
16756TIP3   OH271758   3.759   4.687   0.084 -0.2444  0.1207 -0.1543
16756TIP3    H171759   3.842   4.715   0.124  0.2564  0.3103 -1.3061
16756TIP3    H271760   3.696   4.753   0.112 -0.5045 -1.1827  2.5009
16757TIP3   OH271761   0.677   3.106   0.812  0.3545  0.0665  0.1354
16757TIP3    H171762   0.594   3.077   0.850  0.3902 -0.0438  0.1302
16757TIP3    H271763   0.683   3.199   0.834  0.3040  0.0376  0.2688
16758TIP3   OH271764   1.184   4.903   1.147  0.1038 -0.3335  0.2250
16758TIP3    H171765   1.224   4.816   1.155 -0.2796 -0.6995 -1.6714
16758TIP3    H271766   1.218   4.952   1.223  3.3206 -0.9694 -0.7145
16759TIP3   OH271767   4.104   5.550   1.987  0.4597  0.1308 -0.2430
16759TIP3    H171768   4.055   5.469   1.999 -0.8055  0.9892  0.4598
16759TIP3    H271769   4.195   5.522   1.978 -0.2842 -1.5790 -2.9354
16760TIP3   OH271770   1.073   6.128   4.618 -0.0828 -0.2020 -0.5036
16760TIP3    H171771   0.977   6.127   4.612 -0.1414 -0.1945  0.3759
16760TIP3    H271772   1.103   6.106   4.530 -0.9112 -3.1114 -0.1259
16761TIP3   OH271773   1.442   5.271  10.252 -0.1539  0.3083 -0.0294
16761TIP3    H171774   1.354   5.236  10.241  1.0349 -2.8749  0.2121
16761TIP3    H271775   1.477   5.225  10.328  2.3135  0.2592 -1.1576
16762TIP3   OH271776   2.469   1.067  14.031  0.0834  0.1886  0.3487
16762TIP3    H171777   2.442   1.157  14.048 -0.0297  0.5372 -1.5989
16762TIP3    H271778   2.390   1.015  14.045 -0.2977  0.6038 -0.2306
16763TIP3   OH271779   0.868   4.755  16.246 -0.1716 -0.2177  0.1610
16763TIP3    H171780   0.917   4.762  16.164  2.3359  0.6603  1.6741
16763TIP3    H271781   0.848   4.846  16.269  0.4121 -0.3719  1.2662
16764TIP3   OH271782   0.473   3.092   4.339  0.2057 -0.0405  0.2002
16764TIP3    H171783   0.449   3.000   4.322 -1.3777  0.9189 -3.3185
16764TIP3    H271784   0.401   3.126   4.392 -0.5327 -0.1959 -0.6778
16765TIP3   OH271785   0.462   6.385  13.747 -0.1153  0.6062 -0.2123
16765TIP3    H171786   0.426   6.472  13.730 -0.6206  0.0103 -2.2875
16765TIP3    H271787   0.423   6.359  13.831 -0.1093  2.2902  0.3323
16766TIP3   OH271788   6.216   3.579  11.525  0.8185 -0.0739  0.4874
16766TIP3    H171789   6.197   3.615  11.439 -0.4375 -0.7108  0.4949
16766TIP3    H271790   6.220   3.485  11.512 -1.4739 -0.3331  1.5057
16767TIP3   OH271791   5.060   0.221  13.090 -0.0067  0.3747  0.5628
16767TIP3    H171792   5.117   0.288  13.053  0.0846  0.7072  1.3062
16767TIP3    H271793   5.075   0.144  13.034 -1.2946  1.4177 -1.2691
16768TIP3   OH271794   1.813   6.674  16.008  0.3925  0.3126 -0.0329
16768TIP3    H171795   1.802   6.751  15.952 -1.3520 -0.0091 -0.1413
16768TIP3    H271796   1.767   6.604  15.962  1.0339 -0.5384  0.6063
16769TIP3   OH271797   3.847   3.705  17.001  0.2406 -0.2492  0.1619
16769TIP3    H171798   3.841   3.785  17.053  1.7959  0.0085 -0.0252
16769TIP3    H271799   3.787   3.644  17.044  0.6623  0.3195  1.6143
16770TIP3   OH271800   0.107   2.185  14.146 -0.3438 -0.1947  0.4877
16770TIP3    H171801   0.168   2.146  14.209  0.5052  0.6878  0.2238
16770TIP3    H271802   0.141   2.158  14.061 -0.9816 -0.6461  0.3774
16771TIP3   OH271803   2.182   0.245   1.280 -0.4601 -0.8134 -0.1890
16771TIP3    H171804   2.231   0.202   1.210  0.8812  0.2705  0.0517
16771TIP3    H271805   2.141   0.321   1.238  1.9214  0.9449  0.5486
16772TIP3   OH271806   3.055   4.834  13.953  0.6588  0.3817 -0.1518
16772TIP3    H171807   3.016   4.865  14.035  2.0535  1.7644  0.0197
16772TIP3    H271808   3.147   4.821  13.974  1.0119  0.6584 -1.4676
16773TIP3   OH271809   4.260   6.563  13.634  0.4086 -0.2084 -0.5615
16773TIP3    H171810   4.257   6.591  13.542  0.8578  0.9465 -0.2332
16773TIP3    H271811   4.168   6.557  13.660  0.3039  1.9310 -0.3681
16774TIP3   OH271812   3.342   1.849   1.410  0.2158  0.2614  0.6843
16774TIP3    H171813   3.279   1.788   1.371  1.1497 -0.2950  0.0036
16774TIP3    H271814   3.422   1.836   1.358  0.1776  2.6821 -0.0452
16775TIP3   OH271815   0.141   4.628  10.915 -0.0823 -0.4569  0.7050
16775TIP3    H171816   0.138   4.606  11.008  2.4563 -2.3272  0.3722
16775TIP3    H271817   0.138   4.724  10.913  0.4348 -0.3880  2.7181
16776TIP3   OH271818   4.355   6.361   1.971  0.0317 -0.1723 -0.2603
16776TIP3    H171819   4.391   6.448   1.955  0.3363 -0.0796  0.8740
16776TIP3    H271820   4.304   6.341   1.893  0.8271  0.5783 -0.9763
16777TIP3   OH271821   2.555   6.783  14.962  0.5647 -0.0362 -0.7878
16777TIP3    H171822   2.487   6.849  14.945  0.7915  0.0888 -1.2143
16777TIP3    H271823   2.515   6.724  15.026  0.7552  1.1327  0.4415
16778TIP3   OH271824   1.133   6.540  16.412  0.2985 -0.1241 -0.7589
16778TIP3    H171825   1.177   6.465  16.373  0.9130 -0.1665  0.0070
16778TIP3    H271826   1.041   6.517  16.412  0.2934 -0.1227 -2.1888
16779TIP3   OH271827   4.038   3.510   0.010 -0.5573 -0.0310 -0.0467
16779TIP3    H171828   4.053   3.576  -0.058 -1.9009  1.3757  0.9784
16779TIP3    H271829   4.089   3.541   0.085 -0.6406 -0.5336  0.2220
16780TIP3   OH271830   1.577   1.643  12.458  0.0145 -0.0671  0.0457
16780TIP3    H171831   1.625   1.629  12.377  0.2440 -1.3907  0.4125
16780TIP3    H271832   1.525   1.722  12.441  1.1429  0.4851 -0.8815
16781TIP3   OH271833   1.466   2.222   2.731 -0.5443  0.3039  0.2840
16781TIP3    H171834   1.543   2.192   2.683 -1.8088 -2.2245 -0.2436
16781TIP3    H271835   1.477   2.317   2.737  2.6881 -0.0168  0.3923
16782TIP3   OH271836   5.063   1.904   4.943  0.2196  0.1217 -0.0911
16782TIP3    H171837   4.969   1.903   4.958  0.5364 -0.1665  2.1073
16782TIP3    H271838   5.073   1.922   4.850 -2.0109 -0.2485 -0.4238
16783TIP3   OH271839   1.698   6.321  10.879  0.6262 -0.6785 -0.0846
16783TIP3    H171840   1.760   6.386  10.844  0.0554 -0.3417 -0.4797
16783TIP3    H271841   1.666   6.275  10.802 -0.2685 -0.2608  0.0366
16784TIP3   OH271842   2.991   5.796   3.398 -0.4291  0.2475 -0.1275
16784TIP3    H171843   3.046   5.873   3.406  1.8385 -1.1472 -1.5143
16784TIP3    H271844   2.935   5.814   3.323 -1.6134  1.4988  1.0271
16785TIP3   OH271845   4.477   1.426  12.279  0.2133  0.0859 -0.1007
16785TIP3    H171846   4.548   1.392  12.225  0.9539  1.8236 -0.2702
16785TIP3    H271847   4.462   1.359  12.345  0.5956 -1.2189 -1.3184
16786TIP3   OH271848   6.461   0.089  16.641 -0.1406  0.2660  0.0539
16786TIP3    H171849   6.514   0.093  16.562  1.2576  0.3812  0.9749
16786TIP3    H271850   6.388   0.147  16.625  1.6406  2.5455 -0.0668
16787TIP3   OH271851   0.036   5.779  12.210 -0.0880  0.0913 -0.1830
16787TIP3    H171852   0.033   5.875  12.205 -0.4191  0.1131  0.4065
16787TIP3    H271853  -0.048   5.750  12.174 -0.6209  0.0837  1.0454
16788TIP3   OH271854   6.409   4.718   4.003  0.2931 -0.0168  0.0596
16788TIP3    H171855   6.326   4.749   4.038  0.3765  0.9259 -0.5616
16788TIP3    H271856   6.462   4.797   3.993  0.4152 -0.3061 -1.7858
16789TIP3   OH271857   3.264   0.369   5.034  0.4528 -0.2597  0.4140
16789TIP3    H171858   3.201   0.331   5.095  0.6624  0.7890  1.2977
16789TIP3    H271859   3.212   0.427   4.980  0.3612 -0.7733 -0.0551
16790TIP3   OH271860   3.250   6.578   0.026 -0.3166 -0.3146 -0.4288
16790TIP3    H171861   3.221   6.573  -0.064 -2.9893 -2.1234  0.4840
16790TIP3    H271862   3.306   6.502   0.038  0.0837 -0.0441 -0.5434
16791TIP3   OH271863   0.198   5.148  12.287  0.7532 -0.0993 -0.2088
16791TIP3    H171864   0.282   5.191  12.300  0.1387  0.4714  2.0409
16791TIP3    H271865   0.134   5.210  12.322 -0.4567 -1.2814 -0.2946
16792TIP3   OH271866   1.276   5.987   2.069  0.6191  0.0201  0.1612
16792TIP3    H171867   1.372   5.992   2.070  0.5967  0.2964  1.0819
16792TIP3    H271868   1.255   5.919   2.133  0.1950  0.0324  0.0349
16793TIP3   OH271869   3.129   6.745  14.494  0.5942 -0.0723  0.0180
16793TIP3    H171870   3.051   6.694  14.475  1.1967 -0.5630 -1.2036
16793TIP3    H271871   3.199   6.700  14.447  1.1554  1.8286 -1.0169
16794TIP3   OH271872   2.112   4.260   2.430  0.5943 -0.3347  0.3508
16794TIP3    H171873   2.159   4.343   2.418 -0.0908 -0.0262 -0.2255
16794TIP3    H271874   2.170   4.194   2.393  1.0060 -0.0679  0.5237
16795TIP3   OH271875   4.774   4.928  10.339 -0.0459 -0.3101 -0.1032
16795TIP3    H171876   4.855   4.929  10.289 -1.4352 -0.3647 -2.3958
16795TIP3    H271877   4.793   4.982  10.416  1.7648  0.7577 -1.2560
16796TIP3   OH271878   4.289   5.452   6.188  0.2304 -0.7573 -0.4912
16796TIP3    H171879   4.225   5.382   6.178  0.5068 -1.1302  0.3694
16796TIP3    H271880   4.358   5.414   6.241  1.1994 -0.3704 -1.4599
16797TIP3   OH271881   1.346   4.242   5.459  0.4255 -0.6244  0.6297
16797TIP3    H171882   1.336   4.173   5.393 -0.8172 -0.2732  0.4351
16797TIP3    H271883   1.258   4.277   5.470  0.8777  0.2688  1.4567
16798TIP3   OH271884   0.383   0.474  16.093 -0.3285 -0.6514  0.0693
16798TIP3    H171885   0.445   0.456  16.023 -0.6081 -0.8850 -0.1195
16798TIP3    H271886   0.433   0.524  16.157 -0.2982  0.3072 -0.6922
16799TIP3   OH271887   0.466   1.537  14.199 -0.2684  0.1715  0.1220
16799TIP3    H171888   0.446   1.537  14.105 -1.2564 -1.3474  0.3078
16799TIP3    H271889   0.469   1.444  14.222  0.2047  0.5363  1.5458
16800TIP3   OH271890   2.682   3.039   6.175 -0.3122  0.1266  0.3307
16800TIP3    H171891   2.631   2.992   6.240  1.4874 -3.4371 -0.7250
16800TIP3    H271892   2.649   3.008   6.091  0.6450  1.0461 -0.4004
16801TIP3   OH271893   1.313   6.013   4.082  0.0773  0.0668 -0.2394
16801TIP3    H171894   1.285   6.104   4.078 -1.1363 -0.1812  1.7830
16801TIP3    H271895   1.240   5.964   4.044  0.3353 -0.1228 -0.4915
16802TIP3   OH271896   6.099   1.653   5.512 -0.2337 -0.1196  0.7735
16802TIP3    H171897   6.170   1.658   5.576 -0.0742  1.8720  0.4833
16802TIP3    H271898   6.141   1.621   5.432  0.5736  2.0129  0.3128
16803TIP3   OH271899   4.157   1.712  11.549  0.0095  0.3503 -0.6179
16803TIP3    H171900   4.248   1.717  11.521 -0.1417  0.6140 -1.0655
16803TIP3    H271901   4.161   1.695  11.643  0.5293 -2.6206 -1.1470
16804TIP3   OH271902   2.910   5.595   0.305  0.9305  0.3680 -0.5935
16804TIP3    H171903   2.853   5.665   0.274 -0.2559  0.2590  1.2722
16804TIP3    H271904   2.990   5.605   0.253  0.6881  2.9203 -0.5424
16805TIP3   OH271905   3.393   4.279  15.244  0.0336 -0.1877  0.4508
16805TIP3    H171906   3.341   4.200  15.256  0.2871 -0.7080 -1.6611
16805TIP3    H271907   3.457   4.277  15.315  0.2535 -2.0548  0.2274
16806TIP3   OH271908   4.028   1.355   5.100  0.2275  0.2092  0.0348
16806TIP3    H171909   3.966   1.420   5.132 -0.0416 -0.4181  0.8053
16806TIP3    H271910   4.019   1.281   5.160  1.2468 -0.1528 -0.2338
16807TIP3   OH271911   1.884   1.633  14.789  0.2159 -0.6014  0.0857
16807TIP3    H171912   1.958   1.574  14.801  0.4642 -0.5472 -1.1437
16807TIP3    H271913   1.887   1.656  14.696 -1.0571 -0.2273  0.1340
16808TIP3   OH271914   6.652   4.772  14.866 -0.1403 -0.3844  0.4386
16808TIP3    H171915   6.712   4.707  14.902  0.6098 -0.3257 -0.6806
16808TIP3    H271916   6.639   4.835  14.937  2.1577  0.3105  0.2694
16809TIP3   OH271917   5.126   1.706   0.608 -0.3066 -0.4158  0.5972
16809TIP3    H171918   5.110   1.657   0.689 -1.0934  1.9401  1.9229
16809TIP3    H271919   5.071   1.662   0.543 -0.0195 -2.0605  1.4338
16810TIP3   OH271920   0.402   3.168  14.086 -0.2923 -0.2099 -0.7844
16810TIP3    H171921   0.350   3.116  14.024  0.3067  1.1203 -2.4502
16810TIP3    H271922   0.342   3.237  14.115 -0.5297 -0.7522  0.0554
16811TIP3   OH271923   1.259   3.824   3.524 -0.3659  0.0462  0.1763
16811TIP3    H171924   1.253   3.787   3.612 -2.7224 -1.1155 -0.4298
16811TIP3    H271925   1.177   3.872   3.512  0.4578  1.2247 -0.9516
16812TIP3   OH271926   1.860   0.758   2.774 -0.1305 -0.1875  0.1184
16812TIP3    H171927   1.887   0.834   2.825 -0.9191  0.1218  0.0907
16812TIP3    H271928   1.909   0.685   2.812 -0.4251  0.1040  1.0759
16813TIP3   OH271929   4.173   3.397   2.299 -0.0863  0.4074  0.1517
16813TIP3    H171930   4.265   3.418   2.283 -0.4600  1.1292 -1.1538
16813TIP3    H271931   4.171   3.363   2.388  1.4673  0.2405  0.1377
16814TIP3   OH271932   1.646   5.346  16.490 -0.0746  0.0256  0.1230
16814TIP3    H171933   1.604   5.432  16.485  0.6823  0.4075  0.2653
16814TIP3    H271934   1.597   5.299  16.557  0.1453  0.7056  0.7615
16815TIP3   OH271935   4.968   3.644   0.685  0.3247 -0.2729 -0.1539
16815TIP3    H171936   4.882   3.657   0.726  1.0750 -0.4352  1.4896
16815TIP3    H271937   4.961   3.559   0.642 -0.0375 -0.7193  0.7693
16816TIP3   OH271938   5.444   5.277  11.211  0.1168  0.6918  0.0669
16816TIP3    H171939   5.472   5.310  11.296 -0.8324 -0.3723  0.7929
16816TIP3    H271940   5.416   5.355  11.163 -0.8235  1.0992  1.2788
16817TIP3   OH271941   0.820   1.134  12.826  0.4690  0.2077  0.2275
16817TIP3    H171942   0.912   1.133  12.799  0.2576  0.0681 -0.5215
16817TIP3    H271943   0.809   1.053  12.876  1.0068  0.7377  1.2099
16818TIP3   OH271944   0.685   5.435   4.650 -0.3989  0.0029  0.4958
16818TIP3    H171945   0.662   5.517   4.605  1.0156  0.1408  0.0004
16818TIP3    H271946   0.704   5.462   4.740 -1.2093  0.0233  0.6668
16819TIP3   OH271947   6.063   4.768  13.631 -0.4028  0.2560  0.2375
16819TIP3    H171948   6.082   4.675  13.649  3.0563  0.8134 -0.1471
16819TIP3    H271949   6.133   4.815  13.676 -1.6407  2.6586 -0.3145
16820TIP3   OH271950   5.385   1.669   1.585 -0.2918  0.5567 -0.2214
16820TIP3    H171951   5.417   1.638   1.500  0.1988  2.3850 -0.7275
16820TIP3    H271952   5.296   1.635   1.590  0.3253 -1.1791 -0.6090
16821TIP3   OH271953   1.800   0.367  14.391 -0.0296 -0.0438  0.0517
16821TIP3    H171954   1.775   0.322  14.310 -0.6675  0.0471  0.1947
16821TIP3    H271955   1.878   0.418  14.368 -0.3799  0.2079 -0.5783
16822TIP3   OH271956   0.794   2.705   2.105  0.3279  0.0324 -0.3918
16822TIP3    H171957   0.738   2.780   2.087 -0.3686 -0.5283 -0.5871
16822TIP3    H271958   0.785   2.649   2.028  0.1983 -0.6366  0.1031
16823TIP3   OH271959   5.548   0.695   3.599  0.2069 -0.5369 -0.3765
16823TIP3    H171960   5.512   0.753   3.666 -1.3227 -0.4108 -1.3020
16823TIP3    H271961   5.635   0.730   3.581  0.5097 -0.3787  1.3084
16824TIP3   OH271962   5.747   1.618   4.681  0.0492  0.3977 -0.0023
16824TIP3    H171963   5.740   1.556   4.754  3.8011 -0.8271 -0.5986
16824TIP3    H271964   5.757   1.704   4.724 -0.6008  0.0548  0.8632
16825TIP3   OH271965   5.027   4.472  16.844 -0.0027  0.1310  0.2496
16825TIP3    H171966   5.054   4.553  16.887  0.2018 -0.7890  1.9051
16825TIP3    H271967   5.012   4.410  16.916 -0.8542 -1.0920 -0.9442
16826TIP3   OH271968   6.370   0.236  16.004  0.1869  0.1637  0.7071
16826TIP3    H171969   6.316   0.311  16.029 -0.2559 -0.6191  2.0996
16826TIP3    H271970   6.458   0.258  16.035  0.2068  0.4040  0.4879
16827TIP3   OH271971   6.122   4.276   5.648  0.2398 -0.4129 -0.5035
16827TIP3    H171972   6.159   4.196   5.686  0.2101  0.4837  1.5178
16827TIP3    H271973   6.170   4.290   5.567  2.6467 -0.6251  0.8469
16828TIP3   OH271974   1.486   4.549  11.119  0.1581  0.4560 -0.4789
16828TIP3    H171975   1.471   4.533  11.026 -1.4560  2.1435 -0.5285
16828TIP3    H271976   1.410   4.512  11.163 -0.8957  2.9334 -0.1478
16829TIP3   OH271977   6.023   5.431   0.589 -0.1221 -0.2897  0.0708
16829TIP3    H171978   5.946   5.387   0.626  0.1535  0.2733  1.3215
16829TIP3    H271979   6.004   5.437   0.495 -1.2757 -0.8149  0.2619
16830TIP3   OH271980   3.583   6.111  10.704  0.3677  0.3066 -0.7482
16830TIP3    H171981   3.599   6.204  10.715  0.3080  0.3714 -1.2033
16830TIP3    H271982   3.498   6.106  10.660 -0.5732 -0.0231  1.0850
16831TIP3   OH271983   3.295   6.633  15.228  0.4444  0.0752 -0.6578
16831TIP3    H171984   3.342   6.659  15.307  0.8521 -1.9011 -0.2342
16831TIP3    H271985   3.354   6.655  15.156  0.8055  0.2438 -0.3095
16832TIP3   OH271986   0.770   5.274  13.583  0.2378  0.0266  0.1329
16832TIP3    H171987   0.708   5.328  13.632 -0.2302 -1.3160  1.0613
16832TIP3    H271988   0.772   5.191  13.631 -0.5278 -1.4739 -2.3342
16833TIP3   OH271989   5.388   5.847   1.200 -0.2059  0.0976  0.1956
16833TIP3    H171990   5.478   5.870   1.180  0.1964 -0.6067  1.1624
16833TIP3    H271991   5.358   5.917   1.259  0.0585 -0.2679  0.7586
16834TIP3   OH271992   1.093   2.472  11.758 -0.3985  0.1527  0.1994
16834TIP3    H171993   1.122   2.488  11.848  0.1947  0.8861 -0.1118
16834TIP3    H271994   1.009   2.427  11.766  0.0128 -0.4455  1.1187
16835TIP3   OH271995   0.682   2.399  16.875 -0.2353 -0.4323 -0.3563
16835TIP3    H171996   0.722   2.312  16.876  1.1445  0.1829 -0.1526
16835TIP3    H271997   0.712   2.438  16.793  1.1114  0.7211  0.6663
16836TIP3   OH271998   6.003   3.391   6.613  0.3149  0.2457 -0.1118
16836TIP3    H171999   6.020   3.465   6.672  0.1841 -0.8321  1.3210
16836TIP3    H272000   5.918   3.411   6.573  1.5346  2.1772 -1.8332
16837TIP3   OH272001   0.076   1.697   0.842 -0.1145  0.2108 -0.0991
16837TIP3    H172002   0.171   1.698   0.839 -0.1020  1.4829  0.3503
16837TIP3    H272003   0.051   1.789   0.835 -1.2359  0.0817  1.9013
16838TIP3   OH272004   3.707   2.666  14.066  0.5858 -0.0593 -0.0157
16838TIP3    H172005   3.632   2.628  14.021 -0.4078 -0.6764  2.1042
16838TIP3    H272006   3.706   2.758  14.041 -0.1732 -0.3126 -0.9435
16839TIP3   OH272007   4.993   1.247   6.311 -0.5608  0.2896  0.6776
16839TIP3    H172008   5.082   1.236   6.277 -0.2516 -0.2939  1.6444
16839TIP3    H272009   4.991   1.337   6.344 -1.1926  1.2280 -1.7771
16840TIP3   OH272010   2.653   2.610   1.252 -0.1152  0.5136  0.7363
16840TIP3    H172011   2.616   2.651   1.330 -0.0584  0.2096  0.9228
16840TIP3    H272012   2.730   2.662   1.231 -0.6582  1.1749  0.3274
16841TIP3   OH272013   3.760   0.787   2.022  0.0428  0.1616 -0.9155
16841TIP3    H172014   3.685   0.845   2.038  0.6426  1.0623 -1.3175
16841TIP3    H272015   3.815   0.835   1.961 -0.0991 -1.4196 -2.3256
16842TIP3   OH272016   4.596   5.722  10.671 -0.2501 -0.4594  0.1692
16842TIP3    H172017   4.554   5.678  10.597  0.2742 -0.8527  0.1043
16842TIP3    H272018   4.580   5.665  10.746 -2.0087  0.6444  0.6447
16843TIP3   OH272019   0.889   0.415   3.715  0.1755 -0.1827 -0.0608
16843TIP3    H172020   0.813   0.472   3.722 -0.1927 -0.7000  0.1593
16843TIP3    H272021   0.964   0.476   3.715 -0.1253  0.2265  1.9163
16844TIP3   OH272022   3.108   5.543   0.100 -0.0443  0.0489  0.5469
16844TIP3    H172023   3.142   5.508   0.183 -0.7731 -0.0105  0.8267
16844TIP3    H272024   3.185   5.571   0.052  0.8054 -3.9318 -0.6275
16845TIP3   OH272025   1.112   2.411   2.841  0.3254  0.1333  0.4747
16845TIP3    H172026   1.101   2.317   2.852 -0.0421 -0.1055 -1.6269
16845TIP3    H272027   1.023   2.445   2.831  0.5169  0.5221  0.0443
16846TIP3   OH272028   4.912   2.962   4.394 -0.4573 -0.3693 -0.1650
16846TIP3    H172029   4.952   3.004   4.317  0.6472 -2.4733 -0.8038
16846TIP3    H272030   4.849   2.900   4.357 -2.0341  0.6721  0.7467
16847TIP3   OH272031   2.156   2.565  14.415 -0.1661  0.3177 -1.1404
16847TIP3    H172032   2.142   2.642  14.470  0.3780 -1.3127  1.3519
16847TIP3    H272033   2.068   2.538  14.390 -0.7291 -1.1830  2.1878
16848TIP3   OH272034   4.195   5.162   0.880  0.1785 -0.3029  0.1174
16848TIP3    H172035   4.185   5.210   0.961 -0.8227 -0.9630  0.4057
16848TIP3    H272036   4.187   5.228   0.811 -0.8180  0.0054  0.5165
16849TIP3   OH272037   1.001   2.073   0.149  0.1766 -0.2527  0.2018
16849TIP3    H172038   1.048   2.081   0.232 -1.0006 -0.3136  0.8949
16849TIP3    H272039   0.922   2.126   0.161  0.3595  0.3689 -1.1679
16850TIP3   OH272040   2.736   2.833   0.501 -0.5781  0.7247 -0.0850
16850TIP3    H172041   2.729   2.910   0.556  0.1786 -0.8045  2.2437
16850TIP3    H272042   2.830   2.825   0.484 -0.5603 -0.1074  0.3594
16851TIP3   OH272043   1.890   2.424  14.306 -0.7637  0.6526 -0.2266
16851TIP3    H172044   1.805   2.467  14.317 -0.8103  0.7271 -0.8372
16851TIP3    H272045   1.873   2.331  14.320 -0.7304  0.7977  0.7621
16852TIP3   OH272046   5.759   3.082   1.666 -0.6043 -0.5648  0.1979
16852TIP3    H172047   5.724   2.999   1.633 -0.4008 -0.3749 -0.5137
16852TIP3    H272048   5.689   3.145   1.648 -0.4622 -0.4462  0.0633
16853TIP3   OH272049   5.815   5.135   4.290  0.0484 -0.2880 -0.0374
16853TIP3    H172050   5.857   5.162   4.208 -0.1137 -0.2235 -0.1019
16853TIP3    H272051   5.829   5.209   4.349  0.9243 -0.7024  0.2728
16854TIP3   OH272052   6.665   3.174   2.159  0.0738 -0.5430  0.7635
16854TIP3    H172053   6.627   3.261   2.146 -2.2862 -1.5604  0.5440
16854TIP3    H272054   6.717   3.158   2.080 -0.2555  0.2800  0.3795
16855TIP3   OH272055   2.179   1.997   3.619 -0.4101 -0.6438  0.0543
16855TIP3    H172056   2.109   2.062   3.626  0.0334 -0.2268  0.6727
16855TIP3    H272057   2.245   2.039   3.565 -0.4405 -0.8655 -0.1558
16856TIP3   OH272058   1.450   5.703   0.379  0.2015 -0.5548  0.3045
16856TIP3    H172059   1.497   5.725   0.459  0.8844  2.3425 -0.8149
16856TIP3    H272060   1.368   5.752   0.385  0.8166  0.7197 -1.3094
16857TIP3   OH272061   1.551   5.651   1.697  0.4962 -0.2935  0.1259
16857TIP3    H172062   1.639   5.615   1.691 -0.0061 -1.8178  1.6641
16857TIP3    H272063   1.563   5.739   1.733  1.4490 -0.1911 -0.4346
16858TIP3   OH272064   5.123   5.606  11.258 -0.0684  0.2596 -0.8112
16858TIP3    H172065   5.069   5.528  11.269 -0.2268  0.2444 -1.6407
16858TIP3    H272066   5.209   5.573  11.233  0.9574  0.1801  2.6196
16859TIP3   OH272067   5.750   1.237   1.565  0.1145 -0.6642 -0.5362
16859TIP3    H172068   5.726   1.295   1.637  1.3446  1.7497 -2.0203
16859TIP3    H272069   5.666   1.202   1.534 -0.5654 -0.3984  0.9357
16860TIP3   OH272070   6.081   1.845  12.040  0.0753  0.2365 -0.3818
16860TIP3    H172071   6.052   1.754  12.047 -0.1584  0.4138  0.9687
16860TIP3    H272072   6.082   1.862  11.945 -1.6598 -0.5960 -0.5621
16861TIP3   OH272073   0.597   0.544   1.644  0.0645  0.0785  0.0949
16861TIP3    H172074   0.672   0.581   1.689 -0.2150  1.6301 -0.6823
16861TIP3    H272075   0.537   0.618   1.632 -1.7022 -1.1859  0.9276
16862TIP3   OH272076   0.530   1.875  17.194  0.3023  0.0153 -0.0988
16862TIP3    H172077   0.491   1.898  17.110 -0.1961 -2.2992 -0.5345
16862TIP3    H272078   0.621   1.854  17.173  0.2642 -0.2425 -0.0096
16863TIP3   OH272079   3.828   5.758  14.767 -0.3331 -0.0008 -0.1967
16863TIP3    H172080   3.881   5.837  14.759  1.2610 -1.0442 -0.1248
16863TIP3    H272081   3.751   5.786  14.818 -1.6867  2.3587 -3.3490
16864TIP3   OH272082   0.074   3.554   0.904  0.6086  0.2144  0.9248
16864TIP3    H172083   0.072   3.484   0.839 -0.8245  0.4322  0.7186
16864TIP3    H272084   0.149   3.532   0.960  2.1473  0.2828 -1.0560
16865TIP3   OH272085   3.531   1.959  13.686 -0.3072  0.2231 -0.3305
16865TIP3    H172086   3.522   2.002  13.771 -0.8026  0.9490 -0.7461
16865TIP3    H272087   3.476   1.881  13.691  1.7021 -1.1792  0.9381
16866TIP3   OH272088   1.013   5.335  16.639  0.6230  0.4614  0.2831
16866TIP3    H172089   1.019   5.371  16.727  1.1696 -3.2721  1.8572
16866TIP3    H272090   0.921   5.312  16.628  0.6208  0.6051 -0.0138
16867TIP3   OH272091   0.107   2.091   0.606 -0.3644 -0.2194  0.2857
16867TIP3    H172092   0.060   2.066   0.686 -1.8489 -1.8529 -1.0499
16867TIP3    H272093   0.076   2.179   0.586 -0.6236 -0.1368  1.0207
16868TIP3   OH272094   6.622   0.451   1.888 -0.1301 -0.0860 -0.6037
16868TIP3    H172095   6.579   0.415   1.811 -1.0401  2.6537 -1.4161
16868TIP3    H272096   6.555   0.503   1.932  0.6691 -0.7577  1.4953
16869TIP3   OH272097   3.073   1.585  16.268 -0.2003 -0.0055 -0.7131
16869TIP3    H172098   3.040   1.509  16.220  0.8198 -0.3599 -0.8560
16869TIP3    H272099   3.151   1.611  16.221  0.4553  0.0357  0.3805
16870TIP3   OH272100   4.703   4.746   3.086  0.0682 -0.1093 -0.4691
16870TIP3    H172101   4.773   4.685   3.064  2.4193  2.6509 -0.8378
16870TIP3    H272102   4.663   4.768   3.002  0.7302  0.6367 -0.5888
16871TIP3   OH272103   5.105   4.481  15.099  0.2892 -0.0210 -0.3100
16871TIP3    H172104   5.027   4.535  15.091  0.6365  0.8648  1.7925
16871TIP3    H272105   5.104   4.451  15.190  1.9928 -0.5996 -0.4586
16872TIP3   OH272106   3.048   0.296   3.541 -0.0117 -0.0183 -0.2371
16872TIP3    H172107   2.996   0.337   3.611 -0.3884  0.8270 -1.0086
16872TIP3    H272108   3.085   0.218   3.582 -0.8153  0.0864  0.7083
16873TIP3   OH272109   5.176   0.993   4.374  0.1094  0.6085 -0.1782
16873TIP3    H172110   5.260   0.975   4.415  0.9601  1.4141 -1.5126
16873TIP3    H272111   5.192   0.983   4.280 -1.4261  0.1971 -0.4157
16874TIP3   OH272112   1.388   5.183  15.966 -0.5437 -0.5601  0.0221
16874TIP3    H172113   1.417   5.214  16.052 -0.1773  2.7557 -1.2169
16874TIP3    H272114   1.293   5.185  15.971 -0.5401 -1.4020  0.6658
16875TIP3   OH272115   3.837   5.981   3.672 -0.0783  0.6724 -0.0211
16875TIP3    H172116   3.908   5.917   3.674  0.1422  0.9233  0.2297
16875TIP3    H272117   3.812   5.986   3.580 -0.0543  0.2693 -0.0488
16876TIP3   OH272118   0.716   5.274  16.041  0.0895 -0.3811  0.2340
16876TIP3    H172119   0.794   5.256  16.093  1.6961  2.6069 -1.0517
16876TIP3    H272120   0.695   5.365  16.060 -1.8129 -0.5051 -1.1400
16877TIP3   OH272121   4.460   1.598  13.016  0.5002  0.4544 -0.1203
16877TIP3    H172122   4.545   1.562  12.988  0.8005  1.0491  0.0064
16877TIP3    H272123   4.419   1.627  12.934  0.0841 -0.5407 -0.2657
16878TIP3   OH272124   4.984   4.502  16.581  0.2809  0.1565 -0.5065
16878TIP3    H172125   4.898   4.541  16.567  1.1985  1.6960 -2.1338
16878TIP3    H272126   4.989   4.487  16.676 -1.0361  1.8148 -0.1533
16879TIP3   OH272127   4.248   0.968   3.380 -0.5236 -0.0673 -0.2117
16879TIP3    H172128   4.215   0.965   3.470 -3.8116  0.4021 -1.3267
16879TIP3    H272129   4.309   1.043   3.380 -0.5039 -0.0555  1.5886
16880TIP3   OH272130   5.767   4.284   5.999 -0.0432 -0.6163  0.1109
16880TIP3    H172131   5.755   4.348   6.069  0.4206 -1.6750  1.1574
16880TIP3    H272132   5.729   4.326   5.922  1.4318  1.4692  0.4855
16881TIP3   OH272133   5.246   6.475   4.403 -0.0742 -0.2778  0.3091
16881TIP3    H172134   5.158   6.438   4.397 -0.3202 -0.4593  3.7311
16881TIP3    H272135   5.237   6.563   4.367 -1.5798 -0.4314  0.2562
16882TIP3   OH272136   3.238   6.475  17.052  0.1332 -0.5507 -0.5908
16882TIP3    H172137   3.165   6.492  16.993 -0.7025  0.3441  0.6938
16882TIP3    H272138   3.237   6.380  17.063 -1.6169 -0.4381  0.3992
16883TIP3   OH272139   5.062   3.970  13.913 -0.1294  0.1492  0.2318
16883TIP3    H172140   5.042   4.063  13.904  0.5468  0.2262 -0.5877
16883TIP3    H272141   5.151   3.969  13.950  0.1793 -0.1630 -0.5122
16884TIP3   OH272142   3.706   2.029   5.500  0.3326 -0.3735 -0.3374
16884TIP3    H172143   3.664   1.947   5.476  1.9281 -1.0301 -0.9980
16884TIP3    H272144   3.794   2.003   5.530  0.5068  0.9955  0.4011
16885TIP3   OH272145   4.969   4.566   2.435  0.3976  0.0829 -0.1578
16885TIP3    H172146   4.949   4.658   2.452 -1.2915  0.0735 -1.8906
16885TIP3    H272147   4.925   4.547   2.352  1.8704 -1.9204 -0.5162
16886TIP3   OH272148   2.020   1.653   5.290 -0.5348  0.2803 -1.0024
16886TIP3    H172149   2.019   1.749   5.282  2.1768  0.4835  0.3390
16886TIP3    H272150   1.955   1.633   5.357 -0.2926  1.2959 -0.4582
16887TIP3   OH272151   1.484   0.863   1.880  0.2736 -0.0303  0.1326
16887TIP3    H172152   1.427   0.939   1.887  0.9748  0.4685  0.4440
16887TIP3    H272153   1.493   0.848   1.786  0.7227  0.7128  0.0566
16888TIP3   OH272154   0.219   2.154  15.022 -0.3383  0.4516 -0.1262
16888TIP3    H172155   0.174   2.238  15.021  0.5382  0.9366  0.3309
16888TIP3    H272156   0.309   2.175  14.998 -0.4730 -0.5835 -1.6511
16889TIP3   OH272157   3.941   3.820  13.164  0.4327 -0.2964 -0.3250
16889TIP3    H172158   3.868   3.758  13.158  0.7202 -0.6624 -0.0235
16889TIP3    H272159   4.018   3.765  13.176  0.7711  0.0902 -0.7346
16890TIP3   OH272160   2.161   2.535  15.071 -0.0269 -0.4645  0.9826
16890TIP3    H172161   2.162   2.555  15.165 -0.8203  0.0383  0.8918
16890TIP3    H272162   2.186   2.443  15.066 -1.2255 -0.8435  1.7966
16891TIP3   OH272163   5.281   5.713   4.611  0.2192  0.4493 -0.3198
16891TIP3    H172164   5.292   5.632   4.661 -2.3720 -0.3767 -0.9809
16891TIP3    H272165   5.247   5.776   4.674 -1.0738 -0.0005 -0.5478
16892TIP3   OH272166   1.897   5.156  11.446 -0.5344 -0.5328 -0.3145
16892TIP3    H172167   1.845   5.076  11.434 -1.3424 -0.0036 -0.3650
16892TIP3    H272168   1.865   5.216  11.379 -0.1325 -0.0552 -0.0813
16893TIP3   OH272169   0.021   2.813  11.659 -0.3072  0.2329 -0.0527
16893TIP3    H172170   0.097   2.828  11.602  0.7827 -1.2506  0.9785
16893TIP3    H272171  -0.010   2.901  11.681  0.2626  0.8357 -1.6026
16894TIP3   OH272172   4.625   5.536   5.160 -0.2997  0.3640 -0.6461
16894TIP3    H172173   4.718   5.548   5.141  0.0366 -0.4777  0.4177
16894TIP3    H272174   4.580   5.587   5.092  0.9761  3.0886  0.4787
16895TIP3   OH272175   3.558   2.894  13.315 -0.1198  0.5135  0.5813
16895TIP3    H172176   3.585   2.940  13.394  0.1237 -0.2052  0.9254
16895TIP3    H272177   3.639   2.880  13.267  0.2796 -2.2856  1.9607
16896TIP3   OH272178   5.942   5.250  15.644  0.4535  0.0296  0.0073
16896TIP3    H172179   5.972   5.217  15.559 -1.2683  1.0667 -1.0198
16896TIP3    H272180   5.892   5.178  15.682  1.0627 -0.3634  0.0827
16897TIP3   OH272181   1.103   2.383  12.342  0.0404  0.0387 -0.5133
16897TIP3    H172182   1.098   2.287  12.340  0.6572 -0.0430  1.1720
16897TIP3    H272183   1.094   2.406  12.434  4.4740  1.2898 -0.2523
16898TIP3   OH272184   2.618   6.302   2.233  0.1924  0.2621 -0.3623
16898TIP3    H172185   2.578   6.364   2.294  1.1121  0.7365 -0.2236
16898TIP3    H272186   2.703   6.282   2.272  1.2004  1.3286 -1.9800
16899TIP3   OH272187   3.120   0.911  16.884  0.0106 -0.5177  0.3998
16899TIP3    H172188   3.029   0.908  16.915 -0.3026  1.5370 -0.2271
16899TIP3    H272189   3.129   0.835  16.827 -1.0626 -1.2086  1.1400
16900TIP3   OH272190   2.812   1.071  12.603 -0.0545  0.1710 -0.0870
16900TIP3    H172191   2.776   1.123  12.675 -1.6404  0.2551 -0.9395
16900TIP3    H272192   2.765   1.100  12.525  0.2438 -1.3353 -0.8519
16901TIP3   OH272193   3.927   1.620   3.374  0.9884 -0.4446  0.0195
16901TIP3    H172194   3.926   1.666   3.458 -1.0634 -0.1663 -0.1268
16901TIP3    H272195   3.898   1.532   3.394  0.9942 -0.5253 -0.3180
16902TIP3   OH272196   4.080   4.132   1.328  0.1445 -0.0263 -0.5283
16902TIP3    H172197   4.028   4.053   1.309  0.9195 -0.9606  1.0427
16902TIP3    H272198   4.164   4.117   1.285  0.4682 -0.3001  0.1880
16903TIP3   OH272199   3.527   5.533  13.144 -0.1101  0.6872 -0.1776
16903TIP3    H172200   3.546   5.456  13.197 -0.4859  1.1017  0.5797
16903TIP3    H272201   3.563   5.513  13.058 -2.1532 -1.2550 -0.6308
16904TIP3   OH272202   3.819   1.455   0.950 -0.7867  0.0222 -0.4526
16904TIP3    H172203   3.816   1.401   0.870  0.6672  0.6296 -0.9368
16904TIP3    H272204   3.911   1.481   0.957 -1.5286  2.7628 -0.4300
16905TIP3   OH272205   0.486   4.922   5.536 -0.0802 -0.5136  0.0949
16905TIP3    H172206   0.444   4.878   5.463 -0.2117 -0.0040 -0.1319
16905TIP3    H272207   0.557   4.862   5.562  2.8153  1.2990 -3.2871
16906TIP3   OH272208   1.218   6.169  15.166  0.3468 -0.7817  0.2672
16906TIP3    H172209   1.199   6.075  15.163  1.5256 -1.0229  0.1382
16906TIP3    H272210   1.152   6.209  15.109 -0.8951 -1.3993  1.2437
16907TIP3   OH272211   0.937   2.164   2.363  0.2387 -0.0319  0.1954
16907TIP3    H172212   0.937   2.198   2.273  1.6321 -1.0642 -0.2033
16907TIP3    H272213   0.998   2.091   2.361  0.5026  0.1190  2.0609
16908TIP3   OH272214   6.580   3.684  13.181  0.1569 -0.1264  1.0455
16908TIP3    H172215   6.578   3.628  13.258  0.8220 -0.5580  0.7468
16908TIP3    H272216   6.508   3.652  13.126  0.6517 -0.8119  0.7900
16909TIP3   OH272217   1.075   3.371  11.524 -0.4265 -0.4119 -0.1686
16909TIP3    H172218   1.057   3.369  11.430  0.3145  0.5225 -0.3419
16909TIP3    H272219   1.155   3.320  11.534  0.2224  0.5797 -0.2278
16910TIP3   OH272220   2.913   0.213   5.974  0.6139 -0.4434  0.6983
16910TIP3    H172221   2.865   0.264   6.039  1.3317  0.2321  0.7126
16910TIP3    H272222   2.989   0.178   6.021  0.7072 -0.6159  0.4246
16911TIP3   OH272223   1.937   2.915   4.282 -0.4816  0.1526  0.2999
16911TIP3    H172224   1.909   2.981   4.219 -1.8728  0.7472  1.5050
16911TIP3    H272225   1.873   2.844   4.273  0.0756 -0.3382  0.1313
16912TIP3   OH272226   1.918   0.456  13.232  0.2739  0.3976 -0.0852
16912TIP3    H172227   1.902   0.522  13.299 -2.3055  0.8799 -1.0983
16912TIP3    H272228   1.906   0.372  13.277  0.1056  0.6936  0.4211
16913TIP3   OH272229   5.410   1.672   5.586 -0.4818 -0.1328  0.1031
16913TIP3    H172230   5.327   1.709   5.618 -0.7602 -0.5194 -0.1705
16913TIP3    H272231   5.396   1.661   5.492 -0.2430 -0.5357  0.1150
16914TIP3   OH272232   0.568   1.069   1.760  0.3255  0.0165 -0.5590
16914TIP3    H172233   0.573   1.108   1.848  2.4334  2.3161 -1.6536
16914TIP3    H272234   0.630   0.996   1.762 -2.3477 -2.3522  0.9449
16915TIP3   OH272235   5.770   4.783  15.656 -0.0502 -0.2971  0.6527
16915TIP3    H172236   5.842   4.731  15.622 -0.2936  0.6771 -1.4724
16915TIP3    H272237   5.692   4.745  15.616 -0.4366  0.3769  0.7520
16916TIP3   OH272238   1.914   3.888  14.991 -0.0257 -0.1949  0.1576
16916TIP3    H172239   1.886   3.919  15.077  0.4821 -1.4310  0.7905
16916TIP3    H272240   1.949   3.965  14.947  1.5075  0.0777  1.8025
16917TIP3   OH272241   4.250   4.858  16.488  0.4542  0.6353 -0.1447
16917TIP3    H172242   4.157   4.856  16.509  0.5147  0.4858  0.1016
16917TIP3    H272243   4.286   4.779  16.529  0.5375  0.2561 -0.9315
16918TIP3   OH272244   5.448   5.870  12.555 -0.2227  0.3880 -0.1051
16918TIP3    H172245   5.466   5.922  12.477  2.3641 -0.4526 -0.1260
16918TIP3    H272246   5.534   5.855  12.594 -1.3957  0.1190  2.4825
16919TIP3   OH272247   2.359   3.177   3.583  0.0455  1.2307  0.2238
16919TIP3    H172248   2.273   3.135   3.578  1.1244 -1.1073  0.5938
16919TIP3    H272249   2.348   3.248   3.646 -1.3144  0.1930  1.1852
16920TIP3   OH272250   3.568   0.958   4.722 -0.0103  1.2337  0.1073
16920TIP3    H172251   3.542   0.876   4.764 -0.8138  1.0526 -0.7308
16920TIP3    H272252   3.511   1.024   4.760 -0.6415  1.0925 -0.5764
16921TIP3   OH272253   4.915   5.893  14.025 -0.1313  0.2007  0.4707
16921TIP3    H172254   4.955   5.810  13.999 -0.2220  0.8926 -2.0835
16921TIP3    H272255   4.876   5.876  14.110 -1.7335 -2.9260 -0.8038
16922TIP3   OH272256   0.782   0.258   4.288 -0.4011  0.4145 -0.4246
16922TIP3    H172257   0.755   0.243   4.198  1.5751 -1.7035 -0.6992
16922TIP3    H272258   0.745   0.185   4.337  2.1789 -0.8536 -0.2984
16923TIP3   OH272259   3.726   5.476   3.782  0.1841 -0.1747  0.2451
16923TIP3    H172260   3.722   5.568   3.810 -0.4202  0.0977 -0.6802
16923TIP3    H272261   3.801   5.440   3.829  0.6920  0.9110  0.3001
16924TIP3   OH272262   4.439   1.704   1.863  0.4280  0.3384  0.1380
16924TIP3    H172263   4.429   1.610   1.845  0.5757  0.7974 -2.6738
16924TIP3    H272264   4.352   1.731   1.894 -0.0453 -0.4603 -0.4477
16925TIP3   OH272265   2.089   2.726   0.722  0.1058 -0.1090 -0.6422
16925TIP3    H172266   2.009   2.706   0.673  0.9198 -2.9652 -0.9054
16925TIP3    H272267   2.092   2.822   0.726 -2.4987  0.0630 -1.9748
16926TIP3   OH272268   2.849   4.171   4.353 -0.1005  0.1352  0.4151
16926TIP3    H172269   2.874   4.090   4.398 -0.5170 -1.4861 -2.2058
16926TIP3    H272270   2.931   4.207   4.322 -0.2344 -1.2721 -1.6618
16927TIP3   OH272271   1.277   5.023   1.382 -0.0888  0.5515 -0.2533
16927TIP3    H172272   1.362   5.022   1.425 -0.0974  1.0434 -0.2237
16927TIP3    H272273   1.214   5.013   1.453  0.0139 -1.8369 -0.4736
16928TIP3   OH272274   0.772   1.572  13.006 -0.4174 -0.3116  0.1811
16928TIP3    H172275   0.823   1.589  12.927 -0.2868 -0.3147  0.2649
16928TIP3    H272276   0.788   1.480  13.025 -1.2983 -0.5826 -0.3887
16929TIP3   OH272277   0.479   3.539   5.809 -0.0128 -0.2985 -0.0566
16929TIP3    H172278   0.436   3.583   5.883 -1.0196  0.9144 -1.3349
16929TIP3    H272279   0.457   3.447   5.819 -1.0036  0.0005  0.5919
16930TIP3   OH272280   4.527   4.665   4.328 -0.0071  0.0258  0.0329
16930TIP3    H172281   4.486   4.589   4.370  0.7988  0.1262  1.0342
16930TIP3    H272282   4.540   4.727   4.400 -1.2178  1.3763 -0.8711
16931TIP3   OH272283   5.785   6.522  16.254 -0.2538 -0.2229 -0.0646
16931TIP3    H172284   5.829   6.605  16.274  0.6643 -0.5770 -0.5671
16931TIP3    H272285   5.836   6.456  16.301 -1.3044 -0.4469  0.7640
16932TIP3   OH272286   3.208   1.613   2.869 -0.0992  0.3220 -0.2329
16932TIP3    H172287   3.152   1.585   2.797 -0.6256  1.1256 -0.1438
16932TIP3    H272288   3.297   1.599   2.837 -0.3160  1.3367 -1.3117
16933TIP3   OH272289   3.807   5.944  16.985 -0.2197  0.7887 -0.2811
16933TIP3    H172290   3.806   5.953  17.080 -1.2680 -0.2428 -0.1935
16933TIP3    H272291   3.873   5.876  16.968 -2.1563 -1.1899 -0.0874
16934TIP3   OH272292   3.412   2.381  15.946  0.3003 -0.5284 -0.8233
16934TIP3    H172293   3.356   2.453  15.915 -0.3537 -0.2338  0.9901
16934TIP3    H272294   3.403   2.313  15.880 -1.2057  0.0153 -1.1864
16935TIP3   OH272295   5.540   3.193   2.466 -0.0058  0.2425 -0.7121
16935TIP3    H172296   5.465   3.144   2.499 -0.6860  0.5082 -1.8190
16935TIP3    H272297   5.502   3.255   2.404  0.9987  1.2099 -0.3730
16936TIP3   OH272298   4.024   6.648  11.186 -0.2372  0.4352 -0.0818
16936TIP3    H172299   3.954   6.606  11.235 -0.0562  0.1375 -0.0771
16936TIP3    H272300   3.983   6.725  11.147 -0.6106  0.1699 -0.2166
16937TIP3   OH272301   5.403   5.637  14.856  0.0284 -0.5432  0.7803
16937TIP3    H172302   5.426   5.561  14.909  1.8893  1.2009  2.6003
16937TIP3    H272303   5.474   5.700  14.873 -0.1163  0.6667 -2.6216
16938TIP3   OH272304   6.237   0.237   3.836 -0.7924 -0.2868 -0.1415
16938TIP3    H172305   6.286   0.318   3.851 -0.9181 -0.3287  0.5108
16938TIP3    H272306   6.265   0.208   3.750  0.6007 -0.5031  0.3688
16939TIP3   OH272307   4.720   5.052  11.501  0.5304  0.2636 -0.0623
16939TIP3    H172308   4.755   4.967  11.474  2.4682  0.9844  0.1301
16939TIP3    H272309   4.719   5.048  11.597  0.7956  0.5257 -0.0479
16940TIP3   OH272310   5.206   3.374  14.696 -0.0869 -0.0519  0.0539
16940TIP3    H172311   5.175   3.465  14.700  0.1105  0.0771 -1.1819
16940TIP3    H272312   5.174   3.342  14.611  1.9635 -0.3658 -0.6183
16941TIP3   OH272313   1.744   0.510  12.451 -0.3677 -0.0330 -0.3495
16941TIP3    H172314   1.678   0.447  12.481 -0.8948  0.0066 -1.4114
16941TIP3    H272315   1.723   0.591  12.499 -1.6006  0.2123 -1.2700
16942TIP3   OH272316   4.913   2.259  12.624 -0.1556 -0.0616  0.1460
16942TIP3    H172317   4.914   2.196  12.552  1.6040 -0.6921  0.6854
16942TIP3    H272318   4.909   2.205  12.703 -3.8805  0.6758  0.5179
16943TIP3   OH272319   2.900   2.217  15.599 -0.4848 -0.5436 -0.0175
16943TIP3    H172320   2.969   2.257  15.652 -0.0435 -1.0904 -0.1731
16943TIP3    H272321   2.826   2.208  15.659 -1.3489  2.5265 -0.5541
16944TIP3   OH272322   2.814   5.297  13.111  0.4325 -0.4586 -0.6027
16944TIP3    H172323   2.785   5.339  13.030  2.3594 -1.2093 -1.7277
16944TIP3    H272324   2.902   5.332  13.126 -0.8476  1.5595  2.5510
16945TIP3   OH272325   0.703   3.651   1.919  0.2732  0.1078 -0.1563
16945TIP3    H172326   0.763   3.721   1.896  0.1106  0.1436 -0.4740
16945TIP3    H272327   0.637   3.651   1.850  0.2005 -0.2755 -0.0924
16946TIP3   OH272328   5.057   6.811  12.895  0.1335 -0.2348  0.0627
16946TIP3    H172329   5.040   6.719  12.916 -2.4888  0.0374 -0.6689
16946TIP3    H272330   5.075   6.811  12.801 -1.6296  0.1762 -0.2975
16947TIP3   OH272331   1.411   6.817  16.075 -0.1398  0.3180 -0.1339
16947TIP3    H172332   1.502   6.828  16.104  0.0057 -0.3103 -0.3455
16947TIP3    H272333   1.419   6.782  15.986 -0.5902  0.6168 -0.2919
16948TIP3   OH272334   1.765   4.050  12.787 -0.2568 -0.4164 -0.2453
16948TIP3    H172335   1.779   4.002  12.869  1.8751  1.7161  0.7014
16948TIP3    H272336   1.685   4.101  12.802 -0.0190 -0.2358  0.3971
16949TIP3   OH272337   2.941   3.296   1.628 -0.6260 -0.7028  0.1188
16949TIP3    H172338   2.998   3.234   1.674 -0.9469  0.0834  1.6292
16949TIP3    H272339   2.871   3.315   1.691 -0.5452  1.1412 -0.3261
16950TIP3   OH272340   5.047   3.130  12.199  0.5262 -0.4052  0.1146
16950TIP3    H172341   5.027   3.037  12.187  1.0190 -0.2332 -2.2770
16950TIP3    H272342   5.001   3.174  12.128 -0.4062  1.3132  1.7323
16951TIP3   OH272343   6.475   2.643   4.132  0.2207 -0.2045  0.1937
16951TIP3    H172344   6.491   2.548   4.135  1.7391  0.0211 -0.0775
16951TIP3    H272345   6.397   2.656   4.185 -1.1054 -1.8261 -1.2863
16952TIP3   OH272346   3.059   1.194   3.170  0.0425  0.4023  0.1997
16952TIP3    H172347   2.982   1.194   3.227 -0.0886 -1.2805  0.0250
16952TIP3    H272348   3.025   1.206   3.082  0.1505  1.7045  0.3210
16953TIP3   OH272349   1.091   4.737   4.322  0.4159  0.8397  0.1502
16953TIP3    H172350   1.077   4.644   4.338 -1.1125  0.8673 -1.0498
16953TIP3    H272351   1.173   4.741   4.272  0.3922  0.1502  0.0601
16954TIP3   OH272352   1.424   0.569  16.041 -0.2782 -0.0555 -0.2613
16954TIP3    H172353   1.371   0.544  16.117 -1.4787 -0.9862 -1.3643
16954TIP3    H272354   1.456   0.485  16.006  1.2787  0.4464 -0.0844
16955TIP3   OH272355   5.406   3.043  12.272 -0.6248  0.2952 -0.2899
16955TIP3    H172356   5.471   3.058  12.203  1.0824 -2.0345  0.7839
16955TIP3    H272357   5.326   3.019  12.224  0.8291 -2.3456 -1.4605
16956TIP3   OH272358   2.507   1.923  16.867  0.4555  0.1725 -0.1385
16956TIP3    H172359   2.591   1.955  16.834  2.9749 -3.9501  1.7657
16956TIP3    H272360   2.493   1.970  16.949  1.5321  0.0149  0.1387
16957TIP3   OH272361   2.110   1.088  17.016  0.5340 -0.2201 -0.1566
16957TIP3    H172362   2.135   0.996  17.019  0.3000 -0.2726  0.3677
16957TIP3    H272363   2.040   1.092  16.951  1.4087 -0.1906 -1.1097
16958TIP3   OH272364   3.305   6.516  14.695  0.5122  0.1725  0.0447
16958TIP3    H172365   3.385   6.566  14.709  0.6396  0.7907 -2.6571
16958TIP3    H272366   3.258   6.564  14.626 -1.0793 -1.4456 -0.0379
16959TIP3   OH272367   4.868   1.227  12.948 -0.3992 -0.1292 -0.7351
16959TIP3    H172368   4.882   1.277  12.868  1.8074  2.3657  1.0804
16959TIP3    H272369   4.955   1.192  12.970 -1.0374 -1.0420  0.3846
16960TIP3   OH272370   4.868   3.637   6.514  0.2342  0.3571  0.4448
16960TIP3    H172371   4.837   3.640   6.605  1.1355 -0.3941  0.7797
16960TIP3    H272372   4.788   3.639   6.462 -0.3627 -0.7987  1.2922
16961TIP3   OH272373   0.891   0.861  12.612  0.5856  0.0433 -0.3526
16961TIP3    H172374   0.957   0.922  12.578 -1.0713  1.3044 -1.3715
16961TIP3    H272375   0.829   0.851  12.541  0.4938 -2.3826  0.0411
16962TIP3   OH272376   2.959   5.510  16.336 -0.0141 -0.7415 -0.6282
16962TIP3    H172377   2.910   5.546  16.262  0.0914 -0.3329 -0.4966
16962TIP3    H272378   2.959   5.579  16.402  1.7072 -0.2910 -1.0697
16963TIP3   OH272379   2.725   2.625  16.412  0.7632 -0.1246  0.2761
16963TIP3    H172380   2.720   2.610  16.506  2.0601 -2.5196 -0.0070
16963TIP3    H272381   2.670   2.556  16.374  2.6768 -1.0842 -0.8372
16964TIP3   OH272382   5.841   1.186   2.265 -0.3752 -0.4994 -0.2754
16964TIP3    H172383   5.903   1.258   2.271  0.6900 -1.2773 -1.7383
16964TIP3    H272384   5.774   1.217   2.204  0.3117 -0.8971 -1.2431
16965TIP3   OH272385   1.253   1.629   6.707  0.0771 -0.2054 -0.3047
16965TIP3    H172386   1.196   1.611   6.633  0.8429  0.5386 -1.0818
16965TIP3    H272387   1.207   1.697   6.757 -0.5313 -0.8479  0.0083
16966TIP3   OH272388   3.421   0.181   1.107  0.3769  0.2434  0.4709
16966TIP3    H172389   3.493   0.118   1.101  1.7909  1.7131  1.7059
16966TIP3    H272390   3.447   0.241   1.176 -1.1107  2.0186 -0.4654
16967TIP3   OH272391   1.903   1.861  15.422  0.0439  0.0054 -0.2278
16967TIP3    H172392   1.995   1.836  15.407  0.2228  0.6618 -0.2405
16967TIP3    H272393   1.857   1.777  15.432  0.8493 -0.3062  0.9671
16968TIP3   OH272394   1.167   6.729   3.139 -0.0366 -0.4471 -0.0069
16968TIP3    H172395   1.108   6.798   3.170  0.6584  0.3377 -0.3910
16968TIP3    H272396   1.110   6.667   3.094 -0.6089  0.1471 -0.1148
16969TIP3   OH272397   0.271   4.320   1.413 -0.0032  0.3194  0.0295
16969TIP3    H172398   0.245   4.393   1.469 -0.4833  0.1006  0.0977
16969TIP3    H272399   0.344   4.280   1.459  0.0458  0.5568  0.1589
16970TIP3   OH272400   0.621   0.177   3.708 -0.2854 -0.0485 -0.6169
16970TIP3    H172401   0.559   0.117   3.751  0.0147 -0.6993 -1.0843
16970TIP3    H272402   0.609   0.160   3.615  0.6764 -0.2472 -0.7033
16971TIP3   OH272403   1.414   4.156   4.106  0.5737 -0.1655 -0.2971
16971TIP3    H172404   1.459   4.090   4.159 -2.4019 -2.5386 -0.5548
16971TIP3    H272405   1.346   4.191   4.163 -0.6661 -0.5101 -1.5220
16972TIP3   OH272406   0.608   1.143  13.267  0.5188 -0.0347  0.1598
16972TIP3    H172407   0.651   1.203  13.328  1.7961  0.4834 -1.2169
16972TIP3    H272408   0.543   1.197  13.222 -0.7678 -0.5347  1.4031
16973TIP3   OH272409   3.590   5.485  11.091  0.4994  0.2864  0.1890
16973TIP3    H172410   3.575   5.436  11.010  0.6003 -1.0938  0.9869
16973TIP3    H272411   3.665   5.541  11.072  2.2212 -1.9668  0.1412
16974TIP3   OH272412   2.183   5.560  12.014 -0.2477  0.6770  0.6175
16974TIP3    H172413   2.117   5.496  11.988 -1.0003  2.4790 -2.0680
16974TIP3    H272414   2.232   5.516  12.083 -2.9192 -1.4783  1.2329
16975TIP3   OH272415   2.135   0.936   4.606  0.2258  0.0317 -0.4834
16975TIP3    H172416   2.125   1.031   4.612  0.4689  0.0721 -0.6925
16975TIP3    H272417   2.176   0.912   4.689  3.4008  0.5687 -1.8323
16976TIP3   OH272418   1.279   4.360  14.435  0.0829 -0.1958  0.3199
16976TIP3    H172419   1.207   4.310  14.396 -0.2066  2.0635 -2.1917
16976TIP3    H272420   1.345   4.365  14.366  0.4541  2.1136  0.7928
16977TIP3   OH272421   1.812   4.785  12.663 -0.1904  0.3453 -0.0077
16977TIP3    H172422   1.738   4.842  12.647  1.3969  2.0666 -1.4685
16977TIP3    H272423   1.774   4.702  12.693 -2.5744  1.7154  0.7894
16978TIP3   OH272424   3.193   3.380  15.241  0.8459 -0.1068  0.1609
16978TIP3    H172425   3.168   3.302  15.289  2.4629 -1.4860 -1.1804
16978TIP3    H272426   3.122   3.442  15.257 -2.0395 -2.9118 -1.3624
16979TIP3   OH272427   0.854   2.186   5.348 -0.3982 -0.1900 -0.6745
16979TIP3    H172428   0.783   2.249   5.355 -0.1061 -0.0217  1.0798
16979TIP3    H272429   0.861   2.148   5.436  0.8474 -1.0945 -1.1494
16980TIP3   OH272430   3.739   2.320  12.442 -0.1389 -0.0566 -0.2139
16980TIP3    H172431   3.717   2.413  12.436  0.7474  0.3887  2.8178
16980TIP3    H272432   3.716   2.295  12.531 -0.3773 -2.7750 -0.9967
16981TIP3   OH272433   5.706   0.956   5.836  0.1020  0.4901 -0.0344
16981TIP3    H172434   5.689   0.873   5.882 -0.2385 -0.4550 -1.8213
16981TIP3    H272435   5.801   0.967   5.843  0.1758 -0.1535  0.0527
16982TIP3   OH272436   5.379   1.006  15.301  0.2723 -0.5965 -0.0156
16982TIP3    H172437   5.297   1.046  15.273  0.9021  0.4927 -0.3284
16982TIP3    H272438   5.389   0.929  15.246 -1.2202 -1.5027  0.9566
16983TIP3   OH272439   4.481   3.655   2.018 -0.2064 -0.0801  0.5721
16983TIP3    H172440   4.493   3.564   2.046  0.8813 -0.2557 -0.4286
16983TIP3    H272441   4.400   3.655   1.968  0.5473 -0.7959 -0.6608
16984TIP3   OH272442   2.374   4.847  13.574  0.7391 -0.9252 -0.0086
16984TIP3    H172443   2.423   4.791  13.514  0.3127 -2.5051  1.1010
16984TIP3    H272444   2.373   4.799  13.656  0.2024  0.6394  0.9155
16985TIP3   OH272445   4.657   3.935   4.351 -0.2719  0.9298 -0.1412
16985TIP3    H172446   4.726   3.899   4.406  0.1504 -1.6837 -2.2919
16985TIP3    H272447   4.678   3.904   4.263 -2.3381  2.8991 -1.3743
16986TIP3   OH272448   4.671   4.372   3.923 -0.0993 -0.3503  0.6755
16986TIP3    H172449   4.578   4.370   3.900 -0.2329  1.6172  0.9169
16986TIP3    H272450   4.716   4.361   3.840 -0.5474 -1.0840  0.5231
16987TIP3   OH272451   2.712   5.772   0.277 -0.0616 -0.3647 -0.2603
16987TIP3    H172452   2.619   5.782   0.256 -0.1332 -0.2419  0.1199
16987TIP3    H272453   2.713   5.729   0.362  0.2329 -0.6196 -0.3885
16988TIP3   OH272454   6.091   2.075  11.773  0.5124  0.4311  0.2230
16988TIP3    H172455   6.184   2.074  11.749  0.8522 -2.4590  1.4551
16988TIP3    H272456   6.058   1.989  11.746 -0.8115 -0.1209  3.4199
16989TIP3   OH272457   5.957   4.175   2.522  0.1719 -0.2714  0.1114
16989TIP3    H172458   5.969   4.095   2.471 -1.3890 -0.9003  0.7040
16989TIP3    H272459   5.939   4.243   2.458  4.2407  0.2362 -0.6463
16990TIP3   OH272460   5.142   0.810  14.474 -0.0741  0.4603 -0.7144
16990TIP3    H172461   5.112   0.778  14.559 -1.0667 -1.5059 -1.7840
16990TIP3    H272462   5.105   0.749  14.410  0.3394  2.1172 -2.6038
16991TIP3   OH272463   2.446   0.036  17.240 -0.0663 -0.7424  0.3954
16991TIP3    H172464   2.530   0.004  17.273 -0.7437 -0.9257  1.9785
16991TIP3    H272465   2.424   0.110  17.296 -0.3745  0.0823 -0.7993
16992TIP3   OH272466   6.568   6.529  13.661 -0.7407  0.0026  0.3361
16992TIP3    H172467   6.636   6.570  13.608 -0.5869  0.9426  1.2548
16992TIP3    H272468   6.503   6.598  13.673 -1.7360 -0.8064 -0.3094
16993TIP3   OH272469   0.132   6.490   2.517 -0.4025  0.4713  0.4536
16993TIP3    H172470   0.040   6.484   2.544 -0.6807 -1.1017 -0.8072
16993TIP3    H272471   0.164   6.400   2.520  0.7944  0.8621 -0.1906
16994TIP3   OH272472   4.655   0.761   2.095  0.1021 -0.0844  0.4901
16994TIP3    H172473   4.713   0.685   2.099 -0.6974 -0.6988  0.7467
16994TIP3    H272474   4.696   0.821   2.033  1.1219 -0.4031  0.8454
16995TIP3   OH272475   1.613   4.837   2.862  0.5124 -0.2317  0.3678
16995TIP3    H172476   1.560   4.820   2.785  2.0533 -1.6031 -0.4403
16995TIP3    H272477   1.616   4.932   2.870 -0.5904 -0.1158 -0.5907
16996TIP3   OH272478   5.197   6.686   3.207 -0.0553  0.0657  0.2912
16996TIP3    H172479   5.205   6.753   3.275 -0.5318  0.2306  0.1807
16996TIP3    H272480   5.256   6.616   3.237 -0.3504  0.0855  0.9327
16997TIP3   OH272481   1.362   1.875   0.106 -0.1792 -0.2421  0.3387
16997TIP3    H172482   1.367   1.960   0.062 -0.3699 -0.7360 -0.6373
16997TIP3    H272483   1.452   1.843   0.106 -0.1259 -0.0994  0.6085
16998TIP3   OH272484   5.195   1.394   2.337 -0.0897  0.1819 -0.0495
16998TIP3    H172485   5.280   1.434   2.316  0.2567 -0.1438  0.7210
16998TIP3    H272486   5.139   1.420   2.264  1.2251 -1.3159 -1.6314
16999TIP3   OH272487   0.366   3.454  15.027 -0.1552  0.2530 -0.1400
16999TIP3    H172488   0.407   3.492  14.949 -1.3849  1.0995 -0.3799
16999TIP3    H272489   0.429   3.470  15.098  0.4612  0.4705 -0.7361
17000TIP3   OH272490   0.918   5.601  14.634 -0.3896  0.3933 -0.1405
17000TIP3    H172491   1.011   5.610  14.657  0.6389 -0.5424 -3.5844
17000TIP3    H272492   0.878   5.559  14.710  1.9839  0.9534  1.4581
17001TIP3   OH272493   3.311   4.821   3.735  0.3931 -0.5429 -0.0168
17001TIP3    H172494   3.338   4.730   3.747  0.5510 -0.4048  0.7259
17001TIP3    H272495   3.383   4.862   3.687  0.4827 -0.7273 -0.0389
17002TIP3   OH272496   5.333   6.478  12.092  0.1519  0.2763  0.5748
17002TIP3    H172497   5.386   6.399  12.085  1.4152  1.1853 -0.4483
17002TIP3    H272498   5.356   6.529  12.014 -1.6632  1.0387  0.5146
17003TIP3   OH272499   0.938   6.388  10.590  0.1032  0.6156 -0.0156
17003TIP3    H172500   0.847   6.389  10.562  0.0123  1.5045  0.3148
17003TIP3    H272501   0.974   6.471  10.560  1.1966 -0.3072 -1.3932
17004TIP3   OH272502   1.754   3.598  11.551 -0.0002  0.4297 -0.7275
17004TIP3    H172503   1.689   3.660  11.520  0.3577  0.0079 -2.3905
17004TIP3    H272504   1.706   3.539  11.609 -0.4402  1.9478  0.4533
17005TIP3   OH272505   1.276   1.729  16.397 -0.4741 -0.5380  0.3509
17005TIP3    H172506   1.311   1.688  16.476 -0.9391 -0.2413  0.7068
17005TIP3    H272507   1.277   1.823  16.415  1.3380 -0.3173 -0.7746
17006TIP3   OH272508   5.856   1.591   0.454 -0.1817 -0.8293  0.1934
17006TIP3    H172509   5.892   1.644   0.383 -1.7085 -0.6884 -0.4950
17006TIP3    H272510   5.772   1.560   0.421 -0.0148 -2.4124  1.1916
17007TIP3   OH272511   4.099   5.035   4.184  0.2489 -0.0863 -0.2332
17007TIP3    H172512   4.053   5.013   4.265 -0.5461  0.2323 -0.5890
17007TIP3    H272513   4.185   5.067   4.213 -0.1704  0.3825  0.5022
17008TIP3   OH272514   1.289   4.769  17.063 -0.0072 -0.1667  0.5600
17008TIP3    H172515   1.200   4.797  17.041 -0.0146 -0.0451  0.7348
17008TIP3    H272516   1.277   4.690  17.115 -0.0451  0.1876  1.1045
17009TIP3   OH272517   0.309   4.196  13.088  0.3766 -0.3473  0.0581
17009TIP3    H172518   0.351   4.236  13.011 -0.2990 -0.8033 -0.5483
17009TIP3    H272519   0.224   4.239  13.094  0.3980 -0.3691  0.5043
17010TIP3   OH272520   4.069   6.384   4.387  0.2346  0.2507  0.0849
17010TIP3    H172521   4.023   6.315   4.435  0.0331  1.2651  1.3877
17010TIP3    H272522   4.102   6.341   4.308 -0.9372 -1.0405  0.2824
17011TIP3   OH272523   4.004   1.369  13.879 -0.0121  0.0523  0.6335
17011TIP3    H172524   3.921   1.338  13.842  0.6466 -2.0365  0.8235
17011TIP3    H272525   3.990   1.462  13.895 -2.1651 -0.1771  0.2394
17012TIP3   OH272526   6.063   6.078  12.894  0.4530  0.3126 -0.2727
17012TIP3    H172527   5.969   6.064  12.882  0.3693 -0.1701  0.8076
17012TIP3    H272528   6.098   5.989  12.906  0.9723  0.5198 -0.2616
17013TIP3   OH272529   0.249   1.815   3.264 -0.2945  0.2303  0.0583
17013TIP3    H172530   0.194   1.742   3.237 -0.7415  0.4933  0.2458
17013TIP3    H272531   0.215   1.841   3.349 -1.0870  1.5975 -0.6578
17014TIP3   OH272532   3.768   6.195  11.987 -0.3168  0.0215 -0.3335
17014TIP3    H172533   3.840   6.142  11.955 -1.9918 -0.8111 -2.9041
17014TIP3    H272534   3.808   6.254  12.051  2.1101 -2.2510  0.3196
17015TIP3   OH272535   5.858   0.024  11.190 -0.3782 -0.5300  0.2856
17015TIP3    H172536   5.843   0.083  11.116 -1.5244  0.1495  1.0382
17015TIP3    H272537   5.788  -0.040  11.184 -1.1611  0.2000  1.4305
17016TIP3   OH272538   1.651   2.007   6.144  0.0559 -0.3500  0.5801
17016TIP3    H172539   1.682   1.917   6.144  2.6173  0.4806 -0.2387
17016TIP3    H272540   1.660   2.035   6.236  0.8762 -0.4151  0.5238
17017TIP3   OH272541   5.608   2.741  14.665 -0.4189 -0.4352  0.1000
17017TIP3    H172542   5.675   2.798  14.626 -1.7627  1.6002  0.7049
17017TIP3    H272543   5.573   2.692  14.590  1.3927 -1.1878 -0.2932
17018TIP3   OH272544   1.380   3.003   3.268 -0.9556 -0.6317  0.1628
17018TIP3    H172545   1.326   3.082   3.260 -1.1839 -1.0194 -2.3398
17018TIP3    H272546   1.328   2.944   3.324 -1.6402  0.2466  0.4582
17019TIP3   OH272547   1.434   5.522  14.711  0.0190 -0.2254  0.2399
17019TIP3    H172548   1.516   5.570  14.723  0.1063 -0.3002 -0.0653
17019TIP3    H272549   1.461   5.434  14.685 -0.1418 -0.4396  0.7922
17020TIP3   OH272550   4.978   6.787   3.895  0.4219  0.4889  0.1983
17020TIP3    H172551   5.074   6.787   3.897  0.4171 -0.2442  0.8771
17020TIP3    H272552   4.954   6.876   3.870  1.2436  1.2129  1.9836
17021TIP3   OH272553   0.256   4.366  15.347  0.3125 -0.0581  0.4186
17021TIP3    H172554   0.321   4.413  15.399 -1.8674  1.3503  1.9549
17021TIP3    H272555   0.230   4.292  15.402 -0.5729  0.3267  0.5264
17022TIP3   OH272556   0.740   1.475  12.640 -0.4130 -0.7388  0.2934
17022TIP3    H172557   0.660   1.469  12.587  0.4149  0.1317 -1.0837
17022TIP3    H272558   0.767   1.384  12.653 -1.2669 -1.0116  0.2245
17023TIP3   OH272559   3.469   5.558  14.977 -0.0676 -0.2232  0.3914
17023TIP3    H172560   3.512   5.589  15.056 -0.4343  0.2848  0.3960
17023TIP3    H272561   3.385   5.604  14.976 -0.1559 -0.3905 -0.1773
17024TIP3   OH272562   2.876   2.271   2.744  0.3709 -0.1167 -0.1792
17024TIP3    H172563   2.855   2.178   2.746  3.7173 -0.9180  1.4321
17024TIP3    H272564   2.812   2.312   2.801 -0.1008 -1.6750  0.4217
17025TIP3   OH272565   6.208   0.313   1.145  0.3279  0.5115  0.3526
17025TIP3    H172566   6.271   0.251   1.109 -0.0707 -0.4986  1.3667
17025TIP3    H272567   6.210   0.388   1.085  0.1141 -0.8877 -1.4347
17026TIP3   OH272568   4.404   6.432   2.552  0.3221 -0.0483  0.5225
17026TIP3    H172569   4.422   6.525   2.536 -1.3378  0.5098  1.7597
17026TIP3    H272570   4.469   6.386   2.500  2.2737  1.8313  1.2212
17027TIP3   OH272571   6.442   4.511  12.215  0.1431 -0.7111  0.3099
17027TIP3    H172572   6.485   4.527  12.131  1.6937 -0.8756  1.0534
17027TIP3    H272573   6.358   4.470  12.192 -0.2208  0.8217 -1.2259
17028TIP3   OH272574   2.877   1.522   3.850 -0.2935 -0.6696  0.6386
17028TIP3    H172575   2.865   1.474   3.768 -0.0662 -0.9166  0.7466
17028TIP3    H272576   2.793   1.564   3.866  0.4519  1.5596 -1.1144
17029TIP3   OH272577   4.809   4.723  13.781  0.0952  0.2967 -0.5442
17029TIP3    H172578   4.753   4.647  13.800 -0.5863  0.4970 -1.6844
17029TIP3    H272579   4.839   4.753  13.867 -0.6055 -0.5322  0.0001
17030TIP3   OH272580   4.776   0.139  11.737  0.5660  0.0096 -0.5606
17030TIP3    H172581   4.719   0.214  11.721 -0.5472 -0.9298 -1.0828
17030TIP3    H272582   4.741   0.100  11.817  0.9210 -0.1669 -0.4911
17031TIP3   OH272583   4.588   2.596   0.256  0.2316 -0.5176  0.4947
17031TIP3    H172584   4.572   2.638   0.172  0.3233  1.5020  1.4701
17031TIP3    H272585   4.683   2.594   0.265  0.1948  0.3328  1.0810
17032TIP3   OH272586   6.762   4.728  14.022  0.0486 -0.1350 -0.1672
17032TIP3    H172587   6.677   4.720  13.978 -1.4273  1.9538  2.1252
17032TIP3    H272588   6.761   4.660  14.089 -0.2532  0.4958  0.4805
17033TIP3   OH272589   6.278   5.971  15.195  0.0441  0.3531 -0.2122
17033TIP3    H172590   6.336   6.045  15.211 -0.2850  0.7779 -0.9240
17033TIP3    H272591   6.192   6.011  15.180 -0.3284 -0.2360  0.3230
17034TIP3   OH272592   1.152   2.926   1.735  0.2234 -0.1084 -0.1361
17034TIP3    H172593   1.158   2.883   1.820  0.3890 -0.3696 -0.2804
17034TIP3    H272594   1.087   2.875   1.687  0.5166 -0.2723 -0.3536
17035TIP3   OH272595   1.886   1.511  11.644 -0.0136  0.1531 -0.3109
17035TIP3    H172596   1.798   1.479  11.662  0.3801  0.1680  1.8108
17035TIP3    H272597   1.887   1.601  11.678  0.5186  0.5175 -1.2619
17036TIP3   OH272598   4.529   4.650   5.457  0.7243 -0.3309 -0.5414
17036TIP3    H172599   4.454   4.692   5.499  2.0978  1.0822  0.5594
17036TIP3    H272600   4.495   4.618   5.374 -0.3658  3.1307 -1.4946
17037TIP3   OH272601   4.945   4.307   4.392  0.1412  0.2986  0.5583
17037TIP3    H172602   4.933   4.245   4.319 -0.8661 -0.2018  1.1431
17037TIP3    H272603   5.033   4.342   4.378  0.5588 -0.9277 -0.0460
17038TIP3   OH272604   5.133   5.433   6.982 -0.4475 -0.2547 -0.0318
17038TIP3    H172605   5.186   5.389   6.915 -0.9470 -1.0369  0.0824
17038TIP3    H272606   5.185   5.509   7.007  0.1106 -0.3950 -0.7349
17039TIP3   OH272607   0.910   4.582   0.812  0.4789  0.8611 -0.0568
17039TIP3    H172608   0.919   4.588   0.907  1.3817 -1.0266  0.0006
17039TIP3    H272609   0.883   4.670   0.785  1.8761  1.8943  1.7493
17040TIP3   OH272610   6.309   3.324  13.019  0.1831  0.0356 -0.3828
17040TIP3    H172611   6.330   3.231  13.030 -2.4776 -0.8697 -2.3857
17040TIP3    H272612   6.346   3.346  12.933 -1.0309  0.2242 -0.8713
17041TIP3   OH272613   4.453   6.720  15.221 -0.1332  0.4386 -0.3076
17041TIP3    H172614   4.409   6.640  15.252  0.4722  0.0041 -0.5557
17041TIP3    H272615   4.457   6.777  15.297  0.2711 -0.1447  0.1134
17042TIP3   OH272616   3.789   4.666   1.999  0.4216  0.1376  0.0043
17042TIP3    H172617   3.800   4.623   2.084 -1.2239  0.0245  0.1862
17042TIP3    H272618   3.786   4.595   1.936  3.3713  0.3040 -0.3835
17043TIP3   OH272619   1.831   0.650   0.308 -0.2469  0.3499 -0.5664
17043TIP3    H172620   1.816   0.736   0.348 -1.1989 -0.3897  0.7058
17043TIP3    H272621   1.793   0.588   0.370  2.4663 -1.1813 -0.3787
17044TIP3   OH272622   3.660   3.015   2.114  0.2752  0.1419  0.2739
17044TIP3    H172623   3.646   3.065   2.034 -1.5716 -0.0116  0.4748
17044TIP3    H272624   3.752   2.987   2.110  0.6996  1.6834 -0.8894
17045TIP3   OH272625   0.438   2.532  15.874  0.0182 -0.3330  0.1105
17045TIP3    H172626   0.500   2.486  15.930 -0.0145  0.9218  1.2080
17045TIP3    H272627   0.486   2.609  15.842  0.0439 -1.0384 -1.6059
17046TIP3   OH272628   4.941   0.313  14.779 -0.6141  0.5330  0.1891
17046TIP3    H172629   4.921   0.220  14.793  0.0604  0.2240 -0.8881
17046TIP3    H272630   4.893   0.337  14.700 -0.1269  0.8891 -0.0035
17047TIP3   OH272631   0.065   0.883   6.645  0.4612  0.4281  0.8244
17047TIP3    H172632  -0.029   0.873   6.657  0.0572  0.5868 -1.9284
17047TIP3    H272633   0.096   0.919   6.728 -1.5780 -1.5385  2.4826
17048TIP3   OH272634   5.404   5.402   1.334 -0.2732 -0.3134  0.3639
17048TIP3    H172635   5.474   5.465   1.355  1.0421 -1.4997 -0.3328
17048TIP3    H272636   5.379   5.424   1.244 -0.5734 -0.0790  0.5071
17049TIP3   OH272637   6.409   1.328  13.861 -0.0134 -0.5015  0.3756
17049TIP3    H172638   6.377   1.345  13.772  0.3573 -3.4026 -0.3768
17049TIP3    H272639   6.330   1.326  13.915 -0.4690 -0.8197 -0.2884
17050TIP3   OH272640   2.441   3.168  14.728 -0.4324 -0.2208  0.2096
17050TIP3    H172641   2.388   3.239  14.764 -1.2993 -0.2270 -1.0272
17050TIP3    H272642   2.459   3.195  14.638  1.1539 -0.5099  0.4250
17051TIP3   OH272643   4.704   3.003  11.828  0.2798 -0.1698  0.3524
17051TIP3    H172644   4.667   3.054  11.756 -0.5507  0.6122  1.3253
17051TIP3    H272645   4.669   2.915  11.815 -1.6375  0.4724  1.0325
17052TIP3   OH272646   2.563   1.420   6.566  0.3557  0.3226 -0.5685
17052TIP3    H172647   2.477   1.388   6.591  0.3366  2.6124  2.6343
17052TIP3    H272648   2.624   1.354   6.596 -0.1644 -0.7318 -1.7705
17053TIP3   OH272649   0.010   5.395  12.733 -0.7853  0.0091  0.0096
17053TIP3    H172650  -0.027   5.481  12.712  0.3602 -0.1632 -2.8990
17053TIP3    H272651   0.098   5.415  12.767 -0.8684  0.0294  0.2150
17054TIP3   OH272652   4.760   4.363   6.382 -0.1586 -0.2632 -0.3581
17054TIP3    H172653   4.820   4.436   6.363 -0.2392  0.2145  1.1385
17054TIP3    H272654   4.690   4.402   6.434 -1.6329 -0.8838 -1.8554
17055TIP3   OH272655   5.692   2.916   5.259  0.0470  0.6666 -0.1950
17055TIP3    H172656   5.604   2.935   5.228 -0.7480 -2.1512  0.1386
17055TIP3    H272657   5.748   2.929   5.182 -0.3762  4.0983  0.0179
17056TIP3   OH272658   1.797   0.174   4.916  0.3830  0.1390  0.0670
17056TIP3    H172659   1.785   0.079   4.921 -2.2021  0.4347  0.1826
17056TIP3    H272660   1.887   0.185   4.885  0.6682 -2.3414 -0.1167
17057TIP3   OH272661   1.862   4.657  10.656 -0.0534 -0.0957  0.0002
17057TIP3    H172662   1.887   4.583  10.601  1.9582 -0.5251  1.4333
17057TIP3    H272663   1.819   4.618  10.731  0.1348  0.2501  0.2892
17058TIP3   OH272664   2.701   0.234  12.749  0.1638  0.0216 -0.3814
17058TIP3    H172665   2.710   0.316  12.798  0.0008  0.4809 -1.1066
17058TIP3    H272666   2.639   0.182  12.800  1.3374 -0.2283  0.8344
17059TIP3   OH272667   5.145   5.458   5.992 -0.1555 -0.0360 -0.0251
17059TIP3    H172668   5.108   5.530   6.045  0.8038 -0.2499  0.9582
17059TIP3    H272669   5.167   5.391   6.056  2.3874  0.2825 -0.5282
17060TIP3   OH272670   0.929   2.911  16.897 -0.0803 -0.4740  0.3375
17060TIP3    H172671   0.895   2.997  16.871  1.7958  0.0920 -0.3230
17060TIP3    H272672   1.013   2.930  16.940 -0.0298 -1.9155  0.9075
17061TIP3   OH272673   1.682   6.668   3.543 -0.3643 -0.2169  0.2365
17061TIP3    H172674   1.764   6.626   3.516 -1.0965 -1.4742 -0.0917
17061TIP3    H272675   1.649   6.612   3.614 -0.6743  0.5798  0.7229
17062TIP3   OH272676   6.803   1.615  12.455 -0.1144  0.2021  0.2736
17062TIP3    H172677   6.828   1.690  12.403  0.9002 -0.3149  0.0106
17062TIP3    H272678   6.707   1.618  12.457 -0.1252  0.7256 -0.8623
17063TIP3   OH272679   6.168   4.834   2.905  0.2016 -0.2393  0.1884
17063TIP3    H172680   6.239   4.890   2.939  1.3883 -0.6397 -1.5928
17063TIP3    H272681   6.162   4.763   2.969  0.4125  0.5699  1.1220
17064TIP3   OH272682   4.168   3.700  14.859  0.1718 -0.1998 -0.8622
17064TIP3    H172683   4.150   3.733  14.771  0.1733 -0.0334 -0.8004
17064TIP3    H272684   4.263   3.691  14.863  0.4240  2.2309 -0.0250
17065TIP3   OH272685   5.688   3.672  12.408  0.1637  0.2922 -0.4100
17065TIP3    H172686   5.682   3.587  12.451  3.4342  0.9034  1.4484
17065TIP3    H272687   5.651   3.734  12.471  1.3510  0.6953 -0.0892
17066TIP3   OH272688   4.484   2.603   1.509 -0.3018 -0.3512 -0.2733
17066TIP3    H172689   4.543   2.563   1.446 -1.6291 -1.8479 -0.5943
17066TIP3    H272690   4.454   2.683   1.467  0.5743 -0.1783 -0.5828
17067TIP3   OH272691   5.152   1.495  13.689 -0.3756 -0.0388  0.0679
17067TIP3    H172692   5.067   1.537  13.691  0.0756  0.8569  0.8361
17067TIP3    H272693   5.147   1.427  13.757 -0.5850 -0.1976 -0.1083
17068TIP3   OH272694   1.604   4.121   3.408 -0.1385 -0.0862  0.7382
17068TIP3    H172695   1.664   4.142   3.480  2.0608  0.5220 -1.1856
17068TIP3    H272696   1.538   4.065   3.447  1.5083 -0.5188  3.0394
17069TIP3   OH272697   3.052   3.928   0.296 -0.9946 -0.1792 -0.4533
17069TIP3    H172698   2.969   3.951   0.255  0.1323  2.5619 -1.3254
17069TIP3    H272699   3.113   3.919   0.223 -0.2285 -0.8122  0.2598
17070TIP3   OH272700   0.110   5.932   2.786  0.2547 -0.3832  0.4951
17070TIP3    H172701   0.112   6.027   2.800 -0.8859 -0.3534  0.4517
17070TIP3    H272702   0.038   5.901   2.841 -0.3259 -1.0479 -0.6374
17071TIP3   OH272703   3.475   3.770  15.930 -0.3169 -0.0527 -0.4486
17071TIP3    H172704   3.385   3.780  15.899 -0.0748  0.7549 -0.8974
17071TIP3    H272705   3.527   3.825  15.871  0.5529 -1.0045 -0.5953
17072TIP3   OH272706   5.528   4.007   1.885  0.2624 -0.4537 -0.6548
17072TIP3    H172707   5.435   4.029   1.886 -0.3258 -2.8380 -0.7831
17072TIP3    H272708   5.572   4.090   1.904 -1.8913  0.6093 -0.1186
17073TIP3   OH272709   5.658   0.547  12.126  0.4966  0.0416 -0.1487
17073TIP3    H172710   5.643   0.453  12.137  0.8447 -0.2110 -1.8168
17073TIP3    H272711   5.748   0.554  12.094  0.0358  0.8759 -1.2708
17074TIP3   OH272712   0.672   4.078  15.393  0.2835 -0.6185  1.2018
17074TIP3    H172713   0.667   4.053  15.301 -1.0819  2.5230  0.3457
17074TIP3    H272714   0.584   4.063  15.427 -0.0548  1.1175  1.1492
17075TIP3   OH272715   6.625   6.422  11.773  0.1586  0.4546 -0.3237
17075TIP3    H172716   6.669   6.376  11.845  0.9480  1.7247  0.0255
17075TIP3    H272717   6.679   6.405  11.696  1.2807  1.9666  0.0930
17076TIP3   OH272718   4.003   2.551   1.494 -0.7082  0.6421 -0.2928
17076TIP3    H172719   4.017   2.645   1.484 -0.7362  0.6912  0.1086
17076TIP3    H272720   3.991   2.518   1.405  3.0304  0.4204 -0.7980
17077TIP3   OH272721   2.698   3.041  16.921  0.2859 -0.5765  0.2121
17077TIP3    H172722   2.698   3.133  16.948  0.5758 -0.6007  0.2876
17077TIP3    H272723   2.619   3.004  16.962  0.9548 -0.7188  1.3712
17078TIP3   OH272724   2.529   0.028   4.063  0.1695 -0.8174 -0.2938
17078TIP3    H172725   2.597   0.009   3.998  0.2788 -0.0576 -0.4085
17078TIP3    H272726   2.477   0.098   4.024  1.8542  1.5694  1.5257
17079TIP3   OH272727   0.269   1.146  16.699  0.2551 -0.0969  0.0650
17079TIP3    H172728   0.332   1.096  16.752  0.0778  0.8567  1.2093
17079TIP3    H272729   0.219   1.079  16.652  1.1187 -0.9251  0.2894
17080TIP3   OH272730   1.071   1.308  17.150  0.5626  0.2659 -0.2007
17080TIP3    H172731   1.040   1.238  17.209 -1.2320 -0.6396 -2.1516
17080TIP3    H272732   1.018   1.384  17.173  0.2968  0.0846 -0.2074
17081TIP3   OH272733   2.413   3.438  14.196  0.1105  0.6430 -0.0039
17081TIP3    H172734   2.345   3.371  14.201 -0.2638  0.9087 -1.3940
17081TIP3    H272735   2.381   3.509  14.251 -0.4470  0.5082 -0.1496
17082TIP3   OH272736   5.406   1.643   4.804 -0.2051  0.3670  0.2086
17082TIP3    H172737   5.434   1.734   4.793 -1.8987  0.8618 -0.1247
17082TIP3    H272738   5.435   1.599   4.724  0.0345  0.7575  0.0793
17083TIP3   OH272739   5.777   1.485  16.106  0.2237  0.0367  0.6134
17083TIP3    H172740   5.823   1.417  16.056  2.1853  1.3948  0.4853
17083TIP3    H272741   5.745   1.545  16.039  1.5155  1.0399  0.8643
17084TIP3   OH272742   5.421   6.299  13.170  0.0215  0.3586 -0.1253
17084TIP3    H172743   5.372   6.227  13.210  1.3784 -0.2509  0.4983
17084TIP3    H272744   5.497   6.310  13.227  1.1269  0.5927 -1.6080
17085TIP3   OH272745   1.800   5.213   0.969  0.2204  0.3433  0.0759
17085TIP3    H172746   1.776   5.126   0.937 -0.7465  0.9259 -0.8230
17085TIP3    H272747   1.797   5.269   0.891  0.6378  1.2304  0.6802
17086TIP3   OH272748   1.427   6.262   1.722  0.3659  0.2138 -0.1162
17086TIP3    H172749   1.472   6.214   1.792 -0.2531 -1.0491 -0.5707
17086TIP3    H272750   1.413   6.349   1.759 -0.4349 -0.5812  1.5688
17087TIP3   OH272751   6.034   1.688  13.348 -0.0565 -0.1591  0.0826
17087TIP3    H172752   5.988   1.621  13.399 -1.0831 -0.2770 -0.9821
17087TIP3    H272753   6.109   1.711  13.402  0.0184 -1.7898  0.7120
17088TIP3   OH272754   6.229   3.807   0.379  0.1954  0.1739 -0.4034
17088TIP3    H172755   6.199   3.868   0.447  1.0603  0.5344 -0.3454
17088TIP3    H272756   6.320   3.832   0.363 -0.0908  0.2848 -1.9088
17089TIP3   OH272757   6.755   3.813   1.336 -0.1739  0.9758 -0.0897
17089TIP3    H172758   6.736   3.743   1.273 -2.0256  2.1843 -0.9052
17089TIP3    H272759   6.671   3.857   1.348  1.2501  3.8934 -0.5886
17090TIP3   OH272760   1.187   5.578   0.495  0.2522  0.0715 -0.3147
17090TIP3    H172761   1.254   5.515   0.522 -0.9696 -1.0189  0.2424
17090TIP3    H272762   1.122   5.525   0.450  0.0865  1.2260 -1.4359
17091TIP3   OH272763   2.221   0.661   3.288 -0.4817 -0.3769  0.5337
17091TIP3    H172764   2.159   0.591   3.304 -0.4780 -0.8459 -1.3298
17091TIP3    H272765   2.190   0.735   3.340 -1.6094 -1.1553  0.9583
17092TIP3   OH272766   2.321   6.230  15.475  0.6962 -0.3537 -0.2359
17092TIP3    H172767   2.292   6.291  15.408  0.0982 -2.2788 -1.7855
17092TIP3    H272768   2.326   6.282  15.555 -1.1185  1.4087 -1.2242
17093TIP3   OH272769   1.709   4.333   2.819 -0.2796 -0.4233 -1.3845
17093TIP3    H172770   1.766   4.278   2.872 -0.3338 -1.2995 -2.2075
17093TIP3    H272771   1.676   4.274   2.751 -2.4493 -0.0174 -0.7142
17094TIP3   OH272772   4.698   0.434  14.078  0.0217 -0.3376  0.1397
17094TIP3    H172773   4.790   0.420  14.056 -0.2807  0.1009 -1.4635
17094TIP3    H272774   4.689   0.529  14.087 -0.5018 -0.2861 -0.8224
17095TIP3   OH272775   2.851   6.729   3.153  0.6019  0.2535 -0.6425
17095TIP3    H172776   2.778   6.747   3.213  1.1462  0.9960 -0.1972
17095TIP3    H272777   2.812   6.738   3.066  0.1283  0.5371 -0.4078
17096TIP3   OH272778   1.356   2.178  12.628  0.8938 -0.3352 -0.3163
17096TIP3    H172779   1.378   2.203  12.718 -2.2695  1.0384  0.1294
17096TIP3    H272780   1.307   2.097  12.637  1.4177 -0.7101 -0.8694
17097TIP3   OH272781   3.790   5.612  14.027 -0.0796  0.2122  0.0987
17097TIP3    H172782   3.811   5.667  13.951 -0.2009 -1.0797 -0.8740
17097TIP3    H272783   3.695   5.601  14.022 -0.4390  2.1177  1.8266
17098TIP3   OH272784   2.448   2.392  13.599 -0.3975 -0.0713  0.0803
17098TIP3    H172785   2.479   2.478  13.569 -0.0624  0.1342  1.0082
17098TIP3    H272786   2.474   2.388  13.691 -2.5691 -0.1422  0.7188
17099TIP3   OH272787   6.156   1.475   1.921  0.2961  0.0785 -0.0377
17099TIP3    H172788   6.210   1.550   1.944 -0.1910 -0.3053  2.4938
17099TIP3    H272789   6.067   1.503   1.941 -0.2753  0.0324 -2.3712
17100TIP3   OH272790   1.272   2.046   5.498  0.1421  0.0943 -0.2679
17100TIP3    H172791   1.273   1.963   5.451 -1.2994  0.0333 -0.2260
17100TIP3    H272792   1.209   2.100   5.449 -1.2640  0.0812  1.4834
17101TIP3   OH272793   4.349   1.635   4.136 -0.4957  0.0528 -0.2384
17101TIP3    H172794   4.342   1.541   4.123 -0.1301 -0.0254  0.1090
17101TIP3    H272795   4.423   1.662   4.081 -0.5205  0.1143 -0.2429
17102TIP3   OH272796   2.918   4.549   3.459 -0.2784  0.2293 -0.3886
17102TIP3    H172797   2.836   4.592   3.485  0.2588  0.8039  0.3813
17102TIP3    H272798   2.903   4.456   3.478  0.5069  0.7523  3.1946
17103TIP3   OH272799   5.649   2.283   0.076  0.2147 -0.0709 -0.5782
17103TIP3    H172800   5.555   2.268   0.069  0.1949  0.0760 -0.6458
17103TIP3    H272801   5.658   2.378   0.068  0.2663  0.0399  0.6967
17104TIP3   OH272802   2.914   3.927   4.465 -0.1666 -0.0252 -0.4112
17104TIP3    H172803   2.952   3.849   4.506 -0.2116  1.0039  1.6167
17104TIP3    H272804   2.928   3.913   4.371  2.3403 -1.1513  0.0930
17105TIP3   OH272805   5.258   1.158   6.178  0.2970  0.5066 -0.3507
17105TIP3    H172806   5.231   1.072   6.210  1.5288  0.1299 -0.2945
17105TIP3    H272807   5.318   1.139   6.106  0.4150  1.3239 -0.4703
17106TIP3   OH272808   4.971   2.161  11.098 -0.6997 -0.7350 -0.7964
17106TIP3    H172809   4.936   2.231  11.154 -0.4531  0.0705 -1.6281
17106TIP3    H272810   5.066   2.169  11.105 -0.6606 -0.2828 -1.7390
17107TIP3   OH272811   0.275   2.501   0.007 -0.0699  0.1704  0.0726
17107TIP3    H172812   0.328   2.455   0.072  1.3017  0.6207 -0.7143
17107TIP3    H272813   0.312   2.475  -0.077 -1.6351 -0.1554 -0.5335
17108TIP3   OH272814   2.931   1.946   5.548 -0.1365  0.2599  0.2385
17108TIP3    H172815   2.869   1.971   5.480 -0.3757  0.4088  0.5136
17108TIP3    H272816   3.015   1.938   5.502 -0.1793  0.9621  0.0329
17109TIP3   OH272817   0.573   2.550   0.090 -0.3142  0.1450 -0.3816
17109TIP3    H172818   0.542   2.470   0.132  0.2288 -0.1089 -0.4522
17109TIP3    H272819   0.552   2.538  -0.003  2.3952 -1.2426 -0.8880
17110TIP3   OH272820   2.580   0.363  11.827 -0.3763 -0.2181  0.4834
17110TIP3    H172821   2.630   0.399  11.754 -1.2140 -0.8928 -0.4198
17110TIP3    H272822   2.626   0.282  11.850 -0.8630 -0.6798 -0.1490
17111TIP3   OH272823   1.345   5.817   5.902  0.0833 -0.0342 -0.3178
17111TIP3    H172824   1.359   5.868   5.982 -0.8572 -0.0631 -0.1296
17111TIP3    H272825   1.422   5.834   5.849  0.0020  1.1950 -0.0468
17112TIP3   OH272826   1.269   3.022  14.392  0.7018  0.2935  0.3518
17112TIP3    H172827   1.355   2.981  14.398  0.1969 -0.6703  1.2663
17112TIP3    H272828   1.261   3.073  14.473 -0.1044 -0.7005  0.9258
17113TIP3   OH272829   3.641   2.365   3.871  0.0867 -0.2680  0.1930
17113TIP3    H172830   3.605   2.454   3.869  3.0268  0.9830  0.1859
17113TIP3    H272831   3.618   2.328   3.786  0.1137  1.0155 -0.3829
17114TIP3   OH272832   0.427   2.673  10.557  0.1179  0.2083 -0.0588
17114TIP3    H172833   0.386   2.597  10.515  0.1171  0.0061  0.3044
17114TIP3    H272834   0.393   2.672  10.647 -1.1877  1.5959 -0.5148
17115TIP3   OH272835   1.921   3.512  17.149  0.5368 -0.1203  0.6884
17115TIP3    H172836   1.968   3.442  17.194 -1.4778 -2.9372 -1.4116
17115TIP3    H272837   1.944   3.501  17.057 -0.6452  1.2861  0.2085
17116TIP3   OH272838   6.150   1.801  13.965 -0.2059  0.1536 -0.1235
17116TIP3    H172839   6.158   1.837  14.054 -1.8645 -0.4348  0.2873
17116TIP3    H272840   6.236   1.764  13.947  0.7516  1.9904  0.4621
17117TIP3   OH272841   4.768   4.345  16.730 -0.3282 -0.3272  0.3739
17117TIP3    H172842   4.737   4.315  16.645 -0.5847  2.0677 -0.4098
17117TIP3    H272843   4.864   4.347  16.720 -0.3242 -0.5850  0.3395
17118TIP3   OH272844   2.758   0.902   1.558  0.0888 -0.0353 -1.1974
17118TIP3    H172845   2.748   0.867   1.469  1.4389 -3.0814 -0.2424
17118TIP3    H272846   2.811   0.836   1.603  1.5223  2.6411  1.1929
17119TIP3   OH272847   4.464   5.335   1.396 -0.0111  0.0012 -0.0648
17119TIP3    H172848   4.434   5.413   1.349 -0.9101  0.2632  0.9476
17119TIP3    H272849   4.480   5.271   1.327 -0.0281  0.8199 -0.8427
17120TIP3   OH272850   4.229   0.645   1.179  0.6499 -0.2835  0.3815
17120TIP3    H172851   4.153   0.598   1.215  0.2577 -0.8572 -1.1485
17120TIP3    H272852   4.191   0.714   1.125  1.2209 -0.1385  0.1601
17121TIP3   OH272853   3.582   2.096  16.273 -0.1288  0.1550  0.6466
17121TIP3    H172854   3.526   2.162  16.314  0.6992  0.7749  0.7866
17121TIP3    H272855   3.589   2.125  16.182 -3.5224 -2.2405 -0.4762
17122TIP3   OH272856   6.283   3.113   5.470 -0.6201 -0.6544 -0.4476
17122TIP3    H172857   6.371   3.079   5.488 -0.6928 -0.3696  0.4483
17122TIP3    H272858   6.230   3.035   5.455 -0.3522 -0.8510 -0.3703
17123TIP3   OH272859   1.478   4.722  12.524 -0.5492 -0.1871 -0.3300
17123TIP3    H172860   1.449   4.747  12.612 -1.2372  0.7228 -0.7984
17123TIP3    H272861   1.550   4.661  12.538  1.8199  2.7926  0.8796
17124TIP3   OH272862   3.261   4.588   0.735  0.1327  0.3758  0.2952
17124TIP3    H172863   3.342   4.622   0.697  0.3991  2.0129  2.2460
17124TIP3    H272864   3.236   4.516   0.677  1.5701  1.5153 -1.8192
17125TIP3   OH272865   2.628   0.393   4.175  0.4127  0.2753  0.4148
17125TIP3    H172866   2.679   0.460   4.129 -0.8930  0.5582 -0.6730
17125TIP3    H272867   2.538   0.405   4.142  0.3863 -2.8658 -0.8143
17126TIP3   OH272868   3.219   0.386  13.570 -0.0131 -0.0412  0.1055
17126TIP3    H172869   3.181   0.302  13.545  0.2379 -0.2630  0.4646
17126TIP3    H272870   3.164   0.417  13.642 -0.5306  0.4356 -0.4868
17127TIP3   OH272871   3.020   1.544  13.372  0.0708 -0.0937 -1.0297
17127TIP3    H172872   2.945   1.486  13.363  1.6455 -2.2453 -0.5898
17127TIP3    H272873   3.083   1.512  13.308  2.0177 -0.5716  1.0590
17128TIP3   OH272874   1.597   5.486   3.305  0.4075 -0.1639  0.1852
17128TIP3    H172875   1.561   5.528   3.384  1.3496 -0.5104  0.8093
17128TIP3    H272876   1.690   5.506   3.308  0.5432 -0.6778 -0.5469
17129TIP3   OH272877   2.981   0.320  15.214  0.7242  0.5696 -0.7202
17129TIP3    H172878   2.990   0.245  15.155 -0.0253  0.2549 -0.4292
17129TIP3    H272879   3.007   0.395  15.161  2.0602  0.0406 -0.8382
17130TIP3   OH272880   2.114   3.682  14.961 -0.0563 -0.2481 -0.5210
17130TIP3    H172881   2.052   3.668  14.890  1.4689 -1.7060 -1.5956
17130TIP3    H272882   2.177   3.745  14.926  0.7303 -1.0097 -0.4761
17131TIP3   OH272883   4.718   3.640  16.469 -0.4715 -0.7306  0.1440
17131TIP3    H172884   4.715   3.706  16.400  1.0750 -0.7707  0.0096
17131TIP3    H272885   4.811   3.630  16.489 -0.8400 -1.2710  1.7118
17132TIP3   OH272886   5.818   3.597  12.691 -0.2354 -0.3512  0.4696
17132TIP3    H172887   5.914   3.593  12.695 -0.2340 -0.8054  0.1488
17132TIP3    H272888   5.797   3.552  12.609 -0.8216 -1.9259  1.4546
17133TIP3   OH272889   5.985   0.735   3.625  0.2468  0.1926 -0.2364
17133TIP3    H172890   5.944   0.668   3.570  0.3738  0.1959 -0.3351
17133TIP3    H272891   6.069   0.698   3.650 -0.4970 -0.5037  1.3286
17134TIP3   OH272892   5.924   5.862   1.974 -0.4048 -0.3041 -0.1388
17134TIP3    H172893   5.916   5.796   1.905 -1.9536 -1.5038  1.1610
17134TIP3    H272894   6.002   5.835   2.024 -1.0962 -1.2451  0.4539
17135TIP3   OH272895   5.901   0.208   1.157  0.2977  0.0754  0.3884
17135TIP3    H172896   5.888   0.152   1.233  0.3542  0.4128  0.6465
17135TIP3    H272897   5.984   0.252   1.173  0.4904 -0.1271 -0.0417
17136TIP3   OH272898   0.229   0.101   4.363 -0.4864  0.3038 -0.3961
17136TIP3    H172899   0.235   0.005   4.372  1.2952  0.5608  1.6446
17136TIP3    H272900   0.146   0.124   4.405 -0.2445 -0.2105  0.3716
17137TIP3   OH272901   0.469   6.135  16.744 -0.0251 -0.2488 -0.3955
17137TIP3    H172902   0.448   6.228  16.739 -0.0762 -0.2381  0.0146
17137TIP3    H272903   0.565   6.132  16.750 -0.0059 -0.2338 -0.6873
17138TIP3   OH272904   1.452   0.884   3.883 -0.7311  0.4561 -0.0136
17138TIP3    H172905   1.437   0.831   3.962  1.6941  0.1258  0.2709
17138TIP3    H272906   1.402   0.964   3.898  0.9460  1.0681  2.5967
17139TIP3   OH272907   4.441   3.389   2.195 -0.1865  0.0837  0.3782
17139TIP3    H172908   4.412   3.348   2.114  2.0308  0.0703 -0.4485
17139TIP3    H272909   4.480   3.317   2.246  1.0166  0.5987  0.2041
17140TIP3   OH272910   6.722   2.268   1.253 -0.2758 -0.1344  0.1351
17140TIP3    H172911   6.635   2.306   1.257 -1.0031 -1.6443 -0.6256
17140TIP3    H272912   6.743   2.244   1.344 -1.1855 -0.9020  0.1476
17141TIP3   OH272913   4.502   5.586  15.169 -0.4129  0.4679 -0.2908
17141TIP3    H172914   4.426   5.542  15.130 -0.9608  0.2829  0.9516
17141TIP3    H272915   4.575   5.527  15.152 -0.8768 -0.2221  0.0828
17142TIP3   OH272916   5.729   1.939   4.734  0.2912 -0.1857  0.1233
17142TIP3    H172917   5.710   1.880   4.807  1.0681  0.4636  0.8711
17142TIP3    H272918   5.678   2.018   4.753 -0.4238 -0.4554 -0.6548
17143TIP3   OH272919   5.363   3.150   2.222 -0.4058  0.1205  0.5069
17143TIP3    H172920   5.408   3.078   2.178  1.1047  1.0089  0.5610
17143TIP3    H272921   5.360   3.220   2.156 -1.0334  0.3241  0.7550
17144TIP3   OH272922   1.828   2.406  12.188 -0.1011 -0.1484 -0.8711
17144TIP3    H172923   1.800   2.371  12.272  0.3441  0.8191 -0.3164
17144TIP3    H272924   1.876   2.485  12.209  0.8189 -0.3929 -1.9817
17145TIP3   OH272925   1.088   2.933  11.982  0.2434  0.2563  0.5764
17145TIP3    H172926   1.177   2.898  11.989  0.2596  0.0513 -0.6250
17145TIP3    H272927   1.061   2.913  11.892 -0.1953  2.2701  0.2417
17146TIP3   OH272928   0.056   1.995   3.981  0.0285 -0.3463 -0.0678
17146TIP3    H172929   0.120   2.028   4.044 -0.2856 -0.1505  0.1517
17146TIP3    H272930   0.072   1.901   3.978  0.8047 -0.2026 -0.5558
17147TIP3   OH272931   4.693   5.690   6.069 -0.0424  0.0655 -0.0231
17147TIP3    H172932   4.604   5.708   6.037  0.5947 -0.3742 -2.1371
17147TIP3    H272933   4.741   5.663   5.991  1.5339 -1.3097  1.3899
17148TIP3   OH272934   1.010   4.905  16.517  0.0063 -0.5159  0.2481
17148TIP3    H172935   0.942   4.939  16.458 -0.4384 -1.0878  0.4192
17148TIP3    H272936   0.983   4.934  16.604 -0.4021 -1.3330  0.3991
17149TIP3   OH272937   1.842   2.489  12.872 -0.0550 -0.9943 -0.4318
17149TIP3    H172938   1.773   2.426  12.893  0.0145 -0.9327 -0.0074
17149TIP3    H272939   1.876   2.516  12.958  0.2684 -0.7747 -0.6296
17150TIP3   OH272940   0.430   2.506  13.319  0.0562  0.6525 -0.4233
17150TIP3    H172941   0.347   2.550  13.337 -0.1653 -0.6294  1.8178
17150TIP3    H272942   0.406   2.426  13.274 -0.1222 -0.7210  2.0362
17151TIP3   OH272943   2.549   6.250   4.702  0.2506 -0.3472 -0.1075
17151TIP3    H172944   2.514   6.242   4.790 -0.3745 -0.7106 -0.3856
17151TIP3    H272945   2.477   6.223   4.645  0.9494 -1.0008 -0.6875
17152TIP3   OH272946   4.326   2.370   0.995 -0.2422 -0.3098  0.1740
17152TIP3    H172947   4.358   2.454   1.029  1.7858 -1.3000  0.8046
17152TIP3    H272948   4.355   2.368   0.904 -0.0512 -0.4564  0.2389
17153TIP3   OH272949   4.535   6.265   0.581  0.1801  0.3767  0.2199
17153TIP3    H172950   4.442   6.281   0.591  0.2066  1.6941 -1.6095
17153TIP3    H272951   4.542   6.170   0.568 -0.5986 -0.1824  3.4110
17154TIP3   OH272952   0.841   5.237   1.569  0.2315  0.0242  0.2404
17154TIP3    H172953   0.803   5.293   1.637  2.6806 -0.6820  2.2847
17154TIP3    H272954   0.767   5.212   1.514 -1.2202  3.7630  0.3084
17155TIP3   OH272955   2.534   1.405  16.592  0.0726  0.2064 -0.3852
17155TIP3    H172956   2.526   1.406  16.496  0.1777 -0.7810 -0.4139
17155TIP3    H272957   2.457   1.357  16.622 -0.0331  0.6389  0.0355
17156TIP3   OH272958   6.168   5.911  11.899  0.3289 -0.5259 -0.2341
17156TIP3    H172959   6.210   5.835  11.939 -0.4444 -0.0565  1.5081
17156TIP3    H272960   6.172   5.979  11.966 -1.4083  0.1442 -0.7890
17157TIP3   OH272961   4.665   2.840  16.317  0.2884 -0.1769  0.0971
17157TIP3    H172962   4.688   2.929  16.293 -2.2473  0.6994  0.7526
17157TIP3    H272963   4.673   2.838  16.413  0.1889 -0.5947  0.0976
17158TIP3   OH272964   2.059   5.384   5.345  0.7195  0.0950 -0.2973
17158TIP3    H172965   2.063   5.403   5.252  0.3272 -0.4966 -0.4412
17158TIP3    H272966   2.124   5.442   5.385 -0.5309  1.8091 -0.7014
17159TIP3   OH272967   1.424   5.638  12.102  0.2061 -0.2576 -0.7857
17159TIP3    H172968   1.365   5.699  12.058  2.0321  0.8651 -1.7257
17159TIP3    H272969   1.484   5.695  12.151  0.5769 -1.3772  0.0691
17160TIP3   OH272970   1.309   1.734  15.910 -0.1527  0.4617 -0.2646
17160TIP3    H172971   1.245   1.663  15.918 -1.1951  1.4106 -0.0772
17160TIP3    H272972   1.258   1.809  15.878  0.5729  1.6266  1.2341
17161TIP3   OH272973   6.342   1.501   2.542 -0.2055  0.0197  0.3449
17161TIP3    H172974   6.364   1.578   2.490 -3.2382 -0.7681 -2.2351
17161TIP3    H272975   6.387   1.429   2.498 -1.7367 -0.4503 -0.5037
17162TIP3   OH272976   6.603   2.193  16.936 -0.0660 -0.0701  0.2955
17162TIP3    H172977   6.562   2.163  16.855  0.6508  1.8078 -0.7764
17162TIP3    H272978   6.626   2.112  16.982  1.2970 -1.1985 -2.2675
17163TIP3   OH272979   1.842   2.269   1.387  0.6189  0.9267 -0.8304
17163TIP3    H172980   1.862   2.343   1.443  1.8967 -0.6256  0.7958
17163TIP3    H272981   1.775   2.220   1.435  3.2426 -1.5588  0.3860
17164TIP3   OH272982   1.529   3.802   5.170 -0.4147 -0.0809 -0.3128
17164TIP3    H172983   1.441   3.776   5.197 -0.4452  0.0937 -0.2392
17164TIP3    H272984   1.551   3.874   5.229 -0.2107 -0.1440 -0.3132
17165TIP3   OH272985   2.008   5.696   5.086 -0.4993 -0.2594 -0.3158
17165TIP3    H172986   2.036   5.610   5.055 -1.4181 -0.6951  0.0468
17165TIP3    H272987   2.076   5.722   5.148 -1.1868 -1.5816  1.0310
17166TIP3   OH272988   3.598   6.448   2.825 -0.0184  0.7476  0.2405
17166TIP3    H172989   3.537   6.479   2.758 -0.9371 -0.3479  0.5563
17166TIP3    H272990   3.685   6.460   2.785 -0.6057 -1.4842 -1.8754
17167TIP3   OH272991   6.284   6.813  11.429 -0.0610 -0.7118 -0.2034
17167TIP3    H172992   6.188   6.818  11.422  0.0336  1.1799 -0.2302
17167TIP3    H272993   6.312   6.784  11.342 -0.7554 -4.0753  0.5864
17168TIP3   OH272994   6.327   5.176  12.097  0.1459  0.4477  0.3760
17168TIP3    H172995   6.368   5.213  12.175 -0.0544 -0.0468  0.7198
17168TIP3    H272996   6.233   5.180  12.116  0.1091  0.0507  0.2890
17169TIP3   OH272997   4.932   4.223   0.843 -0.2363 -0.1757 -0.1897
17169TIP3    H172998   4.848   4.262   0.868 -1.1949 -2.8594  0.9848
17169TIP3    H272999   4.917   4.186   0.756  0.0285  0.2760 -0.4232
17170TIP3   OH273000   2.063   1.183  12.280 -0.0829  0.0215 -0.0218
17170TIP3    H173001   1.989   1.196  12.221 -0.5999  1.6913  0.9680
17170TIP3    H273002   2.140   1.188  12.223 -0.5973  1.0625 -0.6459
17171TIP3   OH273003   0.383   1.419   0.455  0.1163 -0.1028  0.2517
17171TIP3    H173004   0.293   1.387   0.448 -0.0097  0.0925  0.9614
17171TIP3    H273005   0.409   1.400   0.545  0.4870  0.6351  0.3043
17172TIP3   OH273006   3.304   6.369  13.455  0.4509  0.0535  0.4329
17172TIP3    H173007   3.218   6.404  13.479 -0.3379 -0.9317 -0.9298
17172TIP3    H273008   3.365   6.413  13.515 -1.2809 -1.1791  3.1986
17173TIP3   OH273009   4.259   2.221   1.487 -0.4954  0.0946  0.0246
17173TIP3    H173010   4.246   2.224   1.392  2.4253  1.3960 -0.3883
17173TIP3    H273011   4.348   2.254   1.500 -0.1682 -1.8236  3.0826
17174TIP3   OH273012   3.374   4.995   0.521 -0.0808 -0.0396  0.0681
17174TIP3    H173013   3.293   4.945   0.526 -0.7696  1.1081  0.7212
17174TIP3    H273014   3.442   4.934   0.551 -0.5922 -1.2204 -1.1387
17175TIP3   OH273015   3.760   6.072  15.045  0.5588 -0.8191 -0.0190
17175TIP3    H173016   3.718   6.146  15.089  1.5752 -0.8769  1.0544
17175TIP3    H273017   3.781   6.011  15.116  0.9663 -1.5303 -0.7462
17176TIP3   OH273018   3.126   0.613  11.902 -0.6727  0.2673  0.4899
17176TIP3    H173019   3.061   0.636  11.969 -1.7686  0.4922 -0.6297
17176TIP3    H273020   3.210   0.640  11.940 -1.3631  1.1220  1.4528
17177TIP3   OH273021   3.698   6.173  11.380  0.8276  0.6953 -0.0549
17177TIP3    H173022   3.605   6.185  11.396  0.2769 -2.3930 -0.6381
17177TIP3    H273023   3.739   6.181  11.466 -0.0497  1.4958  0.2920
17178TIP3   OH273024   5.246   4.062   1.891  0.0081 -0.1316  0.5823
17178TIP3    H173025   5.260   4.012   1.972 -0.5470  1.0822  1.4433
17178TIP3    H273026   5.155   4.092   1.897 -0.4563 -1.1519 -1.1376
17179TIP3   OH273027   5.698   5.172   1.975  0.0868 -0.7575  0.6464
17179TIP3    H173028   5.767   5.202   2.035  0.2298 -0.8871  0.5479
17179TIP3    H273029   5.630   5.137   2.034 -0.0617 -0.2884  0.7575
17180TIP3   OH273030   5.425   6.431   4.030  0.4837  0.3628 -0.7713
17180TIP3    H173031   5.513   6.465   4.049  1.8282 -1.4449 -3.3563
17180TIP3    H273032   5.421   6.349   4.078 -1.1423  2.0077  2.0441
17181TIP3   OH273033   3.378   6.697  15.459  0.5111 -0.3595 -0.4214
17181TIP3    H173034   3.312   6.715  15.526  0.2994  0.8002 -0.9320
17181TIP3    H273035   3.451   6.754  15.483 -0.2005  1.2965 -2.1215
17182TIP3   OH273036   4.021   5.944  14.800  0.5819  0.4918 -0.3616
17182TIP3    H173037   4.042   5.949  14.706 -2.0099 -2.4026 -1.1852
17182TIP3    H273038   3.992   6.033  14.822  0.5511  1.0516 -2.4821
17183TIP3   OH273039   1.338   1.428  12.842 -0.2956  0.0827 -0.5276
17183TIP3    H173040   1.367   1.414  12.933 -0.9737 -0.4850 -0.3876
17183TIP3    H273041   1.405   1.483  12.803 -0.8499  1.7403  0.8097
17184TIP3   OH273042   5.070   2.890   5.501 -0.0814 -0.3493  0.3673
17184TIP3    H173043   5.020   2.860   5.576 -0.7786 -0.0793  0.0239
17184TIP3    H273044   5.018   2.963   5.466  0.0540 -0.6983 -0.5767
17185TIP3   OH273045   1.816   0.398  16.931  0.1105  0.5687  0.0438
17185TIP3    H173046   1.798   0.305  16.917 -0.0273  0.2091  2.4456
17185TIP3    H273047   1.739   0.442  16.894 -0.5109 -0.3577  0.1927
17186TIP3   OH273048   5.839   2.848   1.416 -0.4820 -0.4226  0.2553
17186TIP3    H173049   5.789   2.877   1.340 -0.2042 -0.4517  0.0589
17186TIP3    H273050   5.843   2.753   1.408 -0.9663 -0.4724  0.6302
17187TIP3   OH273051   1.253   0.073  14.278  0.1835  0.0165 -0.4329
17187TIP3    H173052   1.198  -0.005  14.280 -0.8646  0.7170 -1.2694
17187TIP3    H273053   1.336   0.043  14.240 -0.0137 -0.7997 -0.2313
17188TIP3   OH273054   6.013   4.835  13.117  0.4357  0.1819  0.0204
17188TIP3    H173055   5.984   4.746  13.137 -0.3656  0.3462 -0.4202
17188TIP3    H273056   6.076   4.855  13.187 -0.2858 -0.2750  0.8166
17189TIP3   OH273057   0.212   2.025   1.373 -0.0982  0.3141  0.1655
17189TIP3    H173058   0.226   2.063   1.460  1.4516  0.1719 -0.0112
17189TIP3    H273059   0.225   1.931   1.386 -1.3593  0.1136  0.0703
17190TIP3   OH273060   4.761   3.386  17.069  0.4758  0.1168  0.1767
17190TIP3    H173061   4.752   3.293  17.047  0.0110  0.2184 -0.0639
17190TIP3    H273062   4.672   3.414  17.090  0.7759  0.2372  1.3198
17191TIP3   OH273063   4.767   5.904   2.713  0.0672  0.3983 -0.3508
17191TIP3    H173064   4.694   5.844   2.729  0.3811 -0.1043 -0.7874
17191TIP3    H273065   4.726   5.989   2.701 -0.4880  0.0206 -1.1192
17192TIP3   OH273066   0.459   4.286  17.016 -0.7511  0.2717 -0.4313
17192TIP3    H173067   0.460   4.197  17.049  1.5037  0.3009 -0.3418
17192TIP3    H273068   0.452   4.341  17.095  0.3758  0.2368 -0.3073
17193TIP3   OH273069   0.068   4.616  12.602 -0.2834  0.2897  0.1458
17193TIP3    H173070   0.120   4.660  12.535 -0.3953  0.6123  0.2697
17193TIP3    H273071   0.054   4.528  12.568  0.3627  0.1955  0.1152
17194TIP3   OH273072   2.538   4.993  15.862 -0.3040  0.2514  0.0139
17194TIP3    H173073   2.613   5.000  15.921 -0.4121  0.3467  0.1384
17194TIP3    H273074   2.575   5.012  15.775 -0.1146 -0.0453  0.0283
17195TIP3   OH273075   0.619   4.106   4.173 -0.1180 -0.6210  0.4564
17195TIP3    H173076   0.625   4.012   4.161 -0.7690 -0.4518 -1.2147
17195TIP3    H273077   0.612   4.142   4.085  0.3076  1.0077  1.0634
17196TIP3   OH273078   5.437   0.915   1.478  0.2375 -0.0388  0.5426
17196TIP3    H173079   5.347   0.939   1.501  0.3570  1.3052 -0.3133
17196TIP3    H273080   5.481   0.999   1.464  1.8780 -0.6581  1.8631
17197TIP3   OH273081   5.394   0.000  12.171  0.1052 -0.2033  0.2971
17197TIP3    H173082   5.315   0.019  12.121  1.0229 -0.3499 -1.2128
17197TIP3    H273083   5.367   0.014  12.262 -2.0375 -1.5938 -0.0739
17198TIP3   OH273084   2.563   5.682   3.066  0.3804 -0.5912  0.3199
17198TIP3    H173085   2.626   5.754   3.074 -0.8501  0.6578 -1.0952
17198TIP3    H273086   2.504   5.709   2.996  0.4514 -3.3852 -0.9100
17199TIP3   OH273087   3.477   3.021  14.890  0.8742 -0.2915  0.2819
17199TIP3    H173088   3.463   3.113  14.915 -0.7710 -0.5737  0.4301
17199TIP3    H273089   3.424   3.010  14.811  0.0553 -1.4563  0.9835
17200TIP3   OH273090   2.309   5.000   2.082 -0.2032  0.3156  0.3848
17200TIP3    H173091   2.375   5.040   2.139 -0.9170  0.5251  1.0661
17200TIP3    H273092   2.231   4.992   2.137 -0.8244  0.2943 -0.4905
17201TIP3   OH273093   5.470   3.467   6.211 -0.3178 -0.1150  0.5845
17201TIP3    H173094   5.497   3.386   6.167 -0.4109 -0.7751  1.7455
17201TIP3    H273095   5.424   3.438   6.289 -1.0010  1.0601  0.6266
17202TIP3   OH273096   0.020   2.424   4.195 -0.0993 -0.7635  0.0566
17202TIP3    H173097   0.034   2.345   4.248  0.0269 -2.0291 -1.8201
17202TIP3    H273098   0.069   2.407   4.114  0.0611  1.3191 -0.2921
17203TIP3   OH273099   0.329   4.716  13.147 -0.2150 -0.2524 -0.4837
17203TIP3    H173100   0.279   4.654  13.094  0.3842 -0.4821 -0.7769
17203TIP3    H273101   0.327   4.679  13.236 -0.1880 -0.4872 -0.5823
17204TIP3   OH273102   5.740   0.478  16.984  0.3488  0.1191  0.0815
17204TIP3    H173103   5.695   0.522  17.056 -0.1935 -1.2647  0.6126
17204TIP3    H273104   5.823   0.448  17.021 -0.1283 -0.9913  0.2614
17205TIP3   OH273105   2.487   6.624  15.177  0.6685 -0.0756 -0.1014
17205TIP3    H173106   2.518   6.557  15.238 -0.7712  0.7934  1.6364
17205TIP3    H273107   2.425   6.676  15.228 -0.9524  0.3871 -2.4658
17206TIP3   OH273108   0.803   3.823  15.510 -0.1559 -0.1541  0.5582
17206TIP3    H173109   0.825   3.789  15.597 -0.4461  1.6271  1.3469
17206TIP3    H273110   0.784   3.916  15.524 -0.4574  0.1052 -1.3722
17207TIP3   OH273111   2.665   5.777  13.498  0.0193  0.4139 -0.1966
17207TIP3    H173112   2.644   5.793  13.406 -0.2898  0.7900 -0.0624
17207TIP3    H273113   2.739   5.717  13.496  0.1178  0.5526 -0.6930
17208TIP3   OH273114   3.477   5.941  13.418  0.3933 -0.3290 -0.1509
17208TIP3    H173115   3.413   5.963  13.486  1.0940  1.7534 -0.1284
17208TIP3    H273116   3.562   5.948  13.461  0.7240 -1.6821 -0.5526
17209TIP3   OH273117   2.161   4.933  12.729 -0.2522 -0.7839  0.5036
17209TIP3    H173118   2.243   4.936  12.680 -1.1397  1.6286 -0.9421
17209TIP3    H273119   2.105   4.872  12.680 -0.5350  0.2949 -0.5294
17210TIP3   OH273120   5.067   4.766  15.071  0.0122  0.6077 -0.2772
17210TIP3    H173121   5.041   4.750  14.980  0.1612  0.0964 -0.2302
17210TIP3    H273122   5.162   4.782  15.066  0.1011  0.1246 -0.1560
17211TIP3   OH273123   4.818   6.555   6.055  0.0283 -0.3009 -0.0719
17211TIP3    H173124   4.851   6.637   6.093  0.8174  0.5285 -2.4479
17211TIP3    H273125   4.851   6.487   6.112  1.7262  0.8665  0.3684
17212TIP3   OH273126   5.501   1.290  15.576 -0.2311 -0.4305  0.1163
17212TIP3    H173127   5.552   1.240  15.512  1.8742 -0.6887  1.9119
17212TIP3    H273128   5.471   1.224  15.639 -2.7253 -0.2561 -0.8254
17213TIP3   OH273129   6.709   6.400   5.992  0.2731  0.1917  0.6092
17213TIP3    H173130   6.640   6.465   6.006  1.2359  1.6882 -1.2319
17213TIP3    H273131   6.728   6.406   5.898  1.9641 -1.1471  0.8465
17214TIP3   OH273132   3.771   0.040  13.230 -0.3131 -0.0822  0.8564
17214TIP3    H173133   3.707   0.001  13.171 -1.4834  1.0690  1.3488
17214TIP3    H273134   3.805   0.116  13.182 -1.1200  0.7408  1.5595
17215TIP3   OH273135   0.676   5.260  15.522 -0.2159  0.5203  0.4638
17215TIP3    H173136   0.650   5.351  15.504  1.4744  0.8561 -0.3464
17215TIP3    H273137   0.640   5.211  15.448  3.3256  1.3297 -1.9092
17216TIP3   OH273138   4.813   3.198   4.566 -0.3792  0.5007  0.2068
17216TIP3    H173139   4.742   3.157   4.518 -1.5350  0.5815  1.8288
17216TIP3    H273140   4.775   3.223   4.650  1.3409  1.2908  0.7836
17217TIP3   OH273141   5.674   6.361   0.039  0.5721  0.7204 -0.3044
17217TIP3    H173142   5.701   6.442   0.083 -2.4439  2.8004 -2.1144
17217TIP3    H273143   5.581   6.353   0.059  0.8751 -2.5076  0.0521
17218TIP3   OH273144   5.015   4.639   0.326 -0.2061  0.6853  0.0927
17218TIP3    H173145   5.054   4.726   0.324 -0.1338  0.6502 -0.0797
17218TIP3    H273146   4.929   4.651   0.366  0.4848  0.5522  1.6370
17219TIP3   OH273147   3.711   3.878   3.346  0.5465  0.1186  0.3337
17219TIP3    H173148   3.741   3.963   3.378 -0.2187  0.2695  0.6711
17219TIP3    H273149   3.622   3.895   3.313  0.3018 -0.5940  0.6114
17220TIP3   OH273150   0.402   5.474  14.628 -0.5131  0.6254  0.7397
17220TIP3    H173151   0.418   5.447  14.538 -1.3669 -0.2007  0.8272
17220TIP3    H273152   0.399   5.570  14.624  1.4316  0.6720  0.2497
17221TIP3   OH273153   4.505   4.194  15.359 -0.7023  0.1729 -0.8259
17221TIP3    H173154   4.417   4.159  15.371 -0.4195 -0.6052 -0.9867
17221TIP3    H273155   4.552   4.171  15.440 -0.8243  1.1393 -0.4728
17222TIP3   OH273156   0.836   6.583   0.821 -0.0148 -0.0348  0.2268
17222TIP3    H173157   0.782   6.521   0.869 -1.4652  1.7877  0.9983
17222TIP3    H273158   0.816   6.566   0.729 -1.3176  0.1177  0.4795
17223TIP3   OH273159   1.579   1.834  15.614  0.0299  0.1724 -0.1427
17223TIP3    H173160   1.542   1.777  15.681 -1.2033 -0.8078 -1.6222
17223TIP3    H273161   1.619   1.774  15.550  0.4178  1.0449 -0.7389
17224TIP3   OH273162   2.844   4.141   1.047  0.0895 -0.3460  0.3871
17224TIP3    H173163   2.874   4.101   0.965 -1.0973  2.5347 -1.5416
17224TIP3    H273164   2.922   4.184   1.082  0.0207  0.6835 -0.6702
17225TIP3   OH273165   2.036   3.535   5.726  0.6610 -0.1653  0.1305
17225TIP3    H173166   2.082   3.579   5.798  2.9298 -0.9918 -0.7903
17225TIP3    H273167   2.014   3.448   5.761  0.6554 -0.1248  0.2280
17226TIP3   OH273168   4.423   4.425   0.826  0.3054  0.3708  0.0093
17226TIP3    H173169   4.432   4.346   0.878 -2.2123 -1.2370 -1.8775
17226TIP3    H273170   4.485   4.415   0.755  1.4613  1.0819  0.9026
17227TIP3   OH273171   3.885   6.453  11.352 -0.2799  0.3165 -0.2340
17227TIP3    H173172   3.820   6.462  11.421 -1.5965  1.3218 -1.5793
17227TIP3    H273173   3.967   6.435  11.398 -0.9915  1.6747  1.6185
17228TIP3   OH273174   6.066   3.159  14.320 -0.0926 -0.9871 -0.1006
17228TIP3    H173175   6.018   3.135  14.399  0.9485 -0.6550  0.6494
17228TIP3    H273176   6.130   3.088  14.308 -0.8987 -1.5392 -1.2148
17229TIP3   OH273177   1.330   2.198   4.219  0.0745 -0.2330 -0.2387
17229TIP3    H173178   1.391   2.186   4.292  0.0727 -2.9119 -0.6355
17229TIP3    H273179   1.249   2.158   4.249 -0.1223 -0.7582 -1.4598
17230TIP3   OH273180   1.400   1.326   3.775  0.4966 -0.4076  0.3618
17230TIP3    H173181   1.347   1.405   3.765 -1.6159 -1.6111  1.7417
17230TIP3    H273182   1.426   1.325   3.867  0.6034 -1.2656  0.3305
17231TIP3   OH273183   3.435   0.221  12.176 -0.3838  0.1409 -0.5073
17231TIP3    H173184   3.340   0.210  12.172 -0.2873 -1.7005  1.6375
17231TIP3    H273185   3.447   0.315  12.188 -2.0247  0.1505  1.3823
17232TIP3   OH273186   3.064   4.629  14.328  0.3022 -0.1935 -0.5235
17232TIP3    H173187   3.097   4.704  14.278  2.1579 -1.2688 -0.9718
17232TIP3    H273188   3.103   4.639  14.414  1.3433 -1.1547 -0.8755
17233TIP3   OH273189   6.761   5.798   2.981  0.2864 -0.0945  0.0120
17233TIP3    H173190   6.674   5.837   2.988  0.1381 -0.4989  0.4181
17233TIP3    H273191   6.754   5.715   3.027  1.8174  1.4227  3.1712
17234TIP3   OH273192   1.278   0.515   3.538  0.6383 -0.1399  0.1417
17234TIP3    H173193   1.302   0.471   3.619 -1.1717 -2.3879 -0.4685
17234TIP3    H273194   1.349   0.577   3.521  2.3057 -1.4837  2.0700
17235TIP3   OH273195   4.461   1.293   5.358  0.0992 -0.8593  0.0510
17235TIP3    H173196   4.451   1.198   5.371  2.1095 -1.1440 -0.2923
17235TIP3    H273197   4.551   1.303   5.327  0.0090  1.2046  0.4218
17236TIP3   OH273198   1.472   2.019   4.071  0.1595 -0.4579 -0.2230
17236TIP3    H173199   1.495   1.931   4.102 -0.6244 -1.2156 -1.7139
17236TIP3    H273200   1.399   2.046   4.126  1.7319  0.1601  1.6381
17237TIP3   OH273201   6.646   4.351  11.578  0.1573 -0.2221 -0.7143
17237TIP3    H173202   6.559   4.350  11.618  1.2441 -0.6696  1.6942
17237TIP3    H273203   6.683   4.436  11.603  1.0142 -0.6917 -0.3665
17238TIP3   OH273204   0.065   5.793  15.463 -0.2765  0.2759  0.0994
17238TIP3    H173205   0.060   5.770  15.371 -0.8411 -0.1668  0.2366
17238TIP3    H273206   0.150   5.760  15.492  0.7049  2.0405 -0.6937
17239TIP3   OH273207   4.547   2.914   0.411  0.3985 -0.3354  0.1922
17239TIP3    H173208   4.593   2.978   0.466  1.3909 -0.0781 -0.9155
17239TIP3    H273209   4.455   2.938   0.420  0.7442  1.2158 -0.1451
17240TIP3   OH273210   1.583   5.964   4.143 -0.0629 -0.3296 -0.3269
17240TIP3    H173211   1.629   6.032   4.094  1.1441 -0.9422 -0.0689
17240TIP3    H273212   1.491   5.989   4.139  0.3789  1.3562 -0.1693
17241TIP3   OH273213   1.131   2.990   5.165 -0.3456 -0.0288  0.2521
17241TIP3    H173214   1.126   2.906   5.209  0.4244  0.4138  1.2072
17241TIP3    H273215   1.063   2.986   5.098 -1.2059 -0.8994  1.1498
17242TIP3   OH273216   5.224   0.233  16.119  0.4024 -0.2847 -0.0147
17242TIP3    H173217   5.249   0.296  16.187 -0.5769  0.8414 -0.6663
17242TIP3    H273218   5.180   0.162  16.167 -0.8286  0.7928  0.4989
17243TIP3   OH273219   4.701   3.161   0.467  0.1134  0.7887  0.3528
17243TIP3    H173220   4.697   3.128   0.378 -0.3392  1.4363  0.1232
17243TIP3    H273221   4.790   3.140   0.497  0.1105  0.1542 -0.0814
17244TIP3   OH273222   0.656   0.375  11.935  0.5476  0.6512  0.0683
17244TIP3    H173223   0.641   0.468  11.954  0.3666  0.4460  0.9462
17244TIP3    H273224   0.670   0.372  11.841  0.2503  1.5336 -0.0074
17245TIP3   OH273225   2.737   6.229   1.545 -0.0068 -0.3306 -0.2024
17245TIP3    H173226   2.668   6.180   1.500 -0.4858  0.4542 -0.3382
17245TIP3    H273227   2.735   6.315   1.504 -0.5887  0.4702  1.4410
17246TIP3   OH273228   0.677   4.500   5.349  0.0061  0.0783 -0.8006
17246TIP3    H173229   0.690   4.409   5.373  1.3407 -0.2401 -2.6462
17246TIP3    H273230   0.602   4.499   5.289 -0.3566  0.2634 -0.3480
17247TIP3   OH273231   6.690   5.306   3.187  0.1175 -0.2930 -0.2529
17247TIP3    H173232   6.769   5.253   3.178  1.5532  1.7836 -0.1141
17247TIP3    H273233   6.689   5.332   3.279  1.2713  2.6999 -1.0426
17248TIP3   OH273234   5.699   6.375  14.596  0.2620  0.0838 -0.3141
17248TIP3    H173235   5.674   6.439  14.530 -0.7865  1.8771  1.7785
17248TIP3    H273236   5.793   6.362  14.583  0.1182  0.6213 -1.9534
17249TIP3   OH273237   1.945   2.630  12.288 -0.1479 -0.2497 -0.0699
17249TIP3    H173238   1.905   2.715  12.267  0.6677  0.1520 -0.0076
17249TIP3    H273239   2.031   2.634  12.248 -0.2992 -1.2599 -0.5094
17250TIP3   OH273240   4.734   4.994   3.933  0.3067 -0.6456 -0.7668
17250TIP3    H173241   4.675   5.048   3.881 -0.4689 -0.1920  0.5756
17250TIP3    H273242   4.677   4.944   3.991  1.2513  0.0562  0.7941
17251TIP3   OH273243   6.384   1.167   0.426 -0.5560  0.3433  0.5743
17251TIP3    H173244   6.369   1.103   0.496  1.0375  0.7084  1.2794
17251TIP3    H273245   6.438   1.121   0.363 -1.5163  0.2002 -0.1585
17252TIP3   OH273246   1.966   3.920  16.013 -0.1972 -0.2769  0.5475
17252TIP3    H173247   1.980   3.959  16.100  0.2432 -1.2206  0.9146
17252TIP3    H273248   1.877   3.944  15.990 -0.0520  0.6397  0.9215
17253TIP3   OH273249   6.434   3.523  14.673  0.0339 -0.1927  0.2674
17253TIP3    H173250   6.509   3.521  14.733  0.0203  1.7910  0.4054
17253TIP3    H273251   6.389   3.605  14.694 -2.4612 -1.5732  0.4974
17254TIP3   OH273252   5.276   3.672  16.391  0.2836 -0.0746  0.3276
17254TIP3    H173253   5.320   3.594  16.427  2.9728  0.3194 -1.9350
17254TIP3    H273254   5.233   3.640  16.312 -0.6130  0.2665  0.6787
17255TIP3   OH273255   5.956   3.431  13.585 -0.1056  0.8610  0.2559
17255TIP3    H173256   5.913   3.455  13.667 -2.9799  0.3761 -1.0514
17255TIP3    H273257   6.049   3.428  13.607 -0.3877  4.7304  2.5241
17256TIP3   OH273258   1.112   0.923   4.535 -0.4253 -0.5542  0.9244
17256TIP3    H173259   1.163   0.979   4.594 -0.9523  0.6994  0.2155
17256TIP3    H273260   1.025   0.963   4.533  0.4050  1.4159 -3.1818
17257TIP3   OH273261   4.522   2.469  13.089 -0.4392  0.4701  0.5113
17257TIP3    H173262   4.461   2.499  13.022 -1.8539 -1.2990  0.9701
17257TIP3    H273263   4.468   2.457  13.167  0.5260 -0.8884  0.9906
17258TIP3   OH273264   0.183   3.254  12.892  0.2715 -0.7453  0.1447
17258TIP3    H173265   0.252   3.310  12.926 -2.2271  1.9905  0.9049
17258TIP3    H273266   0.166   3.287  12.804 -0.3950 -1.0828  0.1374
17259TIP3   OH273267   6.631   3.654   0.857 -0.2146  0.5323  0.2722
17259TIP3    H173268   6.715   3.630   0.896  0.5758  1.6502 -0.7066
17259TIP3    H273269   6.652   3.668   0.764 -1.4002  1.2748  0.1176
17260TIP3   OH273270   1.974   2.533   4.964  0.5413 -0.2395 -0.1236
17260TIP3    H173271   1.935   2.610   4.923  0.6463  0.0116  0.2391
17260TIP3    H273272   2.048   2.568   5.014  2.5104 -0.9674 -2.4487
17261TIP3   OH273273   1.581   2.958   3.844  0.0232  0.2329 -0.0535
17261TIP3    H173274   1.554   2.870   3.873  2.0474  0.1334  1.6506
17261TIP3    H273275   1.510   3.015   3.875 -0.3435 -0.5470  0.6011
17262TIP3   OH273276   3.480   1.716   0.786  0.6729 -0.0090 -0.4763
17262TIP3    H173277   3.473   1.795   0.732 -0.5517 -0.2825 -0.7329
17262TIP3    H273278   3.426   1.735   0.863  0.9423 -0.3391 -0.2027
17263TIP3   OH273279   6.550   4.444  15.147  0.1562  0.4507  0.4268
17263TIP3    H173280   6.629   4.422  15.097  0.6527  0.2700  1.2818
17263TIP3    H273281   6.545   4.377  15.215 -0.9622  0.2320  0.1261
17264TIP3   OH273282   4.086   3.620   2.585  0.5076  0.0302 -0.3842
17264TIP3    H173283   4.078   3.712   2.561  1.5178  0.1565 -0.2606
17264TIP3    H273284   4.181   3.605   2.592  0.3993 -1.3288 -1.5906
17265TIP3   OH273285   3.326   4.380  13.890  0.2262  0.1212  0.2505
17265TIP3    H173286   3.380   4.302  13.877  0.3069  0.3795 -1.0592
17265TIP3    H273287   3.242   4.356  13.851  0.9045  1.4212 -2.1005
17266TIP3   OH273288   5.071   3.340  15.592 -0.5788 -0.1296 -0.7731
17266TIP3    H173289   5.079   3.276  15.663 -0.4698 -1.1784 -1.7119
17266TIP3    H273290   4.983   3.376  15.603 -0.6393 -0.4277 -0.2254
17267TIP3   OH273291   1.015   3.744  14.825  0.6503 -0.9868  0.1498
17267TIP3    H173292   1.041   3.715  14.912 -1.6869 -1.1427  0.8460
17267TIP3    H273293   0.990   3.836  14.837  0.5848 -0.9310 -0.4020
17268TIP3   OH273294   5.754   1.894   1.448 -0.2060  0.4750  0.0872
17268TIP3    H173295   5.754   1.807   1.410  2.3689  0.3234  0.3892
17268TIP3    H273296   5.681   1.893   1.510 -1.1011 -0.9652 -0.9658
17269TIP3   OH273297   0.570   6.662   0.405  0.0358  0.0031  0.2503
17269TIP3    H173298   0.563   6.638   0.497 -0.7595 -0.0716  0.1744
17269TIP3    H273299   0.609   6.585   0.364 -1.6658 -0.8441  0.1656
17270TIP3   OH273300   6.640   2.758  17.133 -0.2795  0.2432  0.1307
17270TIP3    H173301   6.725   2.745  17.091 -0.9067  1.2490 -1.5019
17270TIP3    H273302   6.662   2.779  17.224  1.1168 -1.6508  0.2646
17271TIP3   OH273303   0.823   4.474   1.106  0.2191 -0.0564  0.1719
17271TIP3    H173304   0.848   4.455   1.196 -0.7000  0.9624  0.6502
17271TIP3    H273305   0.834   4.390   1.060  3.5784  0.1425  0.5296
17272TIP3   OH273306   1.919   1.318   0.752  0.4956  0.1598 -0.0359
17272TIP3    H173307   1.868   1.238   0.754  2.2587 -1.0202 -1.1918
17272TIP3    H273308   1.964   1.320   0.837 -1.0871  0.9845  0.8088
17273TIP3   OH273309   2.341   0.062  11.054 -0.2616  0.2428  0.3551
17273TIP3    H173310   2.275   0.088  10.990  1.2048  1.2664 -0.7884
17273TIP3    H273311   2.412   0.025  11.001  0.5492  0.1938  1.4658
17274TIP3   OH273312   4.398   2.577   4.431 -0.0889  0.0240  0.3296
17274TIP3    H173313   4.470   2.520   4.457 -0.4840 -0.4296  0.4332
17274TIP3    H273314   4.342   2.583   4.509  0.3707  1.2037  0.5776
17275TIP3   OH273315   6.490   3.956  13.235  0.2284 -0.3650  0.2532
17275TIP3    H173316   6.528   3.870  13.219  0.7612  0.2399 -1.9215
17275TIP3    H273317   6.506   3.972  13.327  2.4460 -1.4909  0.1070
17276TIP3   OH273318   0.457   0.693   2.117  0.0839 -0.4050  0.3207
17276TIP3    H173319   0.404   0.733   2.186  0.2999 -0.6606  0.6401
17276TIP3    H273320   0.396   0.636   2.069 -0.3296  0.6641 -0.4302
17277TIP3   OH273321   0.889   5.904   3.780  0.0907  0.1338  0.2693
17277TIP3    H173322   0.837   5.892   3.701 -1.2905 -0.9685  1.3315
17277TIP3    H273323   0.947   5.828   3.783 -0.7628 -0.5118  0.9744
17278TIP3   OH273324   6.668   6.221  15.429 -0.6367 -0.2288 -0.4411
17278TIP3    H173325   6.664   6.313  15.405 -0.6393  0.0315  0.5555
17278TIP3    H273326   6.744   6.187  15.380 -0.1714  0.4798 -0.2150
17279TIP3   OH273327   3.022   0.805   1.026  0.1319 -0.3279 -0.0969
17279TIP3    H173328   3.048   0.713   1.029 -1.4071 -0.8834 -2.3240
17279TIP3    H273329   2.926   0.803   1.018  0.1007  1.4352 -0.4373
17280TIP3   OH273330   2.110   4.189  14.404  0.1879 -0.0816 -0.1781
17280TIP3    H173331   2.036   4.229  14.448  0.6913 -0.2273  0.8158
17280TIP3    H273332   2.122   4.241  14.324 -0.0868  0.8185  0.3626
17281TIP3   OH273333   5.811   6.397  16.000 -0.1914 -0.4363  0.5028
17281TIP3    H173334   5.897   6.439  16.003  0.4078 -1.7098  2.9706
17281TIP3    H273335   5.765   6.431  16.077 -1.6459 -0.2765 -0.4293
17282TIP3   OH273336   6.622   2.498   5.526  0.5741  0.6916  0.5889
17282TIP3    H173337   6.701   2.450   5.500 -1.3542 -1.8918 -0.6558
17282TIP3    H273338   6.586   2.447   5.598 -0.6660  1.1579  0.3022
17283TIP3   OH273339   2.419   0.347   1.605 -0.2913 -0.3070  0.3207
17283TIP3    H173340   2.452   0.427   1.647 -1.2927  1.0580 -1.3961
17283TIP3    H273341   2.358   0.310   1.668 -0.0593  0.4469  1.0019
17284TIP3   OH273342   5.937   3.913   0.731  0.8305  0.1762  0.0726
17284TIP3    H173343   5.895   3.998   0.718  0.0980 -0.1035  0.5509
17284TIP3    H273344   5.928   3.896   0.825 -0.0822 -0.9609 -0.2064
17285TIP3   OH273345   3.395   5.234   2.330 -0.2171 -0.2682 -0.1158
17285TIP3    H173346   3.354   5.236   2.244 -1.1644 -1.3121  0.2992
17285TIP3    H273347   3.463   5.301   2.326 -0.6285  0.0766 -1.4839
17286TIP3   OH273348   4.008   6.501  15.847  0.0942 -0.3757  0.3514
17286TIP3    H173349   3.941   6.525  15.911 -1.6052 -2.8874 -0.3846
17286TIP3    H273350   3.990   6.557  15.771  0.3446  0.6196  1.0176
17287TIP3   OH273351   1.123   5.079   1.820  0.6779 -0.0277 -0.3092
17287TIP3    H173352   1.124   5.074   1.724  0.5136 -0.2817 -0.3000
17287TIP3    H273353   1.053   5.141   1.840  0.8072  0.1326 -0.3581
17288TIP3   OH273354   0.209   3.953   4.118 -0.0855 -0.3900 -0.1153
17288TIP3    H173355   0.118   3.956   4.148 -0.0982  0.5764 -0.2325
17288TIP3    H273356   0.203   3.964   4.023  0.2191  0.6557 -0.0113
17289TIP3   OH273357   6.005   2.972   1.596  0.1662  0.3464  0.3782
17289TIP3    H173358   5.943   3.036   1.630  0.3445  2.1249 -2.4883
17289TIP3    H273359   5.971   2.948   1.510  0.7473 -2.5478  0.9017
17290TIP3   OH273360   2.910   6.610  11.267  0.9170 -0.0906 -0.7583
17290TIP3    H173361   3.005   6.615  11.278  0.6922 -0.4033  1.4948
17290TIP3    H273362   2.897   6.617  11.172  3.2523 -1.0930 -1.1966
17291TIP3   OH273363   6.340   2.458   1.035 -0.6068  0.1396  0.6805
17291TIP3    H173364   6.328   2.406   1.114 -0.8022 -0.9485 -0.0567
17291TIP3    H273365   6.434   2.478   1.033 -0.6189  0.2534  1.2361
17292TIP3   OH273366   0.927   2.991   3.348  0.1057 -1.0671 -0.9872
17292TIP3    H173367   0.924   2.926   3.278  0.7848 -1.5223 -0.5953
17292TIP3    H273368   0.837   2.993   3.382 -0.2608 -0.7363 -1.9601
17293TIP3   OH273369   0.164   5.926   0.641 -0.2475 -0.3790  0.0032
17293TIP3    H173370   0.132   5.919   0.731  0.3334  1.5792  0.3924
17293TIP3    H273371   0.148   6.018   0.617  0.4128 -0.6595 -1.5688
17294TIP3   OH273372   1.865   5.424  12.551 -0.1864  0.1471  0.2810
17294TIP3    H173373   1.854   5.329  12.561 -0.8856  0.1164 -0.6665
17294TIP3    H273374   1.778   5.455  12.525  0.4066  0.8336 -0.8994
17295TIP3   OH273375   3.636   5.380  15.585 -0.1452 -0.0781  0.0276
17295TIP3    H173376   3.545   5.362  15.562  0.1006 -0.6667 -0.4890
17295TIP3    H273377   3.683   5.377  15.502  0.7357 -2.1472  0.5569
17296TIP3   OH273378   4.228   6.608  11.858 -0.2771 -0.2908 -0.2329
17296TIP3    H173379   4.175   6.687  11.865  1.2239  0.8014 -0.7920
17296TIP3    H273380   4.292   6.629  11.790  1.4758 -1.1790  1.1004
17297TIP3   OH273381   5.366   0.161   3.679  0.0747  0.0506  0.2139
17297TIP3    H173382   5.370   0.235   3.618  0.2764  0.3441  0.5852
17297TIP3    H273383   5.454   0.154   3.714  0.3022 -0.9811 -0.5477
17298TIP3   OH273384   0.032   2.517   3.392  0.5296  0.0989 -0.3366
17298TIP3    H173385  -0.007   2.485   3.474 -0.6899 -0.4029 -1.1074
17298TIP3    H273386  -0.003   2.459   3.325  2.8108 -0.5186 -1.0178
17299TIP3   OH273387   3.200   6.566  11.595  0.3851 -0.3309 -0.5602
17299TIP3    H173388   3.184   6.585  11.503  0.2298  2.2281 -0.0373
17299TIP3    H273389   3.166   6.642  11.642  1.0377 -1.3108  1.5751
17300TIP3   OH273390   0.142   4.923  16.002 -0.1329 -0.1140  0.7807
17300TIP3    H173391   0.220   4.926  16.057  0.2225  0.9874  0.2225
17300TIP3    H273392   0.174   4.941  15.914 -1.2405  1.9576  0.7818
17301TIP3   OH273393   2.424   0.794  11.811 -0.0343 -0.6435 -0.2076
17301TIP3    H173394   2.356   0.764  11.752  0.3763 -2.1067  0.0431
17301TIP3    H273395   2.381   0.801  11.896 -0.4346  0.7139 -0.5096
17302TIP3   OH273396   3.780   0.690   1.314 -0.1266  0.2603 -0.0317
17302TIP3    H173397   3.774   0.712   1.221 -1.0195  1.0982  0.2226
17302TIP3    H273398   3.860   0.637   1.321 -1.0010 -1.3337 -1.5775
17303TIP3   OH273399   5.448   4.499  16.669 -0.1732  0.3156  0.1379
17303TIP3    H173400   5.536   4.492  16.705 -0.6964  0.4002  1.4557
17303TIP3    H273401   5.403   4.560  16.728 -1.5736 -0.9434  0.3980
17304TIP3   OH273402   4.362   1.650   6.071 -0.0562 -0.0806  0.6737
17304TIP3    H173403   4.349   1.631   6.164  0.0593  0.3826  0.7864
17304TIP3    H273404   4.452   1.682   6.065 -0.0614 -0.1140  0.3998
17305TIP3   OH273405   3.452   5.044   0.015  0.6691 -0.2264 -0.8245
17305TIP3    H173406   3.530   4.988   0.013 -0.9344 -2.4511 -2.8190
17305TIP3    H273407   3.389   5.000  -0.041 -1.2303  2.7904 -1.1610
17306TIP3   OH273408   0.699   4.526   3.690 -0.3353 -0.5533  0.1674
17306TIP3    H173409   0.674   4.447   3.642 -2.2622  0.4904 -0.6226
17306TIP3    H273410   0.779   4.556   3.647  0.6147 -2.2249  0.6965
17307TIP3   OH273411   6.132   4.920  15.868 -0.3635  0.6537  0.1841
17307TIP3    H173412   6.192   4.944  15.939  2.7776 -2.3312 -1.3009
17307TIP3    H273413   6.112   4.828  15.884  0.2023 -0.0024 -2.6001
17308TIP3   OH273414   0.832   5.733  15.794  0.1818 -0.6955  0.5365
17308TIP3    H173415   0.879   5.651  15.807  2.3838  0.7307  1.9547
17308TIP3    H273416   0.866   5.791  15.862 -0.2003  1.8679 -1.3731
17309TIP3   OH273417   4.629   5.007  15.719 -0.0407 -0.0753 -0.2629
17309TIP3    H173418   4.569   4.990  15.792 -0.6873  0.7065 -0.6057
17309TIP3    H273419   4.572   5.020  15.644  0.6169 -0.6135 -0.8595
17310TIP3   OH273420   3.644   1.327   3.710  0.4372 -0.0604 -0.5152
17310TIP3    H173421   3.575   1.346   3.774 -1.0932 -3.8068 -0.9211
17310TIP3    H273422   3.599   1.284   3.638  2.9038 -0.5743 -1.8046
17311TIP3   OH273423   1.895   3.840  11.961  0.3067  0.8297 -0.0815
17311TIP3    H173424   1.849   3.873  11.884  1.1564  1.6117 -0.2610
17311TIP3    H273425   1.951   3.912  11.989  3.2677 -0.8679 -1.3337
17312TIP3   OH273426   5.310   4.419  13.208 -0.4746  0.4471  0.1036
17312TIP3    H173427   5.326   4.333  13.249 -0.6500 -0.0877 -0.9287
17312TIP3    H273428   5.369   4.421  13.133  0.2501  1.6543  0.6884
17313TIP3   OH273429   3.083   4.201   0.147  0.1278 -0.4279 -0.1661
17313TIP3    H173430   3.085   4.190   0.242  0.3292  0.2969 -0.0813
17313TIP3    H273431   3.054   4.292   0.134  0.5399 -0.3780 -0.7812
17314TIP3   OH273432   3.051   5.363   4.708  0.8156 -0.1351 -0.2428
17314TIP3    H173433   3.118   5.334   4.770  0.9584 -3.0015 -1.6421
17314TIP3    H273434   2.974   5.381   4.763  1.4055 -1.1027  0.9311
17315TIP3   OH273435   2.235   0.861   0.034  0.2204  0.0919 -0.1859
17315TIP3    H173436   2.143   0.886   0.039  0.1651  0.0571 -1.0796
17315TIP3    H273437   2.255   0.829   0.122 -0.4013  0.8534  0.2471
17316TIP3   OH273438   0.027   5.959   1.537 -0.1438 -0.1959 -0.2109
17316TIP3    H173439   0.101   5.988   1.485 -0.1409  1.3090  0.5788
17316TIP3    H273440  -0.005   6.039   1.579 -1.1322 -1.1049  0.8153
17317TIP3   OH273441   3.341   5.587   3.901 -0.7484 -0.5256  0.2849
17317TIP3    H173442   3.377   5.668   3.936  0.4718 -1.3401  0.9525
17317TIP3    H273443   3.278   5.558   3.967  1.1259 -1.7577  1.5562
17318TIP3   OH273444   6.687   0.901   0.454 -0.3624  0.7787 -0.5824
17318TIP3    H173445   6.651   0.841   0.520 -1.9538  2.1418 -0.1987
17318TIP3    H273446   6.636   0.883   0.375 -1.0780  1.8408 -0.3745
17319TIP3   OH273447   3.669   5.957  16.024  0.2895  0.6334  0.0915
17319TIP3    H173448   3.645   6.042  15.985 -1.5940 -0.4532 -1.1892
17319TIP3    H273449   3.761   5.946  16.001  0.4368  2.1391 -0.1053
17320TIP3   OH273450   3.260   2.309   3.256  0.9094 -0.4062  0.2100
17320TIP3    H173451   3.213   2.241   3.207 -0.3120  0.4419  0.1860
17320TIP3    H273452   3.344   2.268   3.279  0.5842 -1.5826 -0.6439
17321TIP3   OH273453   4.744   4.635  16.564 -0.1576 -0.5172  0.2251
17321TIP3    H173454   4.704   4.550  16.546  1.7505 -1.2327 -0.7697
17321TIP3    H273455   4.671   4.690  16.592 -1.9611 -1.5988 -2.1655
17322TIP3   OH273456   1.136   0.241   2.605 -0.2300  0.1910 -0.3878
17322TIP3    H173457   1.066   0.186   2.641 -0.1483 -1.0003 -1.9811
17322TIP3    H273458   1.215   0.189   2.616  0.0213  0.4747 -0.8808
17323TIP3   OH273459   2.820   4.208   0.625  0.2410  0.2516 -0.7676
17323TIP3    H173460   2.755   4.231   0.691 -0.4951 -3.6602  0.0412
17323TIP3    H273461   2.785   4.129   0.583  4.7823 -2.5136  0.2989
17324TIP3   OH273462   6.130   2.743  12.671  0.0780 -0.4215 -0.4337
17324TIP3    H173463   6.080   2.662  12.672 -1.1403  0.3142 -0.1546
17324TIP3    H273464   6.116   2.779  12.583 -1.1628  0.5547  0.1513
17325TIP3   OH273465   3.639   5.204   4.881 -0.4749 -0.2790  0.1984
17325TIP3    H173466   3.612   5.236   4.967 -0.6155 -1.3549  0.5592
17325TIP3    H273467   3.618   5.111   4.882  1.1322 -0.6725 -0.3576
17326TIP3   OH273468   2.871   0.617   6.152  0.0515  0.3999  0.0609
17326TIP3    H173469   2.948   0.628   6.208  0.2314 -0.7785  0.0468
17326TIP3    H273470   2.842   0.707   6.135  0.7343  0.8150  1.0073
17327TIP3   OH273471   5.886   3.285   0.451 -0.0039  0.4734  0.0033
17327TIP3    H173472   5.952   3.293   0.383 -0.7270 -1.5268 -0.9687
17327TIP3    H273473   5.868   3.375   0.478  0.8854  1.2269 -1.8589
17328TIP3   OH273474   6.322   5.525   2.402  0.6605  0.3647 -0.4392
17328TIP3    H173475   6.228   5.508   2.399  0.6479  0.2735  0.3700
17328TIP3    H273476   6.330   5.620   2.400  0.3959  0.5010  2.9314
17329TIP3   OH273477   3.487   3.397  12.639 -0.1413  0.6480  0.0433
17329TIP3    H173478   3.513   3.451  12.564  1.2017 -0.5551 -0.4032
17329TIP3    H273479   3.565   3.344  12.657 -0.8319  0.1491  1.6002
17330TIP3   OH273480   0.865   1.936   2.174 -0.6784  0.4597 -0.3913
17330TIP3    H173481   0.854   1.849   2.136 -0.1382 -0.4162  1.4057
17330TIP3    H273482   0.860   1.922   2.269  2.3846  1.9449  0.0386
17331TIP3   OH273483   4.485   6.318  13.549 -0.0524 -0.1734  0.2085
17331TIP3    H173484   4.489   6.406  13.587  1.4605 -0.3588  0.5184
17331TIP3    H273485   4.555   6.270  13.594  0.2289 -1.0581 -1.1740
17332TIP3   OH273486   3.539   1.474   4.338  0.3494 -0.2833 -0.1336
17332TIP3    H173487   3.575   1.427   4.413  1.0875  0.5049  0.0190
17332TIP3    H273488   3.588   1.556   4.336  0.2099 -0.2300 -1.3863
17333TIP3   OH273489   5.588   4.072  12.394  0.1626 -0.3662  0.6910
17333TIP3    H173490   5.577   4.163  12.367 -1.9029 -0.9171 -0.5061
17333TIP3    H273491   5.590   4.023  12.311 -1.8541 -1.6702  1.3543
17334TIP3   OH273492   2.951   2.651   4.307  0.0663 -0.2780  0.3795
17334TIP3    H173493   3.003   2.670   4.385  1.0187 -1.3111 -0.0029
17334TIP3    H273494   3.007   2.595   4.254 -1.6516 -1.8884  0.2321
17335TIP3   OH273495   0.413   2.743   1.899  0.5677 -0.1068 -0.1526
17335TIP3    H173496   0.447   2.708   1.981  0.5380 -0.8322 -0.4464
17335TIP3    H273497   0.369   2.824   1.924  1.9128  0.4733  0.3245
17336TIP3   OH273498   1.891   1.226   3.912  0.1961 -0.1228 -0.3097
17336TIP3    H173499   1.940   1.286   3.970 -0.9028  0.0066  0.4974
17336TIP3    H273500   1.954   1.158   3.891  0.6918 -0.0562  0.8805
17337TIP3   OH273501   3.704   6.156  13.808  0.2952  0.0313  0.1582
17337TIP3    H173502   3.753   6.218  13.754  2.4581 -0.2907  1.6703
17337TIP3    H273503   3.715   6.189  13.897 -0.1195 -1.5115  0.7873
17338TIP3   OH273504   0.327   2.046   4.105  0.2032 -0.1599 -0.0833
17338TIP3    H173505   0.407   1.993   4.110  0.0182 -0.4602 -0.3368
17338TIP3    H273506   0.355   2.132   4.135  0.6469 -0.2386 -0.2547
17339TIP3   OH273507   5.413   0.811  13.871  0.1113  0.1757 -0.4381
17339TIP3    H173508   5.462   0.728  13.879  0.2654  0.3800  0.9237
17339TIP3    H273509   5.365   0.818  13.953  0.9094  1.9553 -0.0909
17340TIP3   OH273510   0.442   6.658  16.961  0.2593  0.0582  0.1584
17340TIP3    H173511   0.510   6.720  16.987 -1.0878  2.3135 -1.4506
17340TIP3    H273512   0.455   6.646  16.867  0.1624 -1.7097  0.3460
17341TIP3   OH273513   0.593   6.004   3.692  0.8056 -0.1284  0.2947
17341TIP3    H173514   0.557   6.012   3.604 -0.1120  0.9681  0.7476
17341TIP3    H273515   0.557   5.923   3.726  2.2117 -1.2319 -0.7977
17342TIP3   OH273516   0.195   0.062   2.792  0.1662 -0.3449 -0.4160
17342TIP3    H173517   0.248  -0.010   2.759 -2.8586 -3.5613  1.3501
17342TIP3    H273518   0.214   0.065   2.886 -1.4045 -0.4262 -0.0718
17343TIP3   OH273519   4.488   4.270  11.938  0.4185 -0.3319 -0.3035
17343TIP3    H173520   4.498   4.266  12.033  0.7793  0.2155 -0.3122
17343TIP3    H273521   4.405   4.316  11.924  0.1016 -0.8873 -0.2508
17344TIP3   OH273522   6.713   4.510  16.644 -0.1751  0.1510 -0.5546
17344TIP3    H173523   6.653   4.538  16.575 -0.3648  0.6750 -0.1863
17344TIP3    H273524   6.750   4.427  16.613 -0.5486  0.1900 -1.1042
17345TIP3   OH273525   4.846   1.899   4.251  0.1526  0.4262  0.5535
17345TIP3    H173526   4.777   1.949   4.208  0.6555  2.6052  2.1712
17345TIP3    H273527   4.812   1.810   4.255 -0.9285  0.6925 -2.0646
17346TIP3   OH273528   3.039   4.205   4.172 -0.1426 -0.2576  0.2842
17346TIP3    H173529   2.956   4.243   4.142 -0.1150 -1.4916 -1.4689
17346TIP3    H273530   3.096   4.210   4.095  1.2099  0.0001  1.2900
17347TIP3   OH273531   4.173   1.744   2.695  0.4779 -0.1003  0.2613
17347TIP3    H173532   4.188   1.649   2.701  1.2985  0.0407  0.5409
17347TIP3    H273533   4.079   1.755   2.711  0.4579 -0.8315  0.6672
17348TIP3   OH273534   5.947   2.487  14.379  0.4458  0.4677  0.7204
17348TIP3    H173535   6.017   2.498  14.443  1.3699 -2.1630  0.2114
17348TIP3    H273536   5.882   2.434  14.423  0.1898  0.2868  0.1227
17349TIP3   OH273537   5.108   5.092  11.674 -0.6070 -0.1402  0.3132
17349TIP3    H173538   5.089   5.074  11.582  0.4879  0.3457 -0.0108
17349TIP3    H273539   5.095   5.186  11.684 -0.1790 -0.1007  0.5225
17350TIP3   OH273540   3.025   2.977  11.721  0.4012 -0.3466 -0.2387
17350TIP3    H173541   3.118   2.997  11.733  0.8574 -2.2866 -0.4588
17350TIP3    H273542   2.980   3.055  11.754  2.1212  1.1763 -1.3988
17351TIP3   OH273543   1.077   1.959   3.372  0.1110 -0.4422  0.5014
17351TIP3    H173544   1.113   1.879   3.333  0.5172 -1.2954  2.5526
17351TIP3    H273545   0.986   1.938   3.392 -0.9655  0.9869 -2.6627
17352TIP3   OH273546   5.904   1.767  12.688  0.5280  0.3811 -0.0125
17352TIP3    H173547   5.812   1.743  12.673  0.7089 -1.1043  1.1366
17352TIP3    H273548   5.902   1.863  12.698 -0.7119  0.4998 -1.1892
17353TIP3   OH273549   3.737   1.996  15.360 -0.0874  0.2941  0.2180
17353TIP3    H173550   3.819   1.951  15.338  0.0981  0.7433 -0.0117
17353TIP3    H273551   3.764   2.070  15.415 -0.5158 -0.6355  1.7001
17354TIP3   OH273552   0.653   4.428  14.730 -0.1043 -0.5291 -0.0409
17354TIP3    H173553   0.695   4.426  14.643  0.0999  0.5052  0.0219
17354TIP3    H273554   0.688   4.352  14.775  0.1414 -0.8213 -0.7106
17355TIP3   OH273555   0.688   3.143  13.109 -0.3660 -0.2064  0.0026
17355TIP3    H173556   0.701   3.085  13.184 -0.8055  0.6273  0.7475
17355TIP3    H273557   0.740   3.105  13.039  0.8223 -0.4718  1.0147
17356TIP3   OH273558   1.913   1.381   5.536 -0.3857  0.3017  0.1614
17356TIP3    H173559   1.928   1.293   5.572  1.0548  1.0535  1.4178
17356TIP3    H273560   1.845   1.419   5.591 -0.5387  0.2368  0.0204
17357TIP3   OH273561   6.727   0.497  12.251 -0.1141  0.5278 -0.3078
17357TIP3    H173562   6.688   0.535  12.330 -1.1150 -0.1210 -0.4846
17357TIP3    H273563   6.743   0.572  12.194 -0.8872  0.8234 -0.1380
17358TIP3   OH273564   4.324   1.122   5.079  0.1174 -0.2441 -0.0407
17358TIP3    H173565   4.415   1.107   5.107 -0.1901 -1.1533  0.5008
17358TIP3    H273566   4.331   1.187   5.009  1.2404 -0.6616 -0.3284
17359TIP3   OH273567   0.994   1.430  12.858 -0.3851  0.0117  0.1471
17359TIP3    H173568   1.030   1.380  12.785 -0.3760 -1.5908  1.2394
17359TIP3    H273569   0.995   1.521  12.827  0.1132 -0.5823 -1.6337
17360TIP3   OH273570   3.327   5.972   0.432  0.0132  0.4509  0.1920
17360TIP3    H173571   3.321   6.058   0.475 -0.6177  0.2519  0.5079
17360TIP3    H273572   3.404   5.979   0.375  0.4376  0.9590  0.8156
17361TIP3   OH273573   1.654   3.132  16.521 -0.0078  0.0497 -0.2252
17361TIP3    H173574   1.712   3.158  16.449 -0.1614 -0.9897 -0.7300
17361TIP3    H273575   1.708   3.140  16.599  0.1501  1.2274 -0.4387
17362TIP3   OH273576   5.815   5.912  12.398  0.3503 -0.0442  0.2367
17362TIP3    H173577   5.888   5.970  12.375  0.1977  0.5023  1.0938
17362TIP3    H273578   5.737   5.961  12.371  0.3224 -0.9584 -1.3890
17363TIP3   OH273579   0.112   4.306  17.154  0.1180 -0.4256  0.5534
17363TIP3    H173580   0.144   4.273  17.070  0.6046  0.1213  0.5195
17363TIP3    H273581   0.060   4.234  17.190 -0.7052 -0.4027 -0.5512
17364TIP3   OH273582   5.879   1.639  11.907 -0.0104  0.4019  0.2315
17364TIP3    H173583   5.796   1.682  11.924  0.2754  1.0197  0.0951
17364TIP3    H273584   5.861   1.546  11.915 -0.7526  0.5293  0.0353
17365TIP3   OH273585   0.969   3.527  11.247  0.2892  0.2773 -0.1007
17365TIP3    H173586   1.043   3.490  11.295  0.3144  1.2126  0.5964
17365TIP3    H273587   0.995   3.522  11.155  1.5691  1.3699  0.1963
17366TIP3   OH273588   0.740   4.411  12.639 -0.6001  0.0749  0.2942
17366TIP3    H173589   0.746   4.397  12.545 -0.5436  1.1129  0.1309
17366TIP3    H273590   0.776   4.332  12.678  1.5886  0.6260 -0.5603
17367TIP3   OH273591   0.447   4.591   3.607  0.3858 -0.2528  0.3154
17367TIP3    H173592   0.529   4.570   3.651  1.3139  4.4592  1.1415
17367TIP3    H273593   0.472   4.613   3.517 -0.0749  0.3843  0.3371
17368TIP3   OH273594   3.742   4.857   1.303  0.3856  0.3666 -0.2009
17368TIP3    H173595   3.714   4.928   1.245 -1.5195  0.8951  1.3079
17368TIP3    H273596   3.826   4.885   1.337  1.0545  0.5086 -1.9046
17369TIP3   OH273597   4.044   4.271   4.278 -0.0878 -0.5233 -0.1934
17369TIP3    H173598   3.955   4.306   4.266  0.6736  1.7664  0.5831
17369TIP3    H273599   4.045   4.237   4.368 -0.3122 -1.0061 -0.3703
17370TIP3   OH273600   6.312   4.904  14.198 -0.4975 -0.6962 -0.4035
17370TIP3    H173601   6.312   4.883  14.104  1.0290 -0.4068 -0.4744
17370TIP3    H273602   6.314   5.000  14.201 -0.0262 -0.7137 -0.0808
17371TIP3   OH273603   5.099   6.384  14.924 -0.1079 -0.0429 -0.3855
17371TIP3    H173604   5.005   6.380  14.945  0.4163 -0.9313  1.9057
17371TIP3    H273605   5.111   6.317  14.856 -1.1520  0.2546 -0.8813
17372TIP3   OH273606   1.208   2.141   0.640 -0.1217  0.2222  0.6994
17372TIP3    H173607   1.301   2.155   0.625  0.1681 -0.5956  1.7186
17372TIP3    H273608   1.176   2.226   0.672  0.4567  0.2220  1.2790
17373TIP3   OH273609   3.989   4.701   0.340  0.1286 -0.1995  0.2902
17373TIP3    H173610   3.968   4.637   0.408 -0.8809 -0.7606 -0.5360
17373TIP3    H273611   4.061   4.661   0.291 -0.2397 -0.5340  0.0183
17374TIP3   OH273612   1.089   0.410   0.327 -0.3630  0.0851 -0.0878
17374TIP3    H173613   1.094   0.435   0.419  0.4827 -0.2557 -0.0319
17374TIP3    H273614   1.123   0.320   0.325 -0.5838  0.0122 -0.7015
17375TIP3   OH273615   6.079   2.855  13.860  1.0479  0.0741  0.1915
17375TIP3    H173616   6.091   2.932  13.805  1.4901  0.3882  0.7283
17375TIP3    H273617   6.084   2.781  13.799  1.6845  0.4129 -0.1648
17376TIP3   OH273618   0.986   3.696  13.979 -0.5430 -0.0880  0.6936
17376TIP3    H173619   1.058   3.753  14.007  1.1623 -1.3935 -0.8570
17376TIP3    H273620   0.918   3.709  14.044  0.4287  2.4989  1.2540
17377TIP3   OH273621   4.956   1.012   0.976 -0.4498 -0.2749  0.4449
17377TIP3    H173622   4.865   1.038   0.987 -0.7865 -1.0062 -0.5540
17377TIP3    H273623   4.973   0.953   1.050 -0.3974  0.8495  1.3458
17378TIP3   OH273624   5.708   0.459  15.586 -0.4932  0.6065 -0.6482
17378TIP3    H173625   5.788   0.511  15.585  0.8318 -1.3732 -0.6686
17378TIP3    H273626   5.646   0.512  15.635  1.8633  0.7051  2.3515
17379TIP3   OH273627   3.973   0.126   1.711  0.2789 -0.0554 -0.8978
17379TIP3    H173628   3.926   0.174   1.779  0.3886  0.4519 -1.1800
17379TIP3    H273629   3.938   0.160   1.628  1.6796  0.8807 -1.1235
17380TIP3   OH273630   0.781   3.391  16.379 -0.1035  0.5212  0.5211
17380TIP3    H173631   0.859   3.443  16.398  0.1978  0.8535 -1.5637
17380TIP3    H273632   0.710   3.438  16.421  0.7309  0.4843  2.0124
17381TIP3   OH273633   6.649   1.802  14.671 -0.4942  0.1493 -0.0256
17381TIP3    H173634   6.556   1.826  14.672 -0.3210  0.9059 -1.1448
17381TIP3    H273635   6.693   1.877  14.631  0.6874  0.0827  1.1229
17382TIP3   OH273636   4.653   0.896  14.722 -0.1495  0.0648  0.6981
17382TIP3    H173637   4.684   0.839  14.792  2.2170  0.8610  0.3246
17382TIP3    H273638   4.626   0.835  14.652  1.4826 -0.6580  0.6588
17383TIP3   OH273639   2.831   6.671   4.319 -0.0061 -0.4528  0.0331
17383TIP3    H173640   2.859   6.666   4.227  0.6461 -1.5851  0.2796
17383TIP3    H273641   2.910   6.650   4.369  0.1962  2.3479  0.9365
17384TIP3   OH273642   0.727   2.349   1.445  0.1053  0.0708  0.4027
17384TIP3    H173643   0.649   2.343   1.499 -0.1611 -0.5120 -0.0452
17384TIP3    H273644   0.726   2.269   1.392  1.2079 -0.1291  0.6728
17385TIP3   OH273645   6.796   3.102   1.373 -0.5269  0.3206  0.2944
17385TIP3    H173646   6.772   3.017   1.410 -0.6805 -0.7993 -2.2881
17385TIP3    H273647   6.713   3.146   1.357 -0.5494 -0.0095 -0.5320
17386TIP3   OH273648   4.157   3.938   4.017  0.0130 -0.2085 -0.3109
17386TIP3    H173649   4.172   3.868   3.955 -1.4542 -0.1589 -0.7440
17386TIP3    H273650   4.062   3.954   4.013  0.3883  2.1330 -0.6044
17387TIP3   OH273651   3.119   5.635   5.945 -0.0009  0.2898  0.3155
17387TIP3    H173652   3.058   5.706   5.967 -1.5801  0.0912 -3.1120
17387TIP3    H273653   3.103   5.568   6.013 -4.3866 -0.1581 -0.9856
17388TIP3   OH273654   5.200   2.279   2.273 -0.2378  0.3614  0.2574
17388TIP3    H173655   5.139   2.353   2.265  0.1175  0.4754 -1.6279
17388TIP3    H273656   5.279   2.317   2.311 -0.7741  0.5319  1.2185
17389TIP3   OH273657   0.960   2.818  14.822 -0.3365 -0.5625 -0.0839
17389TIP3    H173658   1.030   2.774  14.870  0.9944  0.7367 -0.7848
17389TIP3    H273659   0.930   2.754  14.758 -1.0096 -1.7378  1.3631
17390TIP3   OH273660   4.549   0.479   2.379  0.5618 -0.0313 -0.2901
17390TIP3    H173661   4.507   0.405   2.336  1.2546 -0.5649 -0.0617
17390TIP3    H273662   4.530   0.468   2.472  1.8062 -0.6893 -0.0964
17391TIP3   OH273663   3.612   2.815   5.568 -0.1443  0.0205  0.1311
17391TIP3    H173664   3.700   2.783   5.589 -1.0652 -0.1041  4.1333
17391TIP3    H273665   3.553   2.751   5.608 -2.0451  0.9566 -1.1448
17392TIP3   OH273666   1.203   4.076  14.690  0.3555 -0.3196  0.5005
17392TIP3    H173667   1.233   4.052  14.777 -1.7004 -0.3324  1.2230
17392TIP3    H273668   1.152   4.000  14.661 -0.3973  0.3817 -0.0146
17393TIP3   OH273669   0.273   2.828   6.436 -0.2702 -0.5073  0.0315
17393TIP3    H173670   0.214   2.762   6.471 -0.1680 -0.1246  0.9619
17393TIP3    H273671   0.347   2.828   6.497  0.1509 -0.1803 -0.4743
17394TIP3   OH273672   5.496   4.816   4.886 -0.1790 -0.1315 -0.1412
17394TIP3    H173673   5.550   4.890   4.916 -0.1507 -0.9608  1.9325
17394TIP3    H273674   5.550   4.773   4.819 -0.4746  2.0838 -1.8467
17395TIP3   OH273675   1.861   4.400   3.507  0.0634  0.2008 -0.0604
17395TIP3    H173676   1.783   4.449   3.483  1.0677  2.0758  0.3846
17395TIP3    H273677   1.913   4.397   3.426 -0.4064 -0.9312 -0.3227
17396TIP3   OH273678   3.472   0.098  14.064 -0.7838 -0.3660 -0.0083
17396TIP3    H173679   3.493   0.185  14.030  1.6725 -1.0337 -0.3045
17396TIP3    H273680   3.458   0.044  13.985 -0.1635 -0.7274  0.1262
17397TIP3   OH273681   1.203   2.208  11.872  0.0174  0.4132  0.2967
17397TIP3    H173682   1.260   2.284  11.887 -1.7907  1.9416 -0.3325
17397TIP3    H273683   1.212   2.155  11.950  1.8505  0.9391  0.4595
17398TIP3   OH273684   5.987   2.264   0.832  0.5370 -0.1559  0.0045
17398TIP3    H173685   5.949   2.325   0.769 -0.9311 -0.5286  0.4979
17398TIP3    H273686   6.052   2.315   0.880 -0.7296  1.0717  0.4671
17399TIP3   OH273687   4.709   6.663  11.411 -0.2247 -0.4208 -0.5945
17399TIP3    H173688   4.649   6.726  11.452 -0.7045 -2.0878  1.3494
17399TIP3    H273689   4.676   6.653  11.322  0.2606  2.5632 -1.1498
17400TIP3   OH273690   1.674   0.982   4.168 -0.3263 -0.0962 -0.4750
17400TIP3    H173691   1.765   0.953   4.179 -0.6771 -0.5307  1.5995
17400TIP3    H273692   1.629   0.904   4.135  0.4289  0.7323 -3.6136
17401TIP3   OH273693   4.912   3.422  16.199 -0.5786  0.3721 -0.3337
17401TIP3    H173694   4.851   3.481  16.156 -1.2532  1.0175  1.4521
17401TIP3    H273695   4.999   3.458  16.179 -0.8920  0.7414 -1.0240
17402TIP3   OH273696   2.220   2.919  17.035  0.6282 -0.0434 -0.3374
17402TIP3    H173697   2.300   2.959  17.068  0.3360 -0.3016  0.6996
17402TIP3    H273698   2.245   2.831  17.008  0.7092 -0.1068 -0.0582
17403TIP3   OH273699   4.721   3.849   3.239 -0.4934  0.5210  0.1682
17403TIP3    H173700   4.746   3.763   3.274  0.3886  0.0909 -1.4819
17403TIP3    H273701   4.728   3.908   3.314 -0.7058 -0.7601  1.2252
17404TIP3   OH273702   0.841   5.169  16.808 -0.4408  0.0401 -0.2723
17404TIP3    H173703   0.795   5.135  16.732 -0.5867 -0.5462  0.0765
17404TIP3    H273704   0.934   5.154  16.789 -0.5305 -0.9942  0.0923
17405TIP3   OH273705   1.273   0.953   3.596  0.1858 -0.2303 -0.0607
17405TIP3    H173706   1.325   0.945   3.517  1.1771 -0.8491  0.6390
17405TIP3    H273707   1.327   1.004   3.656 -0.8882  0.9198 -0.0514
17406TIP3   OH273708   3.059   2.022  11.784 -0.0727 -0.2963 -0.2797
17406TIP3    H173709   3.024   2.110  11.769 -0.0289 -0.1688  0.3171
17406TIP3    H273710   3.153   2.036  11.796 -0.1110 -0.3829  0.1299
17407TIP3   OH273711   2.797   2.988   2.543  0.0120  0.3966  0.2099
17407TIP3    H173712   2.801   3.079   2.572 -0.8392  0.7390 -0.6971
17407TIP3    H273713   2.766   2.940   2.620 -1.4908  1.1772  0.1090
17408TIP3   OH273714   5.335   6.449  14.313  1.1382 -0.5796 -0.6852
17408TIP3    H173715   5.328   6.374  14.372 -2.8890  0.6789  0.5929
17408TIP3    H273716   5.314   6.413  14.227  1.6508 -1.3690 -0.4896
17409TIP3   OH273717   6.706   5.616  12.653  0.1804  0.1714  0.4305
17409TIP3    H173718   6.672   5.694  12.609  0.0743 -0.1796 -0.1239
17409TIP3    H273719   6.628   5.565  12.675  0.2910 -0.1742  0.0326
17410TIP3   OH273720   2.377   2.869  14.407  0.0653  0.5846 -0.1026
17410TIP3    H173721   2.425   2.788  14.392 -0.0096  0.5045  0.0941
17410TIP3    H273722   2.442   2.938  14.394  0.5476  0.4348  1.3818
17411TIP3   OH273723   3.266   4.611  12.643 -0.4378 -0.0418  0.1460
17411TIP3    H173724   3.215   4.692  12.650  0.1345  0.3701 -0.4029
17411TIP3    H273725   3.270   4.593  12.549 -0.5843 -0.7271  0.2667
17412TIP3   OH273726   1.345   4.493   4.683  0.1449 -0.2337 -0.2163
17412TIP3    H173727   1.298   4.446   4.752  2.1922 -1.1782  0.6024
17412TIP3    H273728   1.429   4.447   4.676  0.6235  0.8787 -2.1971
17413TIP3   OH273729   0.551   0.122   3.451 -0.6954  0.0613  0.6117
17413TIP3    H173730   0.481   0.182   3.425 -0.0118 -0.2095 -1.9166
17413TIP3    H273731   0.631   0.165   3.424 -0.0827 -1.1728  0.4197
17414TIP3   OH273732   0.584   2.645   6.075 -0.9146  0.5654  0.4060
17414TIP3    H173733   0.670   2.608   6.094 -0.3689  2.3811  1.5562
17414TIP3    H273734   0.584   2.657   5.980  0.3183  1.0581  0.4575
17415TIP3   OH273735   4.585   3.833  13.911 -0.2999  0.6417 -0.7248
17415TIP3    H173736   4.595   3.908  13.970  0.2306 -0.1338  0.1727
17415TIP3    H273737   4.661   3.779  13.927 -1.8239 -1.2517  0.3107
17416TIP3   OH273738   1.920   3.212  15.627 -0.4057 -0.0253  0.1750
17416TIP3    H173739   1.869   3.288  15.599  0.2953  0.3047 -0.2135
17416TIP3    H273740   1.921   3.154  15.550  1.4086  0.8214 -0.4614
17417TIP3   OH273741   2.045   5.885  13.416  0.1464  0.4434 -0.5571
17417TIP3    H173742   1.959   5.879  13.373 -0.5162 -0.3505  0.8574
17417TIP3    H273743   2.053   5.976  13.441 -0.4343  0.4602 -0.4144
17418TIP3   OH273744   3.111   5.151  16.983 -0.2119 -0.1753 -0.0577
17418TIP3    H173745   3.038   5.098  17.013 -0.7998  0.3944 -0.4781
17418TIP3    H273746   3.189   5.100  17.005 -0.6791 -0.1944  1.5603
17419TIP3   OH273747   1.456   2.938   5.104 -0.3689 -0.0242  0.2919
17419TIP3    H173748   1.379   2.963   5.054  0.8539  1.6772 -0.8070
17419TIP3    H273749   1.499   3.021   5.125  1.0917 -0.9261  0.9761
17420TIP3   OH273750   4.509   5.578  14.226 -0.0226  0.6067  0.7375
17420TIP3    H173751   4.461   5.497  14.243  0.1285  0.6197  1.2337
17420TIP3    H273752   4.499   5.592  14.132 -1.7706  1.1054  0.9953
17421TIP3   OH273753   5.154   1.373   3.339 -0.2233  0.6013  0.6323
17421TIP3    H173754   5.064   1.339   3.340 -0.8079  2.0613  0.9125
17421TIP3    H273755   5.164   1.413   3.253 -0.6630  2.4094  1.3719
17422TIP3   OH273756   3.229   0.670   4.804 -0.5150  0.3449 -0.0009
17422TIP3    H173757   3.192   0.584   4.786 -0.7798  0.4128  0.2175
17422TIP3    H273758   3.155   0.723   4.832 -0.7051  1.2204 -2.1135
17423TIP3   OH273759   4.306   4.016   3.341 -0.0424  0.4057  0.1307
17423TIP3    H173760   4.356   3.963   3.279 -0.3685 -0.3761  0.5303
17423TIP3    H273761   4.312   4.105   3.307  1.5177  0.2940  0.1085
17424TIP3   OH273762   3.308   0.684  15.366 -0.5945  0.0684 -0.2839
17424TIP3    H173763   3.396   0.717  15.350  0.1139 -1.3353  0.5500
17424TIP3    H273764   3.290   0.625  15.292  0.1259 -1.4586  0.7230
17425TIP3   OH273765   6.092   6.318   6.202  0.2799 -0.2195 -0.1888
17425TIP3    H173766   6.174   6.363   6.222  0.4602 -1.0720  1.0286
17425TIP3    H273767   6.033   6.388   6.173  0.4632  0.8695  1.9543
17426TIP3   OH273768   2.574   0.319   4.516  0.3396  0.0176 -0.2740
17426TIP3    H173769   2.485   0.283   4.514  0.2492  0.2637 -0.5441
17426TIP3    H273770   2.629   0.248   4.483  0.4747 -0.8284  1.7065
17427TIP3   OH273771   1.085   1.328  14.370  0.0800  0.2993  0.0949
17427TIP3    H173772   1.158   1.343  14.430 -0.9015  2.0001  0.9044
17427TIP3    H273773   1.125   1.327  14.283  0.9351  2.4491  0.4382
17428TIP3   OH273774   0.505   4.133  16.361 -0.4974 -0.1117  0.1825
17428TIP3    H173775   0.499   4.225  16.338  1.2714 -0.1441 -0.4757
17428TIP3    H273776   0.545   4.132  16.448  0.2222 -0.2757 -0.1455
17429TIP3   OH273777   4.776   4.808  12.999 -0.5502  0.0136 -0.0081
17429TIP3    H173778   4.751   4.723  12.964 -2.2840  0.6554 -0.3867
17429TIP3    H273779   4.763   4.869  12.927  0.1934  0.6784  0.4063
17430TIP3   OH273780   3.788   5.842   1.043 -0.0801  0.3269 -0.4223
17430TIP3    H173781   3.850   5.808   0.978  0.7825  0.3205  0.3952
17430TIP3    H273782   3.715   5.875   0.991  0.4657  0.0390 -1.3870
17431TIP3   OH273783   6.448   2.213  15.294 -0.0120  0.4993  0.3793
17431TIP3    H173784   6.476   2.165  15.372 -0.1449  1.5887  1.0936
17431TIP3    H273785   6.398   2.287  15.327 -0.8651  0.4581 -0.7719
17432TIP3   OH273786   4.306   6.548  12.699  0.4026  0.0527  0.1587
17432TIP3    H173787   4.340   6.551  12.788 -3.6682  0.6976  1.8127
17432TIP3    H273788   4.296   6.454  12.680  1.8336 -0.1014  0.1352
17433TIP3   OH273789   3.232   4.781  14.199 -0.1170 -0.3330 -0.0650
17433TIP3    H173790   3.244   4.876  14.203  0.9771 -0.4688  0.1756
17433TIP3    H273791   3.286   4.748  14.271  0.1646 -1.1884 -0.6661
17434TIP3   OH273792   1.630   4.955   5.788  0.0415 -0.1793 -0.0068
17434TIP3    H173793   1.663   5.008   5.716  0.4086 -1.9872 -1.2221
17434TIP3    H273794   1.625   5.015   5.863  0.3597  1.5422 -1.3456
17435TIP3   OH273795   4.793   5.806   0.106 -0.7971  0.0152  0.7440
17435TIP3    H173796   4.810   5.775   0.017  1.3918 -0.0753  1.1650
17435TIP3    H273797   4.764   5.897   0.094  3.8083  1.5529  0.0945
17436TIP3   OH273798   5.139   6.174  16.714 -0.1543  0.1262 -0.1445
17436TIP3    H173799   5.181   6.132  16.789 -1.2781 -0.0512  0.3998
17436TIP3    H273800   5.135   6.106  16.647  2.1166  0.6874 -0.8759
17437TIP3   OH273801   2.120   3.639  16.684 -0.2058  0.0221  0.2860
17437TIP3    H173802   2.121   3.617  16.591 -0.6622  1.1410  0.0080
17437TIP3    H273803   2.164   3.566  16.726 -0.6908 -0.8742 -0.7304
17438TIP3   OH273804   5.077   4.602   3.659 -0.2891 -0.1486 -0.0557
17438TIP3    H173805   5.116   4.554   3.732 -0.9659 -1.7469 -0.7065
17438TIP3    H273806   5.109   4.691   3.669  0.2296 -0.5092  1.7625
17439TIP3   OH273807   0.264   4.478  12.401  0.3045  0.3725  0.1519
17439TIP3    H173808   0.275   4.563  12.358  0.8429 -0.0924 -0.6473
17439TIP3    H273809   0.180   4.446  12.368  1.1987 -0.4487 -1.3977
17440TIP3   OH273810   3.573   1.282   1.936  0.7387 -0.0715  0.2779
17440TIP3    H173811   3.524   1.333   2.000  0.5411 -0.0021  0.0673
17440TIP3    H273812   3.512   1.266   1.865  1.0489  0.0982 -0.0289
17441TIP3   OH273813   5.671   3.424   4.896  0.2101 -0.6336 -0.8604
17441TIP3    H173814   5.620   3.373   4.834  0.4595 -0.1697 -1.4505
17441TIP3    H273815   5.618   3.501   4.914  0.4256 -0.4562 -0.9879
17442TIP3   OH273816   2.950   1.065  16.303 -0.1109  0.9547 -0.1773
17442TIP3    H173817   2.985   1.137  16.356  2.7587 -1.2428  1.0243
17442TIP3    H273818   2.861   1.052  16.336  0.6686  1.4359  2.2232
17443TIP3   OH273819   0.777   1.848  14.819 -0.4518 -0.5011 -0.4172
17443TIP3    H173820   0.872   1.840  14.811 -0.2648 -0.6744  1.6959
17443TIP3    H273821   0.764   1.925  14.874 -1.5368 -0.7018 -0.3860
17444TIP3   OH273822   1.873   3.781   0.543 -0.2837  0.4858 -0.4893
17444TIP3    H173823   1.900   3.809   0.630 -1.9930 -0.2817  0.3106
17444TIP3    H273824   1.839   3.860   0.501 -1.7432  0.3665  0.4468
17445TIP3   OH273825   6.231   0.002   3.213  1.0387 -0.0119  0.2812
17445TIP3    H173826   6.154  -0.001   3.157  1.6619 -0.7834 -0.5430
17445TIP3    H273827   6.242  -0.088   3.245  1.4821  0.1337  0.5503
17446TIP3   OH273828   3.870   5.013   2.712 -0.1136 -0.1905 -0.5941
17446TIP3    H173829   3.782   5.050   2.725 -0.4389 -1.2330  0.2045
17446TIP3    H273830   3.858   4.919   2.722  1.3013 -0.2539  0.6957
17447TIP3   OH273831   1.382   5.484   4.106  0.1382 -0.3723  0.1292
17447TIP3    H173832   1.384   5.400   4.060  0.4026 -0.2702 -0.0465
17447TIP3    H273833   1.304   5.479   4.161 -0.6697 -0.1470 -0.9834
17448TIP3   OH273834   4.470   0.700  14.370  0.2622 -0.7507  0.0181
17448TIP3    H173835   4.537   0.759  14.405  0.5950 -1.0063 -0.1895
17448TIP3    H273836   4.387   0.740  14.396  0.4622  0.4719 -1.1802
17449TIP3   OH273837   5.975   6.697  12.259  0.3597 -0.1573 -0.4798
17449TIP3    H173838   5.955   6.606  12.283 -1.0565  0.0256 -0.9305
17449TIP3    H273839   6.022   6.731  12.335 -2.3667 -0.1846  1.2937
17450TIP3   OH273840   0.148   1.443  11.301  0.3630 -0.0927  0.6649
17450TIP3    H173841   0.111   1.415  11.217 -0.5063  1.2954  0.5589
17450TIP3    H273842   0.074   1.440  11.361  1.2758 -2.3728  1.7270
17451TIP3   OH273843   6.425   4.309  13.925 -0.0599  0.4265  0.1219
17451TIP3    H173844   6.446   4.328  13.834 -0.8588  0.2095 -0.1154
17451TIP3    H273845   6.500   4.259  13.957 -0.0275  0.0241 -0.5764
17452TIP3   OH273846   4.124   5.143   2.209  0.0405  0.1620 -0.0785
17452TIP3    H173847   4.188   5.119   2.276  0.9666 -0.2337 -1.0849
17452TIP3    H273848   4.076   5.216   2.248 -0.9339 -1.4861  1.8869
17453TIP3   OH273849   4.585   4.764   3.822 -0.6646 -0.6532  0.3795
17453TIP3    H173850   4.673   4.727   3.811 -1.4352 -1.9375 -1.7477
17453TIP3    H273851   4.555   4.727   3.905  1.1669  0.5987  1.6445
17454TIP3   OH273852   1.951   2.906   4.562  0.4725  0.1511 -0.5192
17454TIP3    H173853   1.902   2.979   4.600 -0.1311 -0.7329  0.4065
17454TIP3    H273854   1.916   2.897   4.473  0.4315  0.8686 -0.5781
17455TIP3   OH273855   4.814   2.094   2.224  0.7275  0.0421 -0.0617
17455TIP3    H173856   4.883   2.092   2.157  1.6535 -0.2474  0.8774
17455TIP3    H273857   4.733   2.101   2.175  1.2031 -2.7386 -1.3416
17456TIP3   OH273858   0.321   2.765  13.830 -0.1061  0.6360  0.5150
17456TIP3    H173859   0.324   2.719  13.914  2.9264  1.0925  0.7146
17456TIP3    H273860   0.285   2.851  13.851  1.5609  1.1125  1.5859
17457TIP3   OH273861   4.188   4.055   0.871  0.5400 -0.3573 -0.0184
17457TIP3    H173862   4.229   3.985   0.921 -1.1034 -0.5794  1.0374
17457TIP3    H273863   4.113   4.014   0.828  0.2887  0.4660 -0.3823
17458TIP3   OH273864   0.327   1.234  14.374  0.2066 -0.2924  0.4996
17458TIP3    H173865   0.390   1.269  14.437  0.9421 -0.9804  0.1671
17458TIP3    H273866   0.382   1.192  14.307 -0.5619  0.1848 -0.4478
17459TIP3   OH273867   6.796   6.075  12.173 -0.6067 -0.0064 -0.6893
17459TIP3    H173868   6.720   6.128  12.149 -0.4011  0.0164 -1.3089
17459TIP3    H273869   6.819   6.105  12.261 -2.7402 -1.6766  0.4853
17460TIP3   OH273870   2.511   3.241  12.492  0.7642 -0.2633 -0.2793
17460TIP3    H173871   2.581   3.197  12.541  0.8250 -0.5210 -0.5920
17460TIP3    H273872   2.550   3.324  12.465  0.0931  0.7536  1.7580
17461TIP3   OH273873   0.660   0.904   4.858 -0.1514  0.2929  0.1780
17461TIP3    H173874   0.577   0.934   4.893  0.3853  1.4624  0.4926
17461TIP3    H273875   0.637   0.835   4.796 -1.2727 -0.1002  1.0081
17462TIP3   OH273876   3.396   0.671  13.910  0.4898  0.3201  0.3018
17462TIP3    H173877   3.372   0.651  13.820  0.0863 -1.5587  0.8014
17462TIP3    H273878   3.474   0.724  13.903  0.5762  0.0165 -1.1582
17463TIP3   OH273879   0.672   2.184  12.290 -0.3136 -0.0528 -0.3805
17463TIP3    H173880   0.578   2.170  12.278 -0.1327 -1.3544 -0.4165
17463TIP3    H273881   0.682   2.279  12.292 -1.4706  0.1237 -1.6514
17464TIP3   OH273882   4.809   0.495   2.531  0.3868 -0.3697 -0.0973
17464TIP3    H173883   4.739   0.484   2.467 -0.7171  1.9051  0.6628
17464TIP3    H273884   4.779   0.565   2.588  2.0919 -1.2134  1.9210
17465TIP3   OH273885   4.556   1.334  14.153 -0.2215 -0.5262  0.6738
17465TIP3    H173886   4.504   1.263  14.116  0.6293 -0.0201 -1.5675
17465TIP3    H273887   4.638   1.293  14.179  0.3399 -0.3476 -0.7877
17466TIP3   OH273888   4.814   6.477   4.139  0.1588  0.1766 -0.2861
17466TIP3    H173889   4.834   6.455   4.048 -0.0266 -0.5665 -0.1494
17466TIP3    H273890   4.836   6.570   4.146 -0.2681  0.3588 -1.2153
17467TIP3   OH273891   2.402   2.187   3.193 -0.5592  0.0617  0.1310
17467TIP3    H173892   2.395   2.104   3.241 -0.8219 -0.1283 -0.2325
17467TIP3    H273893   2.327   2.239   3.224  0.4318  0.7292  1.4416
17468TIP3   OH273894   1.192   0.959  12.811 -0.1411 -0.1888 -0.2016
17468TIP3    H173895   1.166   0.871  12.785  3.1245 -1.2293 -0.2048
17468TIP3    H273896   1.203   0.953  12.906  3.6617 -0.9089 -0.5836
17469TIP3   OH273897   0.581   3.765  13.662  0.4136  0.3332 -0.7331
17469TIP3    H173898   0.594   3.674  13.688  3.4350  0.9820  0.3002
17469TIP3    H273899   0.503   3.793  13.708 -0.6835 -1.7936 -1.2547
17470TIP3   OH273900   2.143   1.321  11.401  0.1623  0.0838  0.3072
17470TIP3    H173901   2.059   1.294  11.363  0.0015  0.9292  0.0589
17470TIP3    H273902   2.207   1.263  11.360 -0.0710  0.6581 -0.8898
17471TIP3   OH273903   2.560   0.116   5.403  0.3065 -0.0608 -0.4612
17471TIP3    H173904   2.540   0.048   5.468 -1.8708 -0.0344 -1.0624
17471TIP3    H273905   2.641   0.087   5.362  0.2118 -1.5030  0.3462
17472TIP3   OH273906   3.331   1.057  14.141  1.0174 -0.0648 -0.2184
17472TIP3    H173907   3.362   1.086  14.055  1.9285 -0.4128 -0.0105
17472TIP3    H273908   3.250   1.009  14.123 -0.3759  2.3311 -0.6057
17473TIP3   OH273909   1.595   3.797  11.451 -0.1018 -0.5321 -0.1613
17473TIP3    H173910   1.538   3.815  11.526 -1.6737  3.1715 -2.1312
17473TIP3    H273911   1.620   3.884  11.418  2.6753 -2.0741 -2.3836
17474TIP3   OH273912   6.619   6.428  14.348  0.2719  0.0862 -0.3028
17474TIP3    H173913   6.599   6.467  14.263 -0.2354  0.8525  0.1688
17474TIP3    H273914   6.610   6.500  14.411 -3.0906 -1.3173  0.9128
17475TIP3   OH273915   3.130   0.660   3.890  0.2883  0.6965  0.2276
17475TIP3    H173916   3.225   0.662   3.900  0.3438 -0.5808  0.0861
17475TIP3    H273917   3.108   0.742   3.846  1.6333 -0.2769 -2.3418
17476TIP3   OH273918   6.121   2.319  14.249 -0.0699  0.1005 -0.3425
17476TIP3    H173919   6.086   2.405  14.274  1.6922  0.8585 -0.3956
17476TIP3    H273920   6.170   2.290  14.325 -0.7730 -0.9347 -0.2773
17477TIP3   OH273921   2.211   3.246   4.148 -0.7926  0.1356 -0.3980
17477TIP3    H173922   2.139   3.282   4.200 -1.8281  0.6371 -2.1273
17477TIP3    H273923   2.181   3.256   4.057  1.5684  0.6007 -1.1459
17478TIP3   OH273924   1.484   4.378  15.973 -0.4064 -0.0309 -0.1989
17478TIP3    H173925   1.423   4.315  16.011  0.3192 -1.5102 -1.4532
17478TIP3    H273926   1.440   4.407  15.892  0.1486 -0.4359 -0.6483
17479TIP3   OH273927   6.128   3.664  16.956  0.1723 -0.3722 -0.0087
17479TIP3    H173928   6.213   3.624  16.936  0.1392  0.0427 -0.9993
17479TIP3    H273929   6.065   3.593  16.945  0.2300 -0.3172 -0.7289
17480TIP3   OH273930   5.720   2.538  13.225  0.4858  0.2013 -0.0045
17480TIP3    H173931   5.721   2.633  13.236  0.3642  0.2920 -0.7341
17480TIP3    H273932   5.738   2.503  13.312  1.5486  0.9140  0.0751
17481TIP3   OH273933   5.669   4.786   5.658  0.0859  0.3273  0.6089
17481TIP3    H173934   5.663   4.709   5.714 -0.2596 -0.4246 -0.4291
17481TIP3    H273935   5.713   4.754   5.579 -3.4758  0.2478 -1.4289
17482TIP3   OH273936   4.863   1.409  11.672 -0.2720 -0.2530 -0.4194
17482TIP3    H173937   4.904   1.324  11.658  1.8211  0.3630  1.6771
17482TIP3    H273938   4.895   1.463  11.601  0.2191 -0.5751 -0.4447
17483TIP3   OH273939   2.378   5.180  15.610 -0.9335  0.2790 -0.0033
17483TIP3    H173940   2.401   5.145  15.524 -1.0008 -1.2294  0.5759
17483TIP3    H273941   2.462   5.193  15.654 -0.9811 -1.4920  0.6648
17484TIP3   OH273942   5.876   3.642   2.687  0.2878  0.2116 -0.3137
17484TIP3    H173943   5.822   3.565   2.665  2.6973 -1.9633  1.0673
17484TIP3    H273944   5.851   3.663   2.777 -1.7510  2.3016 -1.3313
17485TIP3   OH273945   5.286   3.693   5.630 -0.5042 -0.4341 -0.0551
17485TIP3    H173946   5.376   3.685   5.662 -0.1306 -3.3754 -1.6451
17485TIP3    H273947   5.295   3.720   5.538 -1.2349 -1.0531 -0.3151
17486TIP3   OH273948   2.288   5.036  16.238  0.2254 -0.4501  0.5739
17486TIP3    H173949   2.289   5.099  16.166  1.4455 -1.3241 -0.1994
17486TIP3    H273950   2.357   5.066  16.298  1.1271 -1.2772 -0.0235
17487TIP3   OH273951   2.987   1.458   5.156 -0.1238 -0.0670 -0.2254
17487TIP3    H173952   3.019   1.402   5.226  0.7856  0.5648 -0.1252
17487TIP3    H273953   2.976   1.544   5.197 -0.8966 -0.0149 -0.5302
17488TIP3   OH273954   4.950   0.199   1.036  0.0491 -0.3885 -0.3061
17488TIP3    H173955   4.868   0.231   0.997 -0.7470  0.0920  1.6734
17488TIP3    H273956   4.936   0.105   1.048  0.6773 -0.7212 -2.0364
17489TIP3   OH273957   2.932   2.334  14.778  0.3522 -0.0844  0.2356
17489TIP3    H173958   2.968   2.375  14.857  0.0566 -0.4642  0.5682
17489TIP3    H273959   2.987   2.367  14.707 -0.0622  1.1068  0.4704
17490TIP3   OH273960   5.114   1.881   6.116 -0.2923  0.1894 -0.2702
17490TIP3    H173961   5.052   1.923   6.175 -1.7976  0.1237 -1.7625
17490TIP3    H273962   5.073   1.797   6.095 -0.2111  0.5936 -2.1028
17491TIP3   OH273963   5.842   1.549   3.911  0.1690 -0.3160 -0.0822
17491TIP3    H173964   5.784   1.569   3.838  0.7771 -0.4175 -0.5902
17491TIP3    H273965   5.806   1.598   3.985  0.7175  1.3635 -0.9207
17492TIP3   OH273966   0.263   2.155  14.534 -0.1969  0.2805  0.0864
17492TIP3    H173967   0.214   2.230  14.568  0.6855  1.0052 -0.2428
17492TIP3    H273968   0.339   2.193  14.492  0.7418 -0.8511  0.7358
17493TIP3   OH273969   3.896   5.110  12.412 -0.2418  0.0101 -0.2732
17493TIP3    H173970   3.895   5.204  12.395  0.9009 -0.0855 -0.8778
17493TIP3    H273971   3.930   5.102  12.501 -1.9162  0.2490  0.4129
17494TIP3   OH273972   3.856   4.477   5.903 -0.1460  1.0654  0.3298
17494TIP3    H173973   3.829   4.533   5.976 -0.9699  0.7424  0.2782
17494TIP3    H273974   3.774   4.440   5.870  0.5025 -1.5263  1.4528
17495TIP3   OH273975   6.816   5.308  12.397 -0.7055  0.0252  0.1924
17495TIP3    H173976   6.759   5.385  12.395  0.2630  0.7611  0.6752
17495TIP3    H273977   6.770   5.246  12.454 -1.5969  0.1470 -0.3827
17496TIP3   OH273978   3.484   3.383   0.266 -0.4897  0.0918 -0.0931
17496TIP3    H173979   3.501   3.295   0.300 -2.7077 -0.7933 -1.1347
17496TIP3    H273980   3.567   3.429   0.276  0.0056 -1.3087  2.8601
17497TIP3   OH273981   3.855   1.588  14.097  0.2040 -0.2576  0.1402
17497TIP3    H173982   3.832   1.653  14.164 -0.6689  1.7311 -2.0257
17497TIP3    H273983   3.947   1.607  14.076 -0.4672  1.2963 -1.5354
17498TIP3   OH273984   2.229   5.559  15.965  0.2961  0.0587  0.0568
17498TIP3    H173985   2.306   5.546  15.911  1.1302  1.0926  0.9751
17498TIP3    H273986   2.207   5.651  15.953 -0.2354 -0.0023  0.5428
17499TIP3   OH273987   5.551   1.386  14.776  0.1959  0.1172 -0.2662
17499TIP3    H173988   5.463   1.412  14.748  0.5737  2.8706  0.8773
17499TIP3    H273989   5.564   1.300  14.737 -3.3178 -0.7304  0.2136
17500TIP3   OH273990   4.406   6.354  10.870 -0.0006 -0.6987  0.4428
17500TIP3    H173991   4.319   6.368  10.909  0.5634 -0.2732  1.5537
17500TIP3    H273992   4.423   6.261  10.883 -0.7939 -1.0395 -0.8396
17501TIP3   OH273993   2.377   6.742   0.257  0.5561 -0.7445  0.5655
17501TIP3    H173994   2.456   6.797   0.263 -0.7318  1.0755  1.2406
17501TIP3    H273995   2.408   6.660   0.219  2.5262  0.4659 -0.5331
17502TIP3   OH273996   1.706   3.218  10.824  0.4684  0.0736 -0.1225
17502TIP3    H173997   1.614   3.193  10.816 -0.4535  3.0025  0.7613
17502TIP3    H273998   1.753   3.135  10.830 -2.1291 -1.4677 -0.4515
17503TIP3   OH273999   5.375   1.612  14.961  0.3097  0.9218 -0.0611
17503TIP3    H174000   5.303   1.663  14.923  0.9992  0.2956 -2.2403
17503TIP3    H274001   5.422   1.675  15.017  0.5715  2.4311 -1.9405
17504TIP3   OH274002   6.628   6.054  16.984  0.5455  0.6542  0.0429
17504TIP3    H174003   6.679   6.006  17.051 -1.8077 -1.6326  0.2904
17504TIP3    H274004   6.657   6.016  16.901 -0.0772 -0.0147  0.1238
17505TIP3   OH274005   5.285   1.267  11.762  0.6175 -0.5974  0.5392
17505TIP3    H174006   5.379   1.255  11.751  0.3663 -4.1563  1.6097
17505TIP3    H274007   5.246   1.195  11.712 -1.6451  1.5647 -0.9621
17506TIP3   OH274008   1.730   0.142  16.854 -0.0969 -0.0751 -0.2046
17506TIP3    H174009   1.649   0.184  16.824 -0.6122 -2.3187 -2.1682
17506TIP3    H274010   1.712   0.048  16.844  2.0989 -0.6562  1.1203
17507TIP3   OH274011   3.164   5.857  15.708  0.2801  0.2144 -0.0258
17507TIP3    H174012   3.242   5.911  15.718  1.1351 -0.8999 -0.5976
17507TIP3    H274013   3.195   5.777  15.666 -1.5944  0.8377 -2.7608
17508TIP3   OH274014   3.234   0.311   3.776 -0.1195 -0.2580  0.0862
17508TIP3    H174015   3.141   0.319   3.798  0.1920 -0.0168  1.3752
17508TIP3    H274016   3.266   0.401   3.775 -0.2308 -0.2152 -1.9573
17509TIP3   OH274017   6.461   4.559   1.195  0.4471  0.1449  0.3050
17509TIP3    H174018   6.495   4.472   1.174  0.3134  0.3875 -0.9127
17509TIP3    H274019   6.377   4.541   1.239  1.8679 -0.4310  2.9257
17510TIP3   OH274020   0.501   1.874   0.969 -0.3273  0.2505  0.0408
17510TIP3    H174021   0.481   1.912   1.054 -0.3344 -0.4924  0.3748
17510TIP3    H274022   0.490   1.946   0.907 -1.4287  0.5059  0.5349
17511TIP3   OH274023   4.432   6.695   5.826 -0.6289 -0.1938  0.4211
17511TIP3    H174024   4.465   6.648   5.902  1.2077 -0.6780 -0.6495
17511TIP3    H274025   4.343   6.720   5.850 -0.4169 -1.2027  2.3326
17512TIP3   OH274026   6.631   4.168  14.010 -0.0842  0.0500 -0.2837
17512TIP3    H174027   6.711   4.171  14.062  1.0941 -0.5402 -2.0103
17512TIP3    H274028   6.649   4.102  13.942 -2.3166 -0.6681 -0.2360
17513TIP3   OH274029   3.210   2.019  14.543  0.1769 -0.2606  0.1016
17513TIP3    H174030   3.152   2.000  14.617 -0.8017 -0.1443 -0.6250
17513TIP3    H274031   3.233   2.111  14.555 -0.1918 -0.1674  0.1240
17514TIP3   OH274032   0.371   0.970   4.592 -0.0029 -0.4251 -0.3384
17514TIP3    H174033   0.380   0.973   4.496  0.6760  1.5958 -0.2391
17514TIP3    H274034   0.441   0.912   4.621  0.2940 -0.4169 -1.0161
17515TIP3   OH274035   5.857   2.167  11.840 -0.1969  0.0237 -0.2582
17515TIP3    H174036   5.786   2.164  11.776 -1.0994  3.1917  0.5247
17515TIP3    H274037   5.936   2.149  11.789 -1.1379  0.3623 -1.8722
17516TIP3   OH274038   3.983   1.040  15.616  0.0512  0.5222  0.8808
17516TIP3    H174039   4.002   1.033  15.523 -0.6049  1.8703  0.6331
17516TIP3    H274040   4.024   1.122  15.643  1.9076 -0.8248  2.2144
17517TIP3   OH274041   2.251   3.746   5.035 -0.0778  0.0722 -0.5162
17517TIP3    H174042   2.279   3.835   5.057  1.1804  0.4060 -3.1622
17517TIP3    H274043   2.225   3.752   4.943  1.9626 -2.6784 -1.3668
17518TIP3   OH274044   6.109   3.422   0.887 -0.0460 -0.3352  0.0832
17518TIP3    H174045   6.205   3.420   0.898 -0.1907 -2.0894  1.3318
17518TIP3    H274046   6.091   3.355   0.822 -0.5005 -0.6947  0.5735
17519TIP3   OH274047   4.415   1.318   0.287  0.6927  0.2173  0.1617
17519TIP3    H174048   4.345   1.259   0.316  0.1984  0.9248  0.4257
17519TIP3    H274049   4.463   1.267   0.221 -1.0221  0.2725 -1.1687
17520TIP3   OH274050   1.851   2.577   4.056 -0.2080  0.0327  0.6208
17520TIP3    H174051   1.765   2.566   4.097 -0.8572  1.5797 -0.2427
17520TIP3    H274052   1.896   2.495   4.071 -1.8075 -0.7560  1.2118
17521TIP3   OH274053   5.501   6.170  15.484 -0.1491 -0.6145  0.2065
17521TIP3    H174054   5.486   6.175  15.578  1.3890 -1.4438  0.5191
17521TIP3    H274055   5.552   6.248  15.463  2.5065 -2.1431  0.7080
17522TIP3   OH274056   4.313   1.578   4.638 -0.8241  0.0355 -0.4337
17522TIP3    H174057   4.378   1.607   4.575 -0.4080  1.1413  0.4959
17522TIP3    H274058   4.257   1.517   4.589  0.5702 -0.5077 -1.3821
17523TIP3   OH274059   3.611   0.903  14.485 -0.1084 -0.4996  0.0912
17523TIP3    H174060   3.690   0.850  14.474  0.5620  0.4456  0.2674
17523TIP3    H274061   3.631   0.960  14.559 -0.1323  1.2141 -1.1953
17524TIP3   OH274062   3.719   1.989  13.954 -0.3567  0.1175 -0.1305
17524TIP3    H174063   3.794   2.024  13.906  0.2973  0.1001  0.8516
17524TIP3    H274064   3.673   2.067  13.986 -0.0126  0.1158  0.3785
17525TIP3   OH274065   0.847   6.127   5.818  0.0154  0.0896  0.0453
17525TIP3    H174066   0.905   6.185   5.868 -0.5842 -0.3710  1.3109
17525TIP3    H274067   0.760   6.142   5.856 -0.6673  0.5809 -1.6476
17526TIP3   OH274068   5.273   6.349   3.080 -0.5536 -0.2678 -0.1619
17526TIP3    H174069   5.318   6.412   3.136 -1.7032 -0.0368  0.5128
17526TIP3    H274070   5.181   6.376   3.082 -1.7509 -4.0519  3.0738
17527TIP3   OH274071   6.460   2.699   3.839 -0.0624  0.2910  0.2514
17527TIP3    H174072   6.368   2.711   3.818  0.2953  1.2175 -0.8413
17527TIP3    H274073   6.460   2.662   3.927 -1.5125 -0.9647 -0.2620
17528TIP3   OH274074   5.112   0.945   1.517  0.2703 -0.1080  0.2551
17528TIP3    H174075   5.051   0.872   1.529  1.9330 -1.4649  0.5541
17528TIP3    H274076   5.059   1.013   1.476 -1.8542 -0.6852  1.9336
17529TIP3   OH274077   3.465   6.247   1.746 -0.1215  0.4847 -0.0903
17529TIP3    H174078   3.416   6.193   1.684  0.3494 -1.2590  1.0223
17529TIP3    H274079   3.439   6.337   1.725 -1.8329 -0.2374 -1.2004
17530TIP3   OH274080   4.882   1.281   5.570  0.2952  0.2237 -0.1219
17530TIP3    H174081   4.866   1.296   5.663  1.7834 -0.5200  0.2713
17530TIP3    H274082   4.880   1.185   5.561 -2.4023  0.3506 -1.3467
17531TIP3   OH274083   4.428   5.059   3.216 -0.0164 -0.2927 -0.8810
17531TIP3    H174084   4.378   5.001   3.159 -0.5017 -0.7426  0.0071
17531TIP3    H274085   4.404   5.034   3.305  1.7638 -0.5058 -0.4326
17532TIP3   OH274086   2.136   5.986   2.107 -0.4819  0.1069  0.1933
17532TIP3    H174087   2.204   6.027   2.054 -0.8397 -0.2007 -0.5178
17532TIP3    H274088   2.162   6.004   2.197 -0.0858  1.0041 -0.0875
17533TIP3   OH274089   1.035   3.845   0.986  0.3974  0.0125  0.2410
17533TIP3    H174090   0.943   3.839   1.010  0.4531  0.1968  0.5027
17533TIP3    H274091   1.083   3.830   1.067  0.5730  1.3423  0.4010
17534TIP3   OH274092   3.028   3.494  16.021 -0.0986  0.1605  0.2354
17534TIP3    H174093   2.950   3.465  16.069 -0.8334  2.2481  0.3925
17534TIP3    H274094   3.045   3.425  15.957  0.5655 -2.4455  3.0857
17535TIP3   OH274095   0.373   4.803   4.923  0.1649 -0.1677 -0.1993
17535TIP3    H174096   0.432   4.866   4.882  1.9338 -0.3891  1.8910
17535TIP3    H274097   0.378   4.725   4.868  3.1220 -0.7497  0.7957
17536TIP3   OH274098   1.411   6.732   5.709  0.1139  0.3353 -0.3394
17536TIP3    H174099   1.441   6.751   5.619 -0.2312  0.2477 -0.4731
17536TIP3    H274100   1.338   6.672   5.697 -1.0557  1.6774 -0.0943
17537TIP3   OH274101   0.646   3.364  14.366  0.4118 -0.0621 -0.1177
17537TIP3    H174102   0.598   3.446  14.382  0.9799  0.1373  0.5871
17537TIP3    H274103   0.665   3.366  14.273 -0.5444  0.0781 -0.3207
17538TIP3   OH274104   6.100   2.500  16.984  0.9844  0.1994  0.6354
17538TIP3    H174105   6.176   2.479  17.038  1.0830  0.2488  0.5143
17538TIP3    H274106   6.089   2.424  16.927  0.9605  0.2065  0.6289
17539TIP3   OH274107   3.611   1.250   5.544  0.2951  0.2250  0.3282
17539TIP3    H174108   3.549   1.241   5.471 -0.0789 -0.8189  0.7609
17539TIP3    H274109   3.600   1.340   5.574 -0.7312  0.1727  0.1348
17540TIP3   OH274110   4.133   0.187  11.980 -0.3147 -0.2663 -0.0778
17540TIP3    H174111   4.118   0.117  11.916 -0.4068 -0.0593 -0.2806
17540TIP3    H274112   4.050   0.234  11.985 -0.4965 -0.6600  0.6497
17541TIP3   OH274113   1.525   1.828   5.182 -0.2456 -0.3419  0.2698
17541TIP3    H174114   1.559   1.915   5.163  0.6788 -0.9365 -0.8946
17541TIP3    H274115   1.585   1.769   5.136 -1.7704 -1.5071 -0.2447
17542TIP3   OH274116   1.069   2.499   1.486  0.3702 -0.4274  0.2009
17542TIP3    H174117   1.148   2.458   1.450  0.4921 -0.4783  0.5263
17542TIP3    H274118   1.027   2.429   1.536 -0.3485 -0.6574 -0.6982
17543TIP3   OH274119   0.855   5.238  16.279  0.2825  0.4029  0.0041
17543TIP3    H174120   0.838   5.148  16.306 -1.2412  0.5106 -0.5265
17543TIP3    H274121   0.853   5.289  16.360 -2.7645  0.5040 -0.0853
17544TIP3   OH274122   1.732   4.893  13.063  0.5914  0.0919  0.3111
17544TIP3    H174123   1.709   4.801  13.055  2.6732 -0.2323 -3.1544
17544TIP3    H274124   1.754   4.905  13.155 -0.9177 -2.5332  1.0561
17545TIP3   OH274125   5.284   6.378   0.426  0.2619  0.1449  0.6223
17545TIP3    H174126   5.321   6.463   0.400  1.2744 -0.7553 -0.9073
17545TIP3    H274127   5.360   6.323   0.443 -0.3705  0.0006  3.2938
17546TIP3   OH274128   6.319   6.528  13.924 -0.0445 -0.0025  0.2846
17546TIP3    H174129   6.357   6.448  13.887  3.2720  0.8581  1.6204
17546TIP3    H274130   6.237   6.539  13.877  0.2219 -3.2724 -1.1229
17547TIP3   OH274131   4.035   1.449  16.208  0.3018  0.7311  0.6243
17547TIP3    H174132   4.046   1.539  16.240  2.0889  0.8587 -0.3117
17547TIP3    H274133   4.034   1.458  16.113  1.5959 -0.3624  0.4943
17548TIP3   OH274134   2.253   1.238  12.087  0.3998  0.3223 -0.7202
17548TIP3    H174135   2.316   1.310  12.075  1.7863 -0.9440 -1.2182
17548TIP3    H274136   2.244   1.200  11.999  0.6877 -0.9334 -0.2100
17549TIP3   OH274137   0.020   5.697  11.656 -0.2994  0.4455 -0.2866
17549TIP3    H174138   0.076   5.694  11.734  0.0050 -1.6638 -0.5399
17549TIP3    H274139  -0.009   5.788  11.650 -1.9755  0.2538  3.4742
17550TIP3   OH274140   4.056   1.391  15.447 -0.5345 -0.1942 -0.0248
17550TIP3    H174141   4.099   1.446  15.382 -3.8049  0.8057 -1.4502
17550TIP3    H274142   4.106   1.309  15.447  1.6509  1.0933 -1.1651
17551TIP3   OH274143   3.288   1.870  11.969  0.1498  0.0372  0.1272
17551TIP3    H174144   3.282   1.933  12.041  0.7280 -0.0422  0.2513
17551TIP3    H274145   3.376   1.832  11.978 -0.0518 -0.5094 -0.1747
17552TIP3   OH274146   6.247   5.806  14.993  0.3652  0.2079  0.3303
17552TIP3    H174147   6.251   5.857  15.074 -0.8558 -0.0800  0.5772
17552TIP3    H274148   6.288   5.863  14.927 -0.3146  1.2027  0.7582
17553TIP3   OH274149   3.593   3.252  13.292 -0.4429 -0.8062  0.7682
17553TIP3    H174150   3.641   3.183  13.246 -1.2161 -1.1707  0.5046
17553TIP3    H274151   3.575   3.317  13.224  2.0709  0.6582  1.4202
17554TIP3   OH274152   2.724   2.841  12.708  0.1617  0.1061  0.4271
17554TIP3    H174153   2.674   2.911  12.750 -0.5072 -0.4519  0.5752
17554TIP3    H274154   2.660   2.771  12.693  0.5970 -0.0813 -0.6471
17555TIP3   OH274155   4.221   1.020   5.627 -0.2107 -0.0236  0.4784
17555TIP3    H174156   4.141   1.037   5.676  0.1797  0.2566  1.0220
17555TIP3    H274157   4.266   0.952   5.677  0.6839  1.0004  1.0845
17556TIP3   OH274158   2.363   2.828   3.907 -0.0628  0.3189 -0.4086
17556TIP3    H174159   2.332   2.903   3.856 -1.2223  0.0362 -0.1247
17556TIP3    H274160   2.304   2.825   3.983 -0.3924 -1.2321 -0.7244
17557TIP3   OH274161   6.668   2.409  13.300  0.1318 -0.6905 -0.0254
17557TIP3    H174162   6.698   2.398  13.210 -0.7673  0.3290 -0.4604
17557TIP3    H274163   6.630   2.324  13.323  1.6117 -1.3847 -0.1227
17558TIP3   OH274164   5.211   4.001  15.101  0.1140  0.8486  0.1172
17558TIP3    H174165   5.117   3.991  15.115  0.3041  0.2017  0.9625
17558TIP3    H274166   5.252   3.958  15.176  1.1136 -0.2598 -1.0219
17559TIP3   OH274167   6.780   3.833   1.971 -0.4699 -0.3698  0.2955
17559TIP3    H174168   6.703   3.889   1.980 -0.1985  0.1920 -0.7722
17559TIP3    H274169   6.748   3.754   1.928 -0.4271 -0.0936 -0.2399
17560TIP3   OH274170   3.849   3.531  16.057  0.0420  0.8568 -0.3234
17560TIP3    H174171   3.939   3.504  16.036 -0.0278 -0.4022  0.9307
17560TIP3    H274172   3.795   3.456  16.034 -0.4607  0.8703  0.7912
17561TIP3   OH274173   5.729   0.637  14.658  0.0365  0.1278  0.1380
17561TIP3    H174174   5.731   0.662  14.565 -0.3802 -0.1734  0.0465
17561TIP3    H274175   5.740   0.542  14.658 -2.1425 -0.1458  0.2664
17562TIP3   OH274176   0.779   3.667  16.641  0.3569 -0.1448 -0.0231
17562TIP3    H174177   0.733   3.690  16.560 -0.1390 -2.3906 -0.4274
17562TIP3    H274178   0.749   3.730  16.705 -1.2053  0.1025 -0.9700
17563TIP3   OH274179   3.428   3.248   0.591 -0.5141 -0.1539  0.1702
17563TIP3    H174180   3.478   3.329   0.598 -1.5534  0.6430 -1.3105
17563TIP3    H274181   3.438   3.206   0.677  2.2149  0.2267  0.0850
17564TIP3   OH274182   4.172   6.717  16.748 -0.3199  0.2534 -0.3004
17564TIP3    H174183   4.211   6.793  16.704  1.1439 -0.7815 -0.8184
17564TIP3    H274184   4.128   6.669  16.678 -0.6756  0.2598 -0.0834
17565TIP3   OH274185   2.664   2.526   5.274  0.0205  0.1048 -0.7200
17565TIP3    H174186   2.587   2.555   5.324 -1.1933 -0.2352 -2.3371
17565TIP3    H274187   2.678   2.596   5.210 -0.0016 -0.6691 -1.5609
17566TIP3   OH274188   4.399   3.520   1.166  0.3082  0.5419  0.5250
17566TIP3    H174189   4.331   3.453   1.167 -1.0075  1.7932 -1.9401
17566TIP3    H274190   4.389   3.566   1.250  0.3304 -1.4109  1.6244
17567TIP3   OH274191   0.638   2.261   4.265  0.2011 -0.3402 -0.3777
17567TIP3    H174192   0.644   2.167   4.280  0.2744  0.1088  2.7059
17567TIP3    H274193   0.547   2.276   4.240 -0.1344 -1.0756  0.4016
17568TIP3   OH274194   5.153   2.818   0.906  0.7814  0.2079 -0.5139
17568TIP3    H174195   5.236   2.805   0.860  0.6678  0.0008 -0.6598
17568TIP3    H274196   5.169   2.782   0.993  0.9383  0.4364 -0.4459
17569TIP3   OH274197   5.653   1.281  16.358  0.0960 -0.5463 -0.5214
17569TIP3    H174198   5.745   1.260  16.374  0.4961  1.6014  0.1321
17569TIP3    H274199   5.642   1.268  16.263  1.1939 -0.3776 -0.6811
17570TIP3   OH274200   5.494   0.168   0.860  0.4898 -0.0498 -0.2326
17570TIP3    H174201   5.587   0.178   0.882  0.7022 -0.2999 -1.0102
17570TIP3    H274202   5.491   0.177   0.765 -0.3570  0.4882 -0.1584
17571TIP3   OH274203   6.645   2.142   6.092  0.1422  0.2724  0.1707
17571TIP3    H174204   6.594   2.075   6.138 -0.0151  0.9507  1.0110
17571TIP3    H274205   6.650   2.215   6.154  0.2662  1.0594 -0.7495
17572TIP3   OH274206   0.286   6.480   3.274  0.1679  0.2056  0.1276
17572TIP3    H174207   0.350   6.477   3.203  0.9181 -1.2290  0.8517
17572TIP3    H274208   0.202   6.462   3.230  0.3562  1.2738 -0.6928
17573TIP3   OH274209   3.686   1.955   2.625 -0.1022 -0.5626  0.2509
17573TIP3    H174210   3.674   1.945   2.530  3.0176 -2.2981 -0.0165
17573TIP3    H274211   3.733   2.037   2.635  0.4758 -0.8893  0.2174
17574TIP3   OH274212   3.483   4.092  15.040 -0.1067  0.1174 -0.4892
17574TIP3    H174213   3.455   4.157  15.103  0.5387 -1.6846  1.7175
17574TIP3    H274214   3.411   4.029  15.035  0.7793 -0.9796  0.2288
17575TIP3   OH274215   3.812   1.629   1.743 -0.2256 -0.3116 -1.1015
17575TIP3    H174216   3.828   1.537   1.764 -0.4459  0.3788  2.2516
17575TIP3    H274217   3.852   1.641   1.656  4.7034 -2.1995  0.7560
17576TIP3   OH274218   5.527   5.230   2.247 -0.0470 -0.2559  0.2191
17576TIP3    H174219   5.517   5.297   2.315 -0.3461 -1.3282  1.2459
17576TIP3    H274220   5.445   5.235   2.197 -0.3957 -0.3692  0.7695
17577TIP3   OH274221   1.191   1.028  14.170 -0.0898  0.1388  0.0254
17577TIP3    H174222   1.108   1.069  14.146  0.8266  1.9599 -0.1879
17577TIP3    H274223   1.244   1.032  14.091  0.1455 -1.1937  0.0999
17578TIP3   OH274224   4.604   2.240   1.206 -0.5116  0.2921 -0.0437
17578TIP3    H174225   4.590   2.220   1.114  1.6122  1.9074 -0.7607
17578TIP3    H274226   4.559   2.170   1.253 -0.3468 -1.3985 -2.3160
17579TIP3   OH274227   4.243   0.801   3.658 -0.5662 -0.1434 -0.3081
17579TIP3    H174228   4.153   0.833   3.662 -0.8625 -0.9806 -0.3081
17579TIP3    H274229   4.254   0.750   3.739  0.3451  1.0995  0.3635
17580TIP3   OH274230   3.145   1.210   1.008 -0.1373  0.0233  0.3719
17580TIP3    H174231   3.101   1.223   1.092  1.1294 -2.2522  1.4340
17580TIP3    H274232   3.231   1.250   1.019  0.5097 -1.4037  0.6332
17581TIP3   OH274233   4.137   3.915   1.684  0.0402 -0.4916 -0.0802
17581TIP3    H174234   4.148   3.838   1.742 -0.9446 -0.6825 -0.1360
17581TIP3    H274235   4.060   3.894   1.632  1.0671 -0.4282 -1.6692
17582TIP3   OH274236   0.585   2.935   0.145  0.1991 -0.1621 -0.4576
17582TIP3    H174237   0.570   2.892   0.061  1.4271 -0.1676 -0.6907
17582TIP3    H274238   0.561   3.027   0.130 -0.4829 -0.3560 -0.5444
17583TIP3   OH274239   6.043   0.567   4.202  0.1962  0.3757  0.2735
17583TIP3    H174240   6.063   0.645   4.253  0.0409  0.1797  0.6355
17583TIP3    H274241   6.007   0.600   4.119 -0.8801  0.6670  0.8536
17584TIP3   OH274242   0.882   1.364   6.404  0.0803  0.8058  0.4023
17584TIP3    H174243   0.864   1.450   6.367 -1.1308  0.7767  0.9154
17584TIP3    H274244   0.826   1.304   6.355  2.1164  0.0393 -1.0908
17585TIP3   OH274245   4.427   6.031  15.608 -0.5789  0.3803  0.3429
17585TIP3    H174246   4.511   6.013  15.650  0.0248  1.6085 -0.2854
17585TIP3    H274247   4.450   6.080  15.529 -1.7143 -1.5990 -1.2517
17586TIP3   OH274248   5.350   2.865   4.865 -0.2676  0.2382  0.3306
17586TIP3    H174249   5.293   2.939   4.846  0.4448  1.1261  1.5658
17586TIP3    H274250   5.433   2.887   4.823 -0.8030 -1.0702 -1.4997
17587TIP3   OH274251   3.444   3.059  16.136  0.5743 -0.4523  0.6128
17587TIP3    H174252   3.428   3.081  16.044  0.4649 -0.3177  0.6635
17587TIP3    H274253   3.536   3.032  16.138  0.8414  0.4564  0.6393
17588TIP3   OH274254   5.144   5.055   4.871  0.3866 -0.0164 -0.1673
17588TIP3    H174255   5.214   5.103   4.914  0.2103  0.7294 -0.6974
17588TIP3    H274256   5.071   5.118   4.866  0.8564  0.4048 -2.7813
17589TIP3   OH274257   4.003   0.116   4.771 -0.1650 -0.4453 -0.0758
17589TIP3    H174258   3.928   0.111   4.830 -1.4333  0.8034 -1.5129
17589TIP3    H274259   3.977   0.065   4.694  0.1426  0.5799 -0.8838
17590TIP3   OH274260   1.980   2.562   0.246  0.3876 -0.6672 -0.0599
17590TIP3    H174261   2.061   2.581   0.293  0.8438 -3.8048  0.5553
17590TIP3    H274262   1.914   2.551   0.315 -0.6661  2.1069 -0.5682
17591TIP3   OH274263   4.377   5.239   6.857 -0.2555 -0.0407  0.5430
17591TIP3    H174264   4.434   5.222   6.782  0.5801  1.6076  0.7800
17591TIP3    H274265   4.309   5.297   6.823  0.1024  0.6773  1.0361
17592TIP3   OH274266   6.010   0.197  12.548 -0.1180 -0.0670  0.5115
17592TIP3    H174267   5.925   0.173  12.584  0.1495 -0.6198  0.7784
17592TIP3    H274268   5.991   0.230  12.460 -0.5992 -0.2546  0.5477
17593TIP3   OH274269   4.273   5.627  17.042 -0.3452 -0.8014  0.0497
17593TIP3    H174270   4.251   5.691  16.974 -0.2100 -0.2769  0.4925
17593TIP3    H274271   4.349   5.665  17.086 -1.2448 -0.4683  1.3696
17594TIP3   OH274272   5.299   5.818   0.762 -0.5231  0.0938  0.2757
17594TIP3    H174273   5.307   5.912   0.780  0.5224 -0.2218  1.6231
17594TIP3    H274274   5.205   5.802   0.754 -0.7739  1.0573  1.2504
17595TIP3   OH274275   6.292   1.645  11.341  0.5164 -0.2800 -0.1653
17595TIP3    H174276   6.307   1.738  11.356 -0.8991 -0.2684  1.2783
17595TIP3    H274277   6.216   1.641  11.284  0.0874 -0.5587  0.4192
17596TIP3   OH274278   2.586   0.466  10.488 -0.0739  0.1547 -0.5270
17596TIP3    H174279   2.558   0.498  10.403  0.6041 -0.7916 -1.1171
17596TIP3    H274280   2.513   0.484  10.547 -0.5025  0.8898 -1.2936
17597TIP3   OH274281   1.639   5.884   6.054 -0.6433 -0.5338 -0.3250
17597TIP3    H174282   1.561   5.938   6.050 -2.1602 -2.6115  0.2869
17597TIP3    H274283   1.656   5.873   6.147  0.3125 -0.2241 -0.4512
17598TIP3   OH274284   3.478   2.898  11.500  0.0700  0.6297 -0.2587
17598TIP3    H174285   3.405   2.955  11.522  2.4299  3.0741  1.6328
17598TIP3    H274286   3.438   2.821  11.459 -3.5962  1.4038  1.6969
17599TIP3   OH274287   6.253   5.146   4.725  0.1285  0.1587  0.8221
17599TIP3    H174288   6.281   5.140   4.817 -0.1118 -0.4848  0.8589
17599TIP3    H274289   6.327   5.111   4.675  0.4319  0.9072  0.7347
17600TIP3   OH274290   6.533   5.950   3.035 -0.3514  0.5422 -0.3152
17600TIP3    H174291   6.528   5.964   3.130 -0.2129  0.7622 -0.3402
17600TIP3    H274292   6.475   6.017   2.998  0.3374  1.0774 -0.4354
17601TIP3   OH274293   5.807   1.100  13.197  0.2436 -0.3978  0.2686
17601TIP3    H174294   5.790   1.127  13.287 -0.6703  0.2507 -0.0910
17601TIP3    H274295   5.853   1.016  13.205 -0.3362 -0.6149  1.3299
17602TIP3   OH274296   3.012   5.229  14.985  0.4212 -0.5709 -0.0196
17602TIP3    H174297   2.974   5.261  14.904 -0.7402  1.6553  1.3697
17602TIP3    H274298   2.951   5.161  15.015  0.7293 -1.2270 -0.8495
17603TIP3   OH274299   4.743   6.814  10.762  0.7683  0.0322 -0.1945
17603TIP3    H174300   4.833   6.846  10.768  0.7835 -0.1956  0.9525
17603TIP3    H274301   4.752   6.719  10.753  0.6665  0.1137 -1.1601
17604TIP3   OH274302   0.509   3.698  11.445 -0.3967  0.3217  0.3097
17604TIP3    H174303   0.522   3.781  11.400 -1.9716  0.2847 -0.2395
17604TIP3    H274304   0.595   3.658  11.446 -0.0127  1.0681 -1.2166
17605TIP3   OH274305   4.240   1.911   0.388 -0.0248 -0.0768  0.4380
17605TIP3    H174306   4.210   1.884   0.301  0.2093 -0.4472  0.4752
17605TIP3    H274307   4.311   1.973   0.370 -1.1076  1.1770  0.3403
17606TIP3   OH274308   4.083   1.429  16.496  0.3164 -0.7079 -0.0633
17606TIP3    H174309   4.144   1.381  16.439 -0.3891 -1.1546 -0.4566
17606TIP3    H274310   4.024   1.474  16.435 -0.1803 -0.8484  0.3119
17607TIP3   OH274311   3.109   0.842  16.200  0.2550 -0.3597  1.0360
17607TIP3    H174312   3.065   0.918  16.239  0.4922 -0.3885  1.3646
17607TIP3    H274313   3.202   0.861  16.212  0.3496 -0.0542 -0.1096
17608TIP3   OH274314   2.538   3.877  13.470 -0.1615  0.6043 -0.4117
17608TIP3    H174315   2.510   3.913  13.386 -0.9647  0.8040 -0.0656
17608TIP3    H274316   2.508   3.941  13.534  1.4250  0.9941 -0.0488
17609TIP3   OH274317   5.689   4.707  17.084  0.0487  0.6789 -0.1192
17609TIP3    H174318   5.666   4.695  17.176 -0.4737  0.9538 -0.2133
17609TIP3    H274319   5.669   4.799  17.066  1.8116  1.0867 -0.0320
17610TIP3   OH274320   6.288   0.580   0.409 -0.1884 -0.3487  0.3269
17610TIP3    H174321   6.224   0.530   0.358  0.0997 -0.8315  0.4295
17610TIP3    H274322   6.307   0.524   0.484 -0.6239  0.3684  0.9806
17611TIP3   OH274323   2.791   3.070   0.004  0.0520 -0.6269 -0.0843
17611TIP3    H174324   2.718   3.061   0.064 -0.7336  0.0360 -0.9328
17611TIP3    H274325   2.806   3.165  -0.001  0.1878 -0.6902 -0.8399
17612TIP3   OH274326   2.815   4.635  14.437 -0.8047  0.0453 -0.8180
17612TIP3    H174327   2.815   4.550  14.480  0.7129  0.1452 -0.5758
17612TIP3    H274328   2.899   4.638  14.390 -0.6305  1.5861 -0.4424
17613TIP3   OH274329   4.857   2.400  15.483  0.1359 -0.3386  0.4106
17613TIP3    H174330   4.857   2.494  15.467  1.0514 -0.4620 -0.3743
17613TIP3    H274331   4.795   2.364  15.418  0.0003 -0.3079  0.5222
17614TIP3   OH274332   5.642   5.745  13.488 -0.2323  0.0395 -0.0645
17614TIP3    H174333   5.608   5.673  13.434  1.1725  0.4168 -1.5054
17614TIP3    H274334   5.737   5.729  13.491 -0.0500  1.2348  0.4859
17615TIP3   OH274335   1.954   0.990   0.498 -0.0218 -0.3719  0.0968
17615TIP3    H174336   1.984   1.011   0.409  0.0774 -1.9194 -0.2519
17615TIP3    H274337   2.035   0.977   0.548 -0.0830 -0.5451  0.1512
17616TIP3   OH274338   0.022   6.160   4.291  0.4874 -0.2267  0.2358
17616TIP3    H174339   0.017   6.244   4.245 -1.9348 -0.4678 -0.0100
17616TIP3    H274340  -0.046   6.106   4.250 -1.0681 -0.7840  3.3636
17617TIP3   OH274341   4.021   2.648   4.863 -0.1919 -0.3086 -0.6062
17617TIP3    H174342   4.042   2.670   4.953  0.4357  0.5759 -0.9524
17617TIP3    H274343   4.083   2.579   4.840 -0.6210 -0.8210 -0.2425
17618TIP3   OH274344   0.946   4.919  15.752 -0.3532 -0.0224 -0.3115
17618TIP3    H174345   0.919   4.828  15.750  1.2072 -0.4913 -0.5163
17618TIP3    H274346   1.019   4.921  15.815 -0.1869  1.0213 -0.5231
17619TIP3   OH274347   2.420   6.801   4.488  0.3699  0.2126 -0.1356
17619TIP3    H174348   2.409   6.883   4.536 -2.6459 -0.6242  0.7311
17619TIP3    H274349   2.401   6.733   4.552 -0.0753 -1.0529 -1.5739
17620TIP3   OH274350   2.685   0.422   3.866  0.3691 -0.0929  0.4441
17620TIP3    H174351   2.605   0.441   3.915 -0.0145 -1.4820  0.3851
17620TIP3    H274352   2.674   0.468   3.783 -0.5073 -0.5122  0.3228
17621TIP3   OH274353   1.445   3.252   1.901 -0.0634  0.2657  0.2800
17621TIP3    H174354   1.445   3.347   1.889 -0.9894  0.2532  0.1078
17621TIP3    H274355   1.386   3.238   1.975 -1.5599 -0.3054 -0.9774
17622TIP3   OH274356   2.146   0.387   3.665  0.6009 -0.1470  0.1157
17622TIP3    H174357   2.114   0.468   3.626  0.5085 -0.8986 -1.4391
17622TIP3    H274358   2.195   0.414   3.742 -0.5949  1.2859  0.3899
17623TIP3   OH274359   2.487   2.836  14.054 -0.0552 -0.1575 -0.0314
17623TIP3    H174360   2.562   2.785  14.023 -0.3124 -0.2405 -0.5293
17623TIP3    H274361   2.445   2.781  14.120  0.7514  0.2032  0.7755
17624TIP3   OH274362   5.450   6.720  12.426  0.5708  0.3143  0.6846
17624TIP3    H174363   5.455   6.639  12.476 -0.5755 -0.4450 -0.3946
17624TIP3    H274364   5.457   6.692  12.334 -2.2809  1.1783  0.1544
17625TIP3   OH274365   2.363   3.048  11.669 -0.5590 -0.1596  0.1774
17625TIP3    H174366   2.291   3.102  11.702 -0.4410  0.1614 -0.0856
17625TIP3    H274367   2.324   2.997  11.598 -0.6530 -0.3683  0.3785
17626TIP3   OH274368   5.595   6.662   6.268 -0.0369 -0.1405  0.4636
17626TIP3    H174369   5.563   6.695   6.352 -2.4285 -0.6032 -0.2217
17626TIP3    H274370   5.593   6.567   6.277 -0.0301 -0.1844  0.0027
17627TIP3   OH274371   4.719   5.007  14.778  0.1846  0.1935 -0.0048
17627TIP3    H174372   4.673   4.978  14.699  2.6041  0.4349 -1.5426
17627TIP3    H274373   4.779   5.075  14.748  0.7584  0.6709  2.1397
17628TIP3   OH274374   4.019   4.369  15.555 -0.0108  0.0233  0.6229
17628TIP3    H174375   4.089   4.403  15.498  0.6095  0.7410  1.7974
17628TIP3    H274376   4.052   4.381  15.643 -1.0608 -0.9059  1.1578
17629TIP3   OH274377   1.233   1.578  16.645  0.4840  0.1597  0.7160
17629TIP3    H174378   1.214   1.667  16.675  1.5856  1.5878 -2.5206
17629TIP3    H274379   1.148   1.535  16.643  0.0440  0.8556  3.1586
17630TIP3   OH274380   5.118   0.271  16.703 -0.4055 -0.3169  0.8080
17630TIP3    H174381   5.026   0.295  16.696 -0.6298 -1.0566  1.1350
17630TIP3    H274382   5.134   0.216  16.626 -0.1723 -0.0018  0.6281
17631TIP3   OH274383   0.191   6.311  14.625  0.3944 -0.5038  0.5116
17631TIP3    H174384   0.274   6.292  14.581  1.2276 -0.5334  2.0660
17631TIP3    H274385   0.180   6.406  14.616  0.3478 -0.5713 -0.1285
17632TIP3   OH274386   2.597   5.594   1.445 -0.1601 -0.1748 -0.4614
17632TIP3    H174387   2.564   5.506   1.462 -1.0706  0.1087 -0.7303
17632TIP3    H274388   2.536   5.631   1.381 -1.0130  1.4056  1.2295
17633TIP3   OH274389   6.372   6.333   6.041  0.0828  0.4243 -0.1048
17633TIP3    H174390   6.405   6.419   6.065  0.9102  0.1457 -0.2250
17633TIP3    H274391   6.390   6.278   6.117  1.3506 -0.1011 -0.7579
17634TIP3   OH274392   5.312   3.007  13.872 -0.3333  0.5814  0.1284
17634TIP3    H174393   5.397   3.048  13.886 -0.0750  0.4640 -1.0350
17634TIP3    H274394   5.298   3.012  13.777 -1.0576 -0.4957  0.1677
17635TIP3   OH274395   6.047   0.975   5.365  0.1240 -0.0131 -0.0069
17635TIP3    H174396   6.030   0.895   5.315 -3.6605  1.4947 -1.2281
17635TIP3    H274397   6.001   0.961   5.448  0.1629  0.5473  0.1095
17636TIP3   OH274398   5.639   0.884  15.058  0.3603  0.2298  0.4980
17636TIP3    H174399   5.544   0.893  15.044  0.3016  0.0586  0.7856
17636TIP3    H274400   5.676   0.883  14.969  0.0928  0.3124  0.3855
17637TIP3   OH274401   1.004   1.668   2.516  0.3845 -0.4742 -0.0102
17637TIP3    H174402   0.975   1.603   2.580 -1.1595  1.9919  1.8990
17637TIP3    H274403   0.926   1.686   2.464  1.0471 -0.8104 -1.1175
17638TIP3   OH274404   2.002   0.425  12.504 -0.0960 -0.7549 -0.6708
17638TIP3    H174405   1.922   0.478  12.503  0.9799  0.8985 -0.6712
17638TIP3    H274406   2.038   0.435  12.416  1.2912  0.3490  0.0041
17639TIP3   OH274407   0.820   4.927   0.218  0.5079  0.8256 -0.1762
17639TIP3    H174408   0.787   5.017   0.220 -1.4123  0.1688 -1.1179
17639TIP3    H274409   0.752   4.877   0.173  1.8272 -0.9980 -0.2300
17640TIP3   OH274410   6.788   6.441  11.024 -0.1334  0.0050 -0.2817
17640TIP3    H174411   6.820   6.433  10.934 -0.4058  0.0818 -0.3886
17640TIP3    H274412   6.745   6.357  11.041 -0.2818  0.0764 -0.3054
17641TIP3   OH274413   0.633   0.677  10.590  0.3569  0.8671  0.3146
17641TIP3    H174414   0.692   0.617  10.636  1.0287  0.0386 -1.5620
17641TIP3    H274415   0.567   0.620  10.550  0.2871  1.4749 -0.4546
17642TIP3   OH274416   2.443   0.239  14.109 -0.1649  0.4379 -0.2867
17642TIP3    H174417   2.442   0.333  14.128  1.3081  0.4407 -0.2060
17642TIP3    H274418   2.501   0.230  14.034 -0.4627 -0.3917 -0.4223
17643TIP3   OH274419   0.108   1.067   3.516  0.3780  0.4756 -0.3598
17643TIP3    H174420   0.178   1.104   3.569  0.9253  0.3580 -0.9891
17643TIP3    H274421   0.079   1.139   3.460 -0.9983  0.9205  0.9056
17644TIP3   OH274422   5.803   4.095  14.302  0.2014 -0.3490 -0.1890
17644TIP3    H174423   5.786   4.182  14.266  0.5482 -1.0816 -2.1791
17644TIP3    H274424   5.865   4.056  14.242 -0.6932 -2.3448  0.1402
17645TIP3   OH274425   2.279   4.885  15.907  0.4202 -0.0855 -0.0607
17645TIP3    H174426   2.365   4.928  15.906  0.5655 -0.3787 -1.4547
17645TIP3    H274427   2.217   4.955  15.885  0.1938  0.3205  1.8090
17646TIP3   OH274428   4.527   4.103  15.672  0.5786 -0.2625  0.6607
17646TIP3    H174429   4.461   4.035  15.662  0.0032  0.1978  1.2845
17646TIP3    H274430   4.484   4.171  15.723  1.4552  0.1495  0.8634
17647TIP3   OH274431   1.122   1.869   1.619  0.3165  0.0347  0.0936
17647TIP3    H174432   1.041   1.819   1.623  0.5134 -0.1669  2.0954
17647TIP3    H274433   1.185   1.809   1.579 -0.4526  0.1451 -1.3419
17648TIP3   OH274434   0.358   0.468  14.228  0.4031  0.2595 -0.1163
17648TIP3    H174435   0.281   0.451  14.174 -0.9498  0.4541  1.7196
17648TIP3    H274436   0.336   0.432  14.314  1.9957  1.1369  0.6804
17649TIP3   OH274437   0.307   1.465   5.111  0.1997  0.1192 -0.6059
17649TIP3    H174438   0.349   1.514   5.182  1.1143 -1.4670 -0.0524
17649TIP3    H274439   0.263   1.533   5.059 -1.8450  1.1578  2.3603
17650TIP3   OH274440   0.421   4.659   5.770  0.0988  0.1220  0.7667
17650TIP3    H174441   0.331   4.635   5.792 -0.4794  0.5074 -1.0875
17650TIP3    H274442   0.455   4.582   5.723  1.3027 -0.6797  2.8903
17651TIP3   OH274443   1.877   4.804  11.095  0.3396 -0.4813 -0.3348
17651TIP3    H174444   1.925   4.734  11.052  0.1053  0.6469 -2.5219
17651TIP3    H274445   1.786   4.792  11.066 -0.0980 -0.5590  1.0263
17652TIP3   OH274446   3.722   5.245   0.198 -0.2025  0.2928  0.4957
17652TIP3    H174447   3.760   5.177   0.143  0.2274  0.3195  0.7588
17652TIP3    H274448   3.649   5.202   0.243 -0.1859  0.1161  0.3539
17653TIP3   OH274449   2.732   5.873   1.961 -0.6530 -0.1023  0.0536
17653TIP3    H174450   2.686   5.825   2.030 -0.3100 -0.1760  0.2370
17653TIP3    H274451   2.705   5.964   1.973 -1.5928 -0.3040 -0.5303
17654TIP3   OH274452   2.443   1.567  13.633  0.4193 -0.3165  0.4239
17654TIP3    H174453   2.405   1.557  13.546  0.1410  0.9654  0.3915
17654TIP3    H274454   2.450   1.477  13.667  1.9334 -0.9638 -1.5110
17655TIP3   OH274455   1.120   1.883  16.108  0.1908  1.2118  0.0380
17655TIP3    H174456   1.072   1.808  16.144  1.0104  0.5974 -0.1404
17655TIP3    H274457   1.129   1.943  16.182  1.8121 -0.0185  0.8669
17656TIP3   OH274458   4.786   2.183  15.048  0.0278  0.1026 -0.1905
17656TIP3    H174459   4.776   2.188  14.953  0.3242 -0.0154 -0.2299
17656TIP3    H274460   4.843   2.108  15.062  0.1480  0.2415  0.0689
17657TIP3   OH274461   2.566   0.814  15.643  0.1527 -0.0629 -0.2000
17657TIP3    H174462   2.632   0.822  15.575 -0.3657  1.2081 -0.5680
17657TIP3    H274463   2.501   0.881  15.622  0.7632  1.4121  2.4192
17658TIP3   OH274464   4.586   0.312   1.619  0.2438 -1.0228 -0.6569
17658TIP3    H174465   4.625   0.392   1.584 -0.0626 -0.6224 -0.0905
17658TIP3    H274466   4.658   0.250   1.624  1.1471  0.1764  1.8262
17659TIP3   OH274467   0.709   1.234   6.232  0.4125 -0.3509 -0.2164
17659TIP3    H174468   0.706   1.302   6.164 -0.8384  0.0308  0.2048
17659TIP3    H274469   0.617   1.216   6.252  0.7574 -1.3777  0.4721
17660TIP3   OH274470   4.258   1.095   2.713  0.5756  0.1763 -0.4734
17660TIP3    H174471   4.238   1.168   2.655  4.0949  0.1459 -1.8589
17660TIP3    H274472   4.274   1.135   2.798 -0.7124  0.6431 -0.4388
17661TIP3   OH274473   0.433   6.588  12.381  0.3481 -0.2739  0.1859
17661TIP3    H174474   0.460   6.665  12.332  0.2971  0.1388  0.8023
17661TIP3    H274475   0.503   6.524  12.367  0.1892 -0.2619 -0.6592
17662TIP3   OH274476   5.427   2.306  16.991 -0.0628  0.6780  0.3771
17662TIP3    H174477   5.347   2.262  17.020 -1.3711  1.6124 -1.7405
17662TIP3    H274478   5.405   2.399  16.990  1.3429  1.0361  0.6296
17663TIP3   OH274479   5.049   2.835   3.969 -0.4497 -0.2466  0.0484
17663TIP3    H174480   5.012   2.851   4.055 -0.6483 -0.2141 -0.0416
17663TIP3    H274481   5.089   2.918   3.943  0.2308 -0.4622  0.4098
17664TIP3   OH274482   2.641   3.837  13.904 -0.6868  0.0071  0.3787
17664TIP3    H174483   2.727   3.866  13.872 -1.1521  1.7790  0.6684
17664TIP3    H274484   2.586   3.915  13.899 -1.9754 -0.8180  1.2837
17665TIP3   OH274485   2.219   5.769  12.417  0.3610 -0.0984  0.0222
17665TIP3    H174486   2.198   5.708  12.487 -0.1917  1.1541  0.9607
17665TIP3    H274487   2.240   5.851  12.461  0.6600  0.5277 -1.2396
17666TIP3   OH274488   3.773   3.444   0.055 -0.1698  0.2303 -0.6171
17666TIP3    H174489   3.739   3.379  -0.006 -1.1081  0.1369 -0.0048
17666TIP3    H274490   3.861   3.464   0.023  0.7649 -2.4937  0.0882
17667TIP3   OH274491   0.980   5.206   0.108 -0.0915  1.2725 -0.1583
17667TIP3    H174492   1.021   5.125   0.136  4.2131  3.1246 -0.7322
17667TIP3    H274493   0.902   5.213   0.162  0.2626 -2.4338  0.9713
17668TIP3   OH274494   5.510   4.532   2.462  0.0743 -0.1506  0.2677
17668TIP3    H174495   5.434   4.482   2.433  0.2774 -0.6846  0.6511
17668TIP3    H274496   5.547   4.569   2.382 -0.9369  0.6084  0.1449
17669TIP3   OH274497   4.326   6.562  14.992  0.7009 -0.1363  0.3272
17669TIP3    H174498   4.286   6.647  15.011  0.6814 -0.1490  0.3416
17669TIP3    H274499   4.312   6.550  14.898  1.4324  0.2520  0.1673
17670TIP3   OH274500   2.414   0.715  15.884  0.5120  0.2465 -0.0386
17670TIP3    H174501   2.506   0.698  15.866  0.3734 -0.4462 -0.1097
17670TIP3    H274502   2.407   0.810  15.887  1.3720  0.2935  0.6851
17671TIP3   OH274503   4.342   1.962   5.513 -0.8061 -0.3806 -0.5004
17671TIP3    H174504   4.395   1.912   5.575  0.4046  1.1677 -0.2350
17671TIP3    H274505   4.369   1.932   5.427  0.3258  0.1970 -0.3558
17672TIP3   OH274506   3.930   1.971   0.447  0.0395  0.1506  0.1875
17672TIP3    H174507   3.983   2.043   0.482  3.7237 -1.9575 -0.7825
17672TIP3    H274508   3.886   2.009   0.371 -0.0988  2.0372  1.1769
17673TIP3   OH274509   5.299   2.001  13.272 -0.2998 -0.4322 -0.6080
17673TIP3    H174510   5.392   2.012  13.292 -0.2459 -0.5420 -0.8013
17673TIP3    H274511   5.259   1.978  13.356  0.2447 -2.9244 -0.9941
17674TIP3   OH274512   3.857   1.513  13.138  1.0292 -0.5958  0.5193
17674TIP3    H174513   3.861   1.444  13.204 -0.2441 -2.1999 -1.0631
17674TIP3    H274514   3.939   1.506  13.090  0.9154 -1.0110  0.3805
17675TIP3   OH274515   2.368   2.960   4.353 -0.4675  0.2757 -0.0330
17675TIP3    H174516   2.405   3.034   4.305  0.1891  1.0810  1.6727
17675TIP3    H274517   2.341   2.898   4.285 -2.1328  2.5706 -1.5525
17676TIP3   OH274518   2.867   1.834  11.354 -0.2865  0.2169  0.3578
17676TIP3    H174519   2.864   1.743  11.322 -1.1915  0.5246 -0.4603
17676TIP3    H274520   2.925   1.831  11.430 -0.1910 -1.0229  0.2431
17677TIP3   OH274521   0.072   0.811  16.839 -0.2375  0.6335  0.3548
17677TIP3    H174522   0.080   0.770  16.753 -0.6431  1.2674  0.0122
17677TIP3    H274523   0.104   0.744  16.900  1.3335  0.6633 -0.4003
17678TIP3   OH274524   4.436   5.079  12.642 -0.4096 -0.1395 -0.0754
17678TIP3    H174525   4.383   5.044  12.570 -0.1110 -0.9723  0.0994
17678TIP3    H274526   4.512   5.118  12.600 -0.4532 -0.2370 -0.2441
17679TIP3   OH274527   1.495   4.204  16.733  0.2050  0.4898  0.0465
17679TIP3    H174528   1.507   4.264  16.660 -0.3729  0.8781  0.2720
17679TIP3    H274529   1.537   4.248  16.807  1.6942 -0.3553 -0.2721
17680TIP3   OH274530   2.531   3.403   2.953  0.3120 -0.4785  0.8385
17680TIP3    H174531   2.452   3.446   2.986  0.8945 -0.4253  2.2211
17680TIP3    H274532   2.501   3.348   2.881 -0.6799  1.0423  0.0721
17681TIP3   OH274533   0.207   0.744  11.363 -0.1431  0.2317  0.5431
17681TIP3    H174534   0.224   0.673  11.302 -0.1197  1.5226 -0.9885
17681TIP3    H274535   0.114   0.763  11.354  0.2299  1.6915 -0.5345
17682TIP3   OH274536   6.399   5.703  16.992 -0.2142 -0.5821 -0.0244
17682TIP3    H174537   6.366   5.755  16.919 -0.5588 -1.0685 -0.2200
17682TIP3    H274538   6.467   5.648  16.954  1.7014  1.2476  0.6028
17683TIP3   OH274539   1.877   3.757  14.756 -0.4144 -0.5010 -0.9569
17683TIP3    H174540   1.838   3.839  14.725  1.9394  0.7748 -0.6380
17683TIP3    H274541   1.876   3.766  14.852 -0.2997 -0.9331 -0.9178
17684TIP3   OH274542   5.338   4.935  12.152 -0.4263 -0.1386 -0.1512
17684TIP3    H174543   5.320   4.960  12.061 -2.2948  0.2536  0.3088
17684TIP3    H274544   5.297   4.849  12.162  0.8754 -0.7602 -0.0209
17685TIP3   OH274545   5.944   5.570   2.130  0.1897  0.0139 -0.2998
17685TIP3    H174546   5.852   5.592   2.144  0.3344 -0.1922  1.0049
17685TIP3    H274547   5.942   5.485   2.085 -0.2425 -0.4720  0.6307
17686TIP3   OH274548   5.531   5.042   1.118 -1.1556  0.2848  0.4115
17686TIP3    H174549   5.623   5.058   1.140 -1.5652  3.7735 -0.0622
17686TIP3    H274550   5.533   5.003   1.030 -0.1229 -0.2412  0.6658
17687TIP3   OH274551   4.596   6.284   3.375  0.5289  0.0538  0.4181
17687TIP3    H174552   4.669   6.231   3.408  1.6640  0.2752 -1.6200
17687TIP3    H274553   4.537   6.220   3.336  1.0246  0.0995 -0.4326
17688TIP3   OH274554   3.617   5.842   1.716  0.8587 -1.1444 -0.4318
17688TIP3    H174555   3.535   5.802   1.744 -0.1265  1.1959  0.1456
17688TIP3    H274556   3.630   5.810   1.627 -1.8959  0.2262 -1.3850
17689TIP3   OH274557   2.107   6.090   4.210  0.5305  0.4452  0.0046
17689TIP3    H174558   2.060   6.069   4.129  0.5737  1.6023 -0.3275
17689TIP3    H274559   2.078   6.023   4.272 -0.1813  0.0751 -0.7072
17690TIP3   OH274560   0.393   2.630   1.017 -0.0153 -0.3680 -0.6386
17690TIP3    H174561   0.394   2.702   1.081  1.3706 -1.1687  0.2656
17690TIP3    H274562   0.358   2.670   0.937 -0.2102  1.0640  0.1335
17691TIP3   OH274563   4.271   2.789   0.003  0.1071 -0.0982  0.0836
17691TIP3    H174564   4.299   2.865   0.055 -0.6110  1.7194 -2.0761
17691TIP3    H274565   4.226   2.828  -0.072 -1.0652 -2.7269 -0.6118
17692TIP3   OH274566   3.058   1.092  14.481  0.2657 -0.6403  0.4200
17692TIP3    H174567   3.011   1.175  14.480  1.8643  0.3314 -3.2784
17692TIP3    H274568   2.991   1.026  14.460  0.0505  0.4422 -2.4513
17693TIP3   OH274569   5.711   6.606  15.078  0.1984 -0.0522 -0.3732
17693TIP3    H174570   5.660   6.628  15.000  0.4918  0.1888 -0.5012
17693TIP3    H274571   5.647   6.572  15.140 -0.1848  0.6739 -0.3667
17694TIP3   OH274572   1.716   5.844   3.358  0.4456 -0.2822 -0.1142
17694TIP3    H174573   1.672   5.847   3.272 -0.8143  0.9547  0.5416
17694TIP3    H274574   1.746   5.754   3.366 -1.7430 -1.1161 -0.7356
17695TIP3   OH274575   1.330   4.325  13.239 -0.1017 -0.3212 -0.0023
17695TIP3    H174576   1.344   4.392  13.306 -2.5542  0.6160 -0.3827
17695TIP3    H274577   1.329   4.242  13.287  1.2126  0.0533  0.7012
17696TIP3   OH274578   2.197   3.038   2.429 -0.7245 -0.1689  0.2276
17696TIP3    H174579   2.170   2.956   2.471 -0.1443  1.1581  3.3592
17696TIP3    H274580   2.284   3.056   2.466 -0.4466  1.3852 -1.1338
17697TIP3   OH274581   2.099   2.303   5.757 -0.3062 -0.0234 -0.1601
17697TIP3    H174582   2.011   2.266   5.753 -1.0618  1.8595 -1.1970
17697TIP3    H274583   2.086   2.397   5.761  1.6655  0.2631  0.0170
17698TIP3   OH274584   5.021   5.073   2.689  0.6870  0.0913 -0.1644
17698TIP3    H174585   4.990   5.151   2.643 -2.8297 -0.1501  1.6582
17698TIP3    H274586   5.046   5.012   2.619 -2.6333  0.4742 -1.7595
17699TIP3   OH274587   2.453   0.252  12.289  0.1811  0.0695 -0.6037
17699TIP3    H174588   2.358   0.245  12.275  0.4286 -1.8627 -1.4851
17699TIP3    H274589   2.465   0.241  12.383 -0.5935  1.9026 -0.2765
17700TIP3   OH274590   1.328   2.684  15.316  0.9278 -0.3757 -0.4752
17700TIP3    H174591   1.265   2.681  15.243 -0.3444  2.0050  0.4864
17700TIP3    H274592   1.363   2.595  15.320 -1.1978 -1.3392 -2.0712
17701TIP3   OH274593   4.016   6.125  13.933  0.4891  0.1423 -0.2001
17701TIP3    H174594   4.100   6.158  13.966 -0.3791  0.7452  1.4489
17701TIP3    H274595   3.951   6.185  13.970 -0.6635 -0.2178 -1.6114
17702TIP3   OH274596   0.011   2.136   6.935 -0.2152  0.2766 -0.1795
17702TIP3    H174597   0.106   2.121   6.943 -0.1339  1.2125  0.6406
17702TIP3    H274598  -0.019   2.065   6.877  0.8275 -0.5990  0.3297
17703TIP3   OH274599   4.094   5.315   1.465 -0.6357  0.4273  0.4965
17703TIP3    H174600   4.174   5.270   1.440 -1.4448 -1.7908  1.7781
17703TIP3    H274601   4.096   5.317   1.561 -2.8817 -1.1868  0.6340
17704TIP3   OH274602   3.175   5.979   3.394 -0.7444  0.6368  0.0877
17704TIP3    H174603   3.193   6.050   3.455 -1.2222  1.0352 -0.2305
17704TIP3    H274604   3.176   6.020   3.308  1.9164 -0.2975 -0.3549
17705TIP3   OH274605   2.427   6.723  16.860  0.2005 -0.1603 -0.2471
17705TIP3    H174606   2.427   6.816  16.839  1.5235 -0.1897 -0.4007
17705TIP3    H274607   2.413   6.679  16.776 -2.0829 -0.0813  0.0447
17706TIP3   OH274608   5.413   0.746   0.621 -0.2947  0.8086 -0.8556
17706TIP3    H174609   5.507   0.730   0.614  0.2083  3.1587 -0.1021
17706TIP3    H274610   5.402   0.788   0.706 -2.1299 -0.0953 -0.6316
17707TIP3   OH274611   1.507   0.868   4.886  0.4985  0.1637 -0.1188
17707TIP3    H174612   1.578   0.931   4.881  0.7654 -0.0511  0.7642
17707TIP3    H274613   1.449   0.902   4.955 -0.3530  0.4356 -0.9565
17708TIP3   OH274614   6.549   2.012   0.953 -0.2335  0.5583  0.2449
17708TIP3    H174615   6.469   2.051   0.987 -0.2989  0.8946 -0.2883
17708TIP3    H274616   6.521   1.958   0.879  0.3030  2.7032 -1.5713
17709TIP3   OH274617   1.909   0.954  14.808 -0.4095  0.4463  0.2251
17709TIP3    H174618   1.949   0.999  14.734  0.1147 -1.2463 -0.5480
17709TIP3    H274619   1.982   0.914  14.855 -0.7909  1.0516  1.3589
17710TIP3   OH274620   1.682   5.254   5.279  0.3584 -0.3567 -0.0856
17710TIP3    H174621   1.609   5.262   5.340 -0.3354 -0.2925 -0.9172
17710TIP3    H274622   1.675   5.330   5.221  0.9725 -0.4420 -0.2800
17711TIP3   OH274623   2.415   0.654  14.747  0.2985  0.2375  0.7580
17711TIP3    H174624   2.391   0.745  14.731  1.8043  1.0468  2.8891
17711TIP3    H274625   2.425   0.616  14.660 -2.5159  1.4999 -0.1535
17712TIP3   OH274626   6.754   4.262  16.522 -1.0158 -0.4253 -0.2714
17712TIP3    H174627   6.703   4.186  16.491  0.9859 -0.8630 -2.6526
17712TIP3    H274628   6.845   4.234  16.516 -0.1890  2.3777 -1.8619
17713TIP3   OH274629   1.742   4.415  11.521  0.0098  0.1243 -0.7381
17713TIP3    H174630   1.834   4.408  11.494  0.4943  0.6446  0.6930
17713TIP3    H274631   1.708   4.491  11.473  0.4735  0.2410 -0.8825
17714TIP3   OH274632   2.205   2.318  12.518 -0.4222 -0.2143  0.2106
17714TIP3    H174633   2.133   2.357  12.567 -0.0144 -0.1782  0.8004
17714TIP3    H274634   2.284   2.358  12.556 -0.0327 -1.1625  0.4249
17715TIP3   OH274635   2.871   2.808   4.554  0.6880  0.3489  0.4165
17715TIP3    H174636   2.914   2.890   4.576  0.0302  0.8789 -0.2686
17715TIP3    H274637   2.804   2.832   4.490 -1.5505 -0.2680  2.4685
17716TIP3   OH274638   0.097   0.778  12.325  0.4257 -0.6944 -0.0408
17716TIP3    H174639   0.089   0.855  12.382 -1.4926 -1.1373  0.3230
17716TIP3    H274640   0.150   0.717  12.375  1.4809  0.1542 -0.0918
17717TIP3   OH274641   0.904   2.719   5.615  0.1428 -0.2138 -0.3925
17717TIP3    H174642   0.977   2.679   5.567 -1.1587 -2.2716 -0.6971
17717TIP3    H274643   0.945   2.753   5.695  1.5079 -0.9867 -0.7397
17718TIP3   OH274644   2.871   4.159  13.422  0.6438  0.0696 -0.1043
17718TIP3    H174645   2.916   4.095  13.477 -0.7438 -1.1268 -0.3261
17718TIP3    H274646   2.940   4.219  13.394  2.1207 -1.7232 -0.4503
17719TIP3   OH274647   3.726   1.452  14.281 -0.2677  0.9450  0.3481
17719TIP3    H174648   3.665   1.523  14.297  1.8649  2.5793  1.4460
17719TIP3    H274649   3.769   1.475  14.199 -0.0818  0.5346  0.3275
17720TIP3   OH274650   3.648   6.248  15.945  0.3210  0.1550  0.2713
17720TIP3    H174651   3.600   6.328  15.967 -0.6404 -1.0602  2.8574
17720TIP3    H274652   3.658   6.251  15.850 -0.6352  2.8092  0.2106
17721TIP3   OH274653   3.774   6.082   1.488 -0.0763 -0.0832 -0.1465
17721TIP3    H174654   3.732   6.008   1.444 -0.6412  0.7507 -1.0430
17721TIP3    H274655   3.864   6.053   1.503 -0.1854 -0.8091 -0.8474
17722TIP3   OH274656   1.228   1.317  11.749  0.3104  0.0517 -0.1663
17722TIP3    H174657   1.153   1.375  11.734  1.9465  1.5417 -3.0233
17722TIP3    H274658   1.269   1.352  11.829 -1.6638 -0.4326  1.0938
17723TIP3   OH274659   5.749   3.434   2.328  0.0243  0.9302  0.0970
17723TIP3    H174660   5.658   3.438   2.356  0.0260  0.2718  0.1974
17723TIP3    H274661   5.799   3.431   2.410 -0.0881 -4.1338  0.1351
17724TIP3   OH274662   2.691   0.140  11.126  0.2181  0.2337 -0.2813
17724TIP3    H174663   2.631   0.111  11.057  2.5333  0.1522 -2.3225
17724TIP3    H274664   2.689   0.069  11.190 -1.6227  0.1066 -0.4509
17725TIP3   OH274665   4.334   6.460  15.256 -0.1391  0.4438  0.1408
17725TIP3    H174666   4.297   6.491  15.173  0.6039  0.8168 -0.0622
17725TIP3    H274667   4.348   6.366  15.243  1.1870  0.7298 -0.6409
17726TIP3   OH274668   1.811   0.914  16.891  0.2946 -0.4177  0.0708
17726TIP3    H174669   1.755   0.889  16.964  0.0544 -1.6202 -0.5175
17726TIP3    H274670   1.789   1.006  16.874  0.0030 -0.2736  1.1777
17727TIP3   OH274671   4.934   5.017  11.171 -0.0023  0.6956 -0.0302
17727TIP3    H174672   4.843   5.045  11.157 -0.3507 -0.9721 -1.3775
17727TIP3    H274673   4.983   5.057  11.099 -0.3398 -1.2674 -1.4144
17728TIP3   OH274674   2.337   0.958   2.368 -0.2307  0.3741  0.1373
17728TIP3    H174675   2.341   0.975   2.462  1.5299 -0.8254  0.2997
17728TIP3    H274676   2.258   0.905   2.356  0.5493 -1.0413  1.2061
17729TIP3   OH274677   0.189   6.400  12.377 -0.0743  0.3991 -0.6263
17729TIP3    H174678   0.282   6.420  12.372  0.4397 -1.5835  0.7052
17729TIP3    H274679   0.183   6.306  12.363 -1.9177  0.5568 -1.0804
17730TIP3   OH274680   2.076   1.996   2.795  0.0826  0.8207 -0.2038
17730TIP3    H174681   2.162   1.998   2.835  0.8773 -0.9655 -1.7434
17730TIP3    H274682   2.069   2.079   2.748  2.4375 -0.4292 -2.9352
17731TIP3   OH274683   1.555   5.926   1.740  0.4931  0.7730 -0.0562
17731TIP3    H174684   1.537   5.979   1.817  0.2542  0.4228  0.1317
17731TIP3    H274685   1.477   5.935   1.686  0.3950  0.5024  0.0397
17732TIP3   OH274686   5.704   0.211   3.981 -0.2249 -0.4324  0.1511
17732TIP3    H174687   5.764   0.285   3.981  0.2009 -0.7382 -1.5649
17732TIP3    H274688   5.638   0.234   3.915 -0.7352 -1.0768  0.4276
17733TIP3   OH274689   6.554   1.020  16.348  0.1986  0.9509 -0.2634
17733TIP3    H174690   6.637   0.985  16.316 -0.8525 -0.9437 -0.9975
17733TIP3    H274691   6.552   0.995  16.441 -0.9567 -1.8200 -0.9979
17734TIP3   OH274692   2.351   1.385  13.125  0.4158 -0.0975  0.4439
17734TIP3    H174693   2.268   1.344  13.149  0.4570 -0.2112  0.3920
17734TIP3    H274694   2.390   1.325  13.062 -0.5017  1.0599 -1.2454
17735TIP3   OH274695   0.861   5.039   3.788 -0.0443 -0.2800  0.1215
17735TIP3    H174696   0.938   5.091   3.766 -1.0995  2.1176  1.9712
17735TIP3    H274697   0.787   5.088   3.752 -0.8907 -1.5934  0.0200
17736TIP3   OH274698   0.775   4.221  14.852 -0.5951  0.2505 -0.3171
17736TIP3    H174699   0.817   4.192  14.771 -0.4298  1.2295 -0.5766
17736TIP3    H274700   0.723   4.145  14.880 -1.2645  0.1691 -1.7424
17737TIP3   OH274701   0.902   3.528   0.144 -0.4483 -0.2915 -0.5875
17737TIP3    H174702   0.873   3.611   0.183 -3.3197 -1.8989  0.7647
17737TIP3    H274703   0.943   3.481   0.217  1.5910  0.0571 -1.4610
17738TIP3   OH274704   2.535   0.337   5.183 -0.2348 -0.3298 -0.3752
17738TIP3    H174705   2.574   0.265   5.232 -1.3885 -1.1764 -0.6763
17738TIP3    H274706   2.583   0.338   5.100  2.4044  1.7451  1.1043
17739TIP3   OH274707   0.294   3.825  17.007 -0.3599 -0.3295 -0.2838
17739TIP3    H174708   0.215   3.873  17.031 -0.8191 -1.6849  1.0375
17739TIP3    H274709   0.365   3.871  17.052 -0.3966  0.8390 -1.4073
17740TIP3   OH274710   6.090   0.923  16.030 -0.7709 -0.2360  0.1007
17740TIP3    H174711   6.178   0.950  16.055 -1.1849  2.2129 -0.9742
17740TIP3    H274712   6.033   0.995  16.057 -2.3323 -1.3410 -0.1301
17741TIP3   OH274713   1.520   0.334  12.281 -0.3419  0.3184 -0.1962
17741TIP3    H174714   1.438   0.289  12.261  0.1734 -0.7741  0.1031
17741TIP3    H274715   1.495   0.407  12.339 -0.9515 -0.7355  0.8787
17742TIP3   OH274716   3.637   6.528  14.967 -0.0542  0.1623  0.3032
17742TIP3    H174717   3.703   6.475  14.923 -0.1791  1.0374 -0.9830
17742TIP3    H274718   3.568   6.539  14.901 -1.4038 -0.5966  1.5787
17743TIP3   OH274719   3.675   2.439   4.771  0.3427 -0.4310  0.2757
17743TIP3    H174720   3.597   2.487   4.798 -1.5695 -1.7499 -2.6907
17743TIP3    H274721   3.730   2.437   4.850 -1.0955  3.3878  1.5049
17744TIP3   OH274722   1.491   1.092   3.692 -0.2705 -0.0265 -0.2647
17744TIP3    H174723   1.463   1.178   3.722  0.4143  0.2342 -0.3609
17744TIP3    H274724   1.478   1.035   3.767  0.9356  0.5151  0.3692
17745TIP3   OH274725   5.571   6.100   3.884  0.1818 -0.0303 -0.4983
17745TIP3    H174726   5.531   6.110   3.970 -0.9996 -0.5063 -0.9826
17745TIP3    H274727   5.662   6.079   3.902  0.7490  3.1484  0.6069
17746TIP3   OH274728   1.552   2.101   1.982  0.4326 -0.0972  0.2835
17746TIP3    H174729   1.471   2.062   1.949  1.9752 -1.7742 -1.6283
17746TIP3    H274730   1.605   2.118   1.904  3.1357 -1.7719  1.6804
17747TIP3   OH274731   4.467   2.293  15.759 -0.1510  0.5276 -0.2218
17747TIP3    H174732   4.512   2.221  15.715  0.9472  0.8344  0.3996
17747TIP3    H274733   4.498   2.371  15.714 -0.7508  0.6796 -0.3774
17748TIP3   OH274734   1.048   6.165  12.235 -0.7187  0.5415  0.2844
17748TIP3    H174735   1.118   6.190  12.296 -0.4564  0.7740 -0.1073
17748TIP3    H274736   1.094   6.126  12.161 -1.1075 -0.8861  0.7741
17749TIP3   OH274737   1.988   6.491   2.949  0.0933  0.0905 -0.3577
17749TIP3    H174738   1.950   6.406   2.928  0.3553 -0.2000  0.2978
17749TIP3    H274739   1.929   6.528   3.015 -0.4941  0.8013 -1.2758
17750TIP3   OH274740   6.199   5.219   5.864  0.6929 -0.5605 -0.4028
17750TIP3    H174741   6.283   5.257   5.841  1.4699 -1.2355  1.2361
17750TIP3    H274742   6.220   5.134   5.903 -0.6787 -0.4435  0.6620
17751TIP3   OH274743   6.339   0.479  16.969  0.6482 -0.0999 -0.2334
17751TIP3    H174744   6.395   0.553  16.990 -0.8945  1.0196  0.0117
17751TIP3    H274745   6.339   0.426  17.049  1.6399 -0.3009 -0.3609
17752TIP3   OH274746   2.480   1.388   4.926  0.1353 -0.2347  0.1186
17752TIP3    H174747   2.450   1.471   4.963  1.2021  0.1250  0.2075
17752TIP3    H274748   2.568   1.376   4.962  0.0649 -1.3236 -0.0302
17753TIP3   OH274749   3.844   2.091   1.132  0.5154 -0.0341 -0.4624
17753TIP3    H174750   3.896   2.045   1.067  1.3268  2.0436 -1.3190
17753TIP3    H274751   3.759   2.104   1.090  0.4975 -0.1675 -0.4681
17754TIP3   OH274752   6.161   3.738   1.929 -0.3598  0.2503  0.4472
17754TIP3    H174753   6.150   3.832   1.920 -3.2319 -0.1971 -1.2475
17754TIP3    H274754   6.198   3.726   2.016  0.8720  2.9740  0.3483
17755TIP3   OH274755   1.371   0.361   6.287 -0.0478 -0.3863  0.1436
17755TIP3    H174756   1.290   0.346   6.237 -0.8913  2.1738  0.6163
17755TIP3    H274757   1.434   0.390   6.221 -1.0865  2.7444  0.4290
17756TIP3   OH274758   2.184   5.022  13.416 -0.0875  0.0418  0.0929
17756TIP3    H174759   2.252   5.088  13.400 -1.4258  1.4350  0.0021
17756TIP3    H274760   2.232   4.941  13.431  1.5511  0.6665 -1.5386
17757TIP3   OH274761   6.117   3.217   3.313  0.3822  0.1560  0.7435
17757TIP3    H174762   6.207   3.191   3.296 -0.2641 -2.0687  0.5076
17757TIP3    H274763   6.069   3.190   3.235 -0.5024  1.3125  0.8707
17758TIP3   OH274764   2.281   1.878   5.910  0.0334 -0.1243  0.7581
17758TIP3    H174765   2.330   1.807   5.951  1.0236  0.8358  1.2395
17758TIP3    H274766   2.326   1.892   5.826 -0.4429 -0.3619  0.4576
17759TIP3   OH274767   5.036   5.181  12.887 -0.3693  0.1942  0.3483
17759TIP3    H174768   5.039   5.090  12.858  0.7200  0.3578 -0.0433
17759TIP3    H274769   5.127   5.205  12.901 -0.7105  0.9699  1.2682
17760TIP3   OH274770   3.527   6.200   2.979 -0.4171 -0.1971 -0.2012
17760TIP3    H174771   3.567   6.284   2.956 -0.1748 -0.1280  0.4607
17760TIP3    H274772   3.434   6.211   2.959 -0.4393  0.3394  0.1870
17761TIP3   OH274773   2.961   0.198   2.913 -0.1996  0.0872  0.7395
17761TIP3    H174774   2.886   0.175   2.968  1.8364 -2.9163  2.4715
17761TIP3    H274775   3.017   0.251   2.970 -0.3852  1.2289 -0.1235
17762TIP3   OH274776   5.513   0.965  11.704 -0.0436  0.7023 -0.0411
17762TIP3    H174777   5.525   0.870  11.704 -0.7733  0.5994 -0.8741
17762TIP3    H274778   5.422   0.978  11.731  0.9773  1.3341  3.4525
17763TIP3   OH274779   3.447   1.055  11.822  0.1521  0.1075 -0.0200
17763TIP3    H174780   3.357   1.075  11.847 -0.1128 -0.7387 -0.2767
17763TIP3    H274781   3.453   1.079  11.730  0.4701  1.0722  0.2487
17764TIP3   OH274782   3.536   6.643  14.709  0.7350 -0.2350  0.0783
17764TIP3    H174783   3.617   6.597  14.689  1.2479  0.3259  0.8535
17764TIP3    H274784   3.542   6.725  14.660  0.7745 -0.0539  0.3877
17765TIP3   OH274785   6.431   6.264  15.873 -0.4962  0.2748  0.0449
17765TIP3    H174786   6.478   6.225  15.799 -1.5491 -1.3389  0.2095
17765TIP3    H274787   6.341   6.237  15.861 -1.0213  1.5843  0.9150
17766TIP3   OH274788   1.828   4.590  14.466  0.4114  0.0461 -0.4768
17766TIP3    H174789   1.741   4.616  14.434  0.7891  1.3191 -0.4910
17766TIP3    H274790   1.832   4.625  14.555  0.9175 -0.0041 -0.4799
17767TIP3   OH274791   0.690   2.273   2.808 -0.5288 -0.3002  0.1458
17767TIP3    H174792   0.718   2.252   2.719  0.3683  1.6834 -0.0738
17767TIP3    H274793   0.711   2.195   2.859  0.7957 -0.7183 -1.0065
17768TIP3   OH274794   2.021   6.074  11.668 -0.1587  0.3148 -0.6239
17768TIP3    H174795   2.081   6.105  11.600 -0.3395  0.6282 -0.6405
17768TIP3    H274796   2.065   6.093  11.750 -0.3493  0.7770 -0.6302
17769TIP3   OH274797   0.181   0.626   2.010 -0.1034 -0.0494  0.4208
17769TIP3    H174798   0.176   0.581   2.094  1.2390 -1.4021 -0.2064
17769TIP3    H274799   0.142   0.565   1.948  2.4724 -0.7111 -0.5775
17770TIP3   OH274800   3.535   2.708  14.859  0.0087 -0.5105 -0.0268
17770TIP3    H174801   3.456   2.762  14.852  1.4822  1.7435  0.0556
17770TIP3    H274802   3.588   2.734  14.784  2.3131  0.8647  1.9821
17771TIP3   OH274803   2.715   1.601   4.870  0.0507  0.1007  0.2075
17771TIP3    H174804   2.720   1.532   4.936 -0.4387  0.1245  0.2701
17771TIP3    H274805   2.622   1.622   4.864 -0.1023 -1.0556 -1.6848
17772TIP3   OH274806   4.440   2.978   0.915 -0.4723  0.3189  0.4686
17772TIP3    H174807   4.506   2.957   0.849 -0.6622 -3.2790  1.3265
17772TIP3    H274808   4.488   2.975   0.998 -1.1439  0.3185  0.8590
17773TIP3   OH274809   6.054   3.021   6.793  0.4014  1.3249  0.1976
17773TIP3    H174810   5.959   3.031   6.800  0.4020  0.0971  2.3441
17773TIP3    H274811   6.082   3.095   6.738 -1.9502  0.7711 -1.8263
17774TIP3   OH274812   4.877   6.309  12.891  0.0073 -0.0334 -0.5544
17774TIP3    H174813   4.929   6.256  12.951  1.3346  1.3016 -0.4896
17774TIP3    H274814   4.810   6.250  12.858 -0.3678 -0.9609  1.7560
17775TIP3   OH274815   3.610   5.773  13.217 -0.0687 -0.0783  0.2892
17775TIP3    H174816   3.566   5.815  13.290  3.2372 -0.7243  2.7384
17775TIP3    H274817   3.578   5.683  13.218 -0.0686 -0.0697  0.8669
17776TIP3   OH274818   4.674   5.536  14.798  0.8528  0.0878 -0.0562
17776TIP3    H174819   4.632   5.540  14.884 -0.7912 -0.2835 -0.8332
17776TIP3    H274820   4.602   5.522  14.736  1.9420  0.9280 -1.5588
17777TIP3   OH274821   1.140   4.648  13.263 -0.5086 -0.3810 -0.3760
17777TIP3    H174822   1.140   4.600  13.346  1.6628  0.4038  0.1111
17777TIP3    H274823   1.075   4.717  13.274 -1.4791 -1.3503  0.0258
17778TIP3   OH274824   3.750   2.724   4.797 -0.2247 -0.2477 -0.1160
17778TIP3    H174825   3.721   2.653   4.740 -2.2745  0.7239 -0.3119
17778TIP3    H274826   3.846   2.719   4.794 -0.2610 -0.4386 -3.3822
17779TIP3   OH274827   3.957   4.892   5.583  0.5741  0.0902  0.1358
17779TIP3    H174828   3.968   4.987   5.582 -0.0570  0.1701  0.3344
17779TIP3    H274829   3.995   4.862   5.501 -1.8678  0.8227 -1.3106
17780TIP3   OH274830   6.413   1.738   3.315 -0.1717  0.0761 -0.1053
17780TIP3    H174831   6.325   1.709   3.341 -0.1612 -1.0064 -1.2538
17780TIP3    H274832   6.442   1.672   3.253  1.9921 -0.3045  1.2662
17781TIP3   OH274833   0.168   5.068   4.822 -0.4038  0.0568  0.5204
17781TIP3    H174834   0.253   5.041   4.787  0.4827  0.4993  2.2956
17781TIP3    H274835   0.174   5.163   4.829 -0.9402  0.0623  0.9207
17782TIP3   OH274836   5.109   2.106  13.101 -0.3881  0.1047 -0.3451
17782TIP3    H174837   5.116   2.201  13.108 -2.0557  0.1177  1.6058
17782TIP3    H274838   5.173   2.072  13.164  2.7328 -0.1678 -3.5243
17783TIP3   OH274839   0.090   3.803   1.027  0.2092 -0.3076  0.3284
17783TIP3    H174840   0.071   3.715   0.993 -0.1518  0.5652 -1.8199
17783TIP3    H274841   0.139   3.845   0.957  0.1248  1.3155  1.2263
17784TIP3   OH274842   1.281   1.072   3.965 -0.1419  0.6049 -0.0445
17784TIP3    H174843   1.223   1.006   3.927  0.5169  1.5643 -2.8498
17784TIP3    H274844   1.225   1.149   3.977 -0.1990  0.5015  0.3753
17785TIP3   OH274845   3.812   0.783   1.649  0.2333 -0.2907 -0.3873
17785TIP3    H174846   3.836   0.696   1.616  1.6544 -0.0106 -0.1194
17785TIP3    H274847   3.887   0.838   1.627 -0.2638  0.6615  0.2890
17786TIP3   OH274848   6.007   6.029   5.209 -0.3625  0.3530  0.3950
17786TIP3    H174849   6.072   6.014   5.278  1.2298 -0.9285 -1.3159
17786TIP3    H274850   5.930   5.980   5.237 -0.1033  0.7044  1.7594
17787TIP3   OH274851   0.502   3.126  13.375  0.1353  0.0543  0.5020
17787TIP3    H174852   0.411   3.136  13.345  0.9357  1.1907 -1.6465
17787TIP3    H274853   0.539   3.059  13.317  1.0167  0.5397  0.4910
17788TIP3   OH274854   3.603   0.896   5.430  0.0362  0.7102  0.1798
17788TIP3    H174855   3.548   0.892   5.508 -1.6596 -0.1773 -1.0184
17788TIP3    H274856   3.560   0.961   5.374  1.9007  2.2189  0.4497
17789TIP3   OH274857   5.290   3.524   4.146  0.4943  0.1781 -0.5967
17789TIP3    H174858   5.337   3.449   4.109  0.6086 -0.8501  1.5209
17789TIP3    H274859   5.226   3.485   4.206 -1.0255  1.7001 -1.1717
17790TIP3   OH274860   5.559   2.645  12.258  0.1383  0.5729  0.3656
17790TIP3    H174861   5.498   2.654  12.331  0.8094 -0.5134  1.0830
17790TIP3    H274862   5.645   2.661  12.297  0.5648 -0.7042 -0.0280
17791TIP3   OH274863   5.483   5.873  16.613 -0.1913 -0.6346 -0.4077
17791TIP3    H174864   5.484   5.968  16.606  0.4593 -0.6631 -0.7457
17791TIP3    H274865   5.400   5.852  16.656 -2.1316 -0.1231 -3.7001
17792TIP3   OH274866   3.666   3.703  15.434 -0.1277 -0.2645  0.0679
17792TIP3    H174867   3.583   3.740  15.466  0.3564 -0.0854  1.1336
17792TIP3    H274868   3.724   3.779  15.429  0.9092 -0.8799  2.3727
17793TIP3   OH274869   5.630   4.218  17.176  0.3170 -0.4683  0.7087
17793TIP3    H174870   5.575   4.190  17.249  2.6697 -1.3829  2.2169
17793TIP3    H274871   5.656   4.137  17.133  0.5565 -0.0724  0.1041
17794TIP3   OH274872   2.203   2.083  11.960 -0.1075 -0.2645  0.5520
17794TIP3    H174873   2.137   2.141  11.999  2.1969  1.4982  1.9135
17794TIP3    H274874   2.279   2.091  12.016  0.9719 -3.0800 -0.4255
17795TIP3   OH274875   6.630   2.776  14.845 -0.2490 -0.3706 -0.4059
17795TIP3    H174876   6.562   2.843  14.841 -0.1617 -0.4086 -3.1907
17795TIP3    H274877   6.585   2.699  14.881 -0.2831  1.1718  3.0567
17796TIP3   OH274878   4.095   0.168   4.473  0.2075  0.1042  0.4687
17796TIP3    H174879   4.078   0.252   4.516 -0.1849  0.8823 -1.1747
17796TIP3    H274880   4.020   0.113   4.498 -1.8967  1.6894 -2.0371
17797TIP3   OH274881   6.792   1.085   3.087  0.1161  0.3799 -0.1346
17797TIP3    H174882   6.728   1.122   3.148 -0.4207  0.0223 -0.4742
17797TIP3    H274883   6.848   1.030   3.141  1.1189  1.9143  0.4312
17798TIP3   OH274884   0.240   5.387   3.726 -0.1148 -0.7098  0.4918
17798TIP3    H174885   0.187   5.405   3.803 -0.5943  1.6048 -0.3525
17798TIP3    H274886   0.312   5.450   3.731  1.3573 -2.3507  0.4548
17799TIP3   OH274887   0.496   3.980  13.125 -0.4899  0.2746  0.4504
17799TIP3    H174888   0.568   3.980  13.062 -0.6310  0.3631  0.2889
17799TIP3    H274889   0.440   4.052  13.098 -1.6402 -0.9716 -0.5863
17800TIP3   OH274890   0.359   0.884   0.323 -0.1582 -0.5495 -0.2606
17800TIP3    H174891   0.266   0.872   0.341 -0.0880  0.9008  1.1310
17800TIP3    H274892   0.403   0.863   0.405  0.8093 -1.8521 -1.0891
17801TIP3   OH274893   0.310   0.794  16.359 -0.1665 -0.9283 -0.3225
17801TIP3    H174894   0.279   0.836  16.278  0.5976 -0.0547 -0.1737
17801TIP3    H274895   0.361   0.719  16.328 -0.1483 -0.7870 -0.6438
17802TIP3   OH274896   2.969   0.401   3.823 -0.3534  0.3597  0.0816
17802TIP3    H174897   2.876   0.413   3.802 -0.3551  1.2654  0.5422
17802TIP3    H274898   2.976   0.310   3.850 -1.2891  0.5260  0.9172
17803TIP3   OH274899   2.882   0.743  15.464 -0.0306 -0.4234 -0.2518
17803TIP3    H174900   2.900   0.799  15.388 -0.1954  0.2542  0.2003
17803TIP3    H274901   2.857   0.659  15.426 -1.2429  0.2520 -0.9738
17804TIP3   OH274902   4.486   3.870  15.949 -0.4919 -0.2221 -0.5547
17804TIP3    H174903   4.440   3.787  15.955 -1.3053  0.1751 -1.1085
17804TIP3    H274904   4.452   3.911  15.869  0.0122  0.5719 -0.3783
17805TIP3   OH274905   6.391   0.546  13.458 -0.3336  0.2524 -0.3471
17805TIP3    H174906   6.368   0.485  13.388  0.9162  2.3885 -2.6748
17805TIP3    H274907   6.321   0.612  13.456 -0.1975  0.4251  0.3345
17806TIP3   OH274908   4.865   4.108  14.426  0.1233  0.2742 -0.3196
17806TIP3    H174909   4.878   4.190  14.379 -1.8220  0.0015 -1.4332
17806TIP3    H274910   4.778   4.079  14.398  0.2161 -1.4646  1.1183
17807TIP3   OH274911   4.944   4.322   1.563 -0.7536 -0.1472  0.0603
17807TIP3    H174912   4.959   4.263   1.489 -1.5568  0.1159 -0.3231
17807TIP3    H274913   4.867   4.286   1.607  0.9324 -1.4844  2.0003
17808TIP3   OH274914   4.093   4.108  11.405  0.0778  0.1158 -0.3436
17808TIP3    H174915   4.086   4.113  11.310 -1.2945 -0.6245 -0.2893
17808TIP3    H274916   4.129   4.021  11.422 -0.7685 -0.2045 -0.1475
17809TIP3   OH274917   6.434   6.214  17.080 -0.2004  0.0657  0.1686
17809TIP3    H174918   6.386   6.256  17.008 -1.9180 -2.1420 -0.0501
17809TIP3    H274919   6.484   6.144  17.038 -0.1524 -0.3667  0.9298
17810TIP3   OH274920   0.794   2.575  16.692  0.1118 -0.1514  0.2532
17810TIP3    H174921   0.807   2.545  16.602 -0.2286 -0.3245  0.2643
17810TIP3    H274922   0.766   2.667  16.683 -1.3809 -0.6087  0.1290
17811TIP3   OH274923   4.130   4.680  12.080 -0.2921  0.1708 -0.2132
17811TIP3    H174924   4.190   4.607  12.067 -1.4555 -1.1884  1.8005
17811TIP3    H274925   4.188   4.756  12.090  1.0183 -0.7810 -0.4350
17812TIP3   OH274926   4.523   5.259   6.084  0.6041 -0.3097 -0.5113
17812TIP3    H174927   4.583   5.229   6.152  0.2328 -1.6282 -0.7562
17812TIP3    H274928   4.478   5.334   6.123  0.1069 -1.2959  0.8511
17813TIP3   OH274929   0.652   3.741   5.776 -0.4160  0.1737 -0.0084
17813TIP3    H174930   0.730   3.719   5.724  1.6259  1.0439  2.5819
17813TIP3    H274931   0.603   3.660   5.781  0.9521 -0.7204 -0.6550
17814TIP3   OH274932   6.632   4.969   2.809  0.1241 -0.1236 -0.4869
17814TIP3    H174933   6.693   5.016   2.865 -1.1041  0.4272  0.4333
17814TIP3    H274934   6.638   4.878   2.837 -1.4096  0.3325  1.4820
17815TIP3   OH274935   4.142   5.195  11.464 -0.2992  0.0461  0.2981
17815TIP3    H174936   4.123   5.271  11.518  0.0367  1.3206 -1.3234
17815TIP3    H274937   4.057   5.154  11.449 -0.3195 -0.6564  2.2487
17816TIP3   OH274938   6.236   3.230  13.402 -0.0460 -0.7418 -0.1127
17816TIP3    H174939   6.177   3.276  13.343  0.7035  0.5549  0.1206
17816TIP3    H274940   6.232   3.281  13.483  1.4828 -0.5611 -0.1442
17817TIP3   OH274941   6.034   5.203   4.543 -0.4354  0.7297 -0.2449
17817TIP3    H174942   6.098   5.151   4.593  0.0766  0.2676 -1.3747
17817TIP3    H274943   6.087   5.264   4.493 -0.8770  0.2386 -1.3128
17818TIP3   OH274944   4.917   2.399  11.229  0.1534 -0.2760 -0.2165
17818TIP3    H174945   4.878   2.478  11.190 -0.2517  0.3368  1.4005
17818TIP3    H274946   4.898   2.407  11.323 -1.1923 -3.0200 -0.2015
17819TIP3   OH274947   0.511   2.129  13.555 -0.4723  0.2266 -0.0811
17819TIP3    H174948   0.524   2.065  13.625 -1.1258 -0.4354 -0.5682
17819TIP3    H274949   0.423   2.163  13.569 -0.9728 -0.5985 -1.1426
17820TIP3   OH274950   5.743   4.337  14.191  0.1318 -0.3561 -0.2799
17820TIP3    H174951   5.800   4.407  14.159 -0.9307  0.3014 -0.7599
17820TIP3    H274952   5.708   4.370  14.274 -0.1330 -0.4547 -0.3525
17821TIP3   OH274953   3.505   2.180  16.783 -0.0525  0.6024 -0.2332
17821TIP3    H174954   3.413   2.156  16.771  0.1685  0.1603 -1.1528
17821TIP3    H274955   3.553   2.116  16.730  0.8106  0.5390  0.6241
17822TIP3   OH274956   2.873   0.226  13.625 -0.4067 -0.9162 -0.0591
17822TIP3    H174957   2.962   0.202  13.597  0.1010 -0.0920  0.8053
17822TIP3    H274958   2.848   0.158  13.687  0.6637  0.2055  1.6729
17823TIP3   OH274959   3.601   0.037  15.530 -0.6109  0.2936 -0.3243
17823TIP3    H174960   3.628  -0.042  15.576 -0.1131 -0.2868 -1.5687
17823TIP3    H274961   3.683   0.082  15.510 -0.8525  0.8022 -0.1778
17824TIP3   OH274962   3.433   3.363   2.443 -0.3371 -0.6861  0.3605
17824TIP3    H174963   3.509   3.308   2.426  0.8770  1.5797 -1.9738
17824TIP3    H274964   3.358   3.305   2.431  0.9806 -2.5931  1.1992
17825TIP3   OH274965   1.708   0.469  11.147 -0.2417  0.1543  0.2519
17825TIP3    H174966   1.681   0.436  11.232 -0.8062  3.3463  1.3739
17825TIP3    H274967   1.649   0.543  11.130  1.8971  1.5438 -1.4320
17826TIP3   OH274968   5.097   4.868   3.590 -0.1885 -0.0022 -0.5688
17826TIP3    H174969   5.008   4.859   3.624 -0.8391 -0.0465 -2.2278
17826TIP3    H274970   5.093   4.945   3.533  0.1904 -1.4383 -2.5925
17827TIP3   OH274971   3.341   1.110   2.833  0.0303  0.0802 -0.2717
17827TIP3    H174972   3.303   1.049   2.897  4.1506 -0.4406  1.8745
17827TIP3    H274973   3.324   1.197   2.869 -0.9935 -0.0479 -0.4476
17828TIP3   OH274974   3.743   2.876  12.206  0.1564  0.0047  0.1657
17828TIP3    H174975   3.762   2.930  12.283 -1.0327 -0.6493  0.9407
17828TIP3    H274976   3.676   2.924  12.159 -1.4650 -1.1186  1.2618
17829TIP3   OH274977   1.310   4.726   1.437 -1.2022 -0.0309 -0.3762
17829TIP3    H174978   1.305   4.790   1.508  0.3965  1.5089 -1.6092
17829TIP3    H274979   1.344   4.776   1.362 -1.3751 -1.9781 -1.7948
17830TIP3   OH274980   0.979   0.580  16.311  0.2199 -0.0174  0.3088
17830TIP3    H174981   0.982   0.497  16.360 -0.6328 -0.5162 -0.4692
17830TIP3    H274982   0.901   0.572  16.256  0.6099  0.9623 -0.3877
17831TIP3   OH274983   4.690   1.120   0.372 -0.2429  0.4711 -0.8350
17831TIP3    H174984   4.785   1.117   0.387 -0.4430 -2.5943  0.2406
17831TIP3    H274985   4.680   1.119   0.277  0.8156 -0.6005 -0.9513
17832TIP3   OH274986   3.211   5.604   1.880  0.1883 -0.0890 -0.5729
17832TIP3    H174987   3.142   5.669   1.872 -0.4058 -0.8339 -1.5808
17832TIP3    H274988   3.210   5.579   1.973  0.0328  0.9011 -0.3064
17833TIP3   OH274989   3.978   1.856  15.307 -1.0877 -0.2187 -0.0497
17833TIP3    H174990   3.989   1.777  15.359 -1.6927  0.7205  1.5596
17833TIP3    H274991   4.067   1.886  15.288 -0.8521 -1.7406 -1.4150
17834TIP3   OH274992   0.039   2.333   6.584 -0.6163  0.5208  0.1992
17834TIP3    H174993   0.013   2.241   6.584  1.5165 -0.1045 -0.5804
17834TIP3    H274994   0.112   2.337   6.646  0.4663  1.3076 -1.0884
17835TIP3   OH274995   2.579   6.067   2.627 -0.2612 -0.0098  0.1738
17835TIP3    H174996   2.665   6.090   2.661  0.3802 -0.2712 -1.2467
17835TIP3    H274997   2.541   6.151   2.600 -1.0282  0.2767  2.0791
17836TIP3   OH274998   6.767   6.194  16.066  0.4858 -0.0875 -0.2177
17836TIP3    H174999   6.766   6.152  16.152 -0.5808  1.9275  0.7903
17836TIP3    H275000   6.719   6.134  16.009 -0.9824 -0.2511  1.1777
17837TIP3   OH275001   4.433   1.942   0.046  0.3918 -0.3828 -0.3238
17837TIP3    H175002   4.500   1.875   0.029 -0.6036 -1.2069 -1.0492
17837TIP3    H275003   4.355   1.892   0.072 -0.1897  0.5312 -0.3042
17838TIP3   OH275004   2.816   6.351   0.044  0.6960  0.3228 -0.1163
17838TIP3    H175005   2.744   6.325   0.103  2.4106 -0.5591  1.6508
17838TIP3    H275006   2.837   6.440   0.072  2.4122 -0.5768  1.5897
17839TIP3   OH275007   5.884   4.965   5.733  0.1201  0.4705  0.4646
17839TIP3    H175008   5.892   4.991   5.824  1.6252  0.1618  0.4241
17839TIP3    H275009   5.829   4.887   5.735 -1.9901  1.9012  0.8489
17840TIP3   OH275010   2.483   6.060  14.352  0.2922 -0.5345 -0.1253
17840TIP3    H175011   2.435   6.123  14.407 -0.0336 -0.8490 -0.0456
17840TIP3    H275012   2.475   5.977  14.399  1.5321 -0.4472  0.2485
17841TIP3   OH275013   4.958   1.396   4.166 -0.6977  0.6079  0.0543
17841TIP3    H175014   4.998   1.397   4.079  0.7987  0.1051  0.7174
17841TIP3    H275015   5.028   1.366   4.224 -1.6442  1.0499  1.4501
17842TIP3   OH275016   2.597   2.196  16.486 -0.3173 -0.0652  0.5521
17842TIP3    H175017   2.687   2.164  16.490 -0.0655  0.2092 -2.1313
17842TIP3    H275018   2.543   2.117  16.480 -0.3008 -0.2311  2.2247
17843TIP3   OH275019   3.558   1.833   2.845 -0.4100 -0.2233  0.6707
17843TIP3    H175020   3.585   1.895   2.778 -0.0171 -0.9791  0.1268
17843TIP3    H275021   3.491   1.880   2.895 -1.6046 -0.1037 -1.0174
17844TIP3   OH275022   6.667   4.024  12.932 -0.2135 -0.3685 -0.3571
17844TIP3    H175023   6.615   4.047  13.009 -2.3499 -1.0936 -1.5566
17844TIP3    H275024   6.695   3.934  12.948  2.2845  0.5866  1.1096
17845TIP3   OH275025   1.169   2.075  12.114  0.1543 -0.4555  0.0557
17845TIP3    H175026   1.147   2.096  12.205 -1.4906  1.4365 -0.7430
17845TIP3    H275027   1.264   2.080  12.111  0.0728  2.7809  0.9546
17846TIP3   OH275028   3.042   0.660  12.945 -0.8803 -0.3850  0.0081
17846TIP3    H175029   3.044   0.581  12.998  1.1788  0.1167  0.7011
17846TIP3    H275030   3.059   0.630  12.855  1.3884 -0.5731  0.4794
17847TIP3   OH275031   1.282   4.522  15.791  0.3722  1.0638 -0.2894
17847TIP3    H175032   1.240   4.441  15.762  1.7947  0.5784 -1.0241
17847TIP3    H275033   1.261   4.586  15.723 -0.4162  1.2051  0.0878
17848TIP3   OH275034   4.483   1.693  13.810 -0.0405 -0.0985 -0.2396
17848TIP3    H175035   4.392   1.719  13.794 -0.7564 -2.2335  0.2166
17848TIP3    H275036   4.496   1.708  13.903  0.4865  1.3668 -0.5321
17849TIP3   OH275037   2.823   5.219   2.646 -0.1186  0.1292  0.0600
17849TIP3    H175038   2.791   5.297   2.600  0.6213 -0.3004 -1.2185
17849TIP3    H275039   2.912   5.243   2.673 -0.0432 -0.1163  0.0308
17850TIP3   OH275040   5.588   6.258  10.923 -0.0063 -0.5398  0.2086
17850TIP3    H175041   5.500   6.238  10.954 -0.1122  0.3406  0.4817
17850TIP3    H275042   5.577   6.334  10.866  0.8355  0.9077  1.9031
17851TIP3   OH275043   5.405   4.505  13.809 -0.0602 -0.1848 -0.3861
17851TIP3    H175044   5.489   4.549  13.797 -0.2887  0.3407 -0.0561
17851TIP3    H275045   5.408   4.431  13.748 -0.8398  1.9136 -3.0577
17852TIP3   OH275046   5.657   5.807   0.423 -0.4842 -0.5838 -0.7292
17852TIP3    H175047   5.642   5.894   0.386 -1.1139 -0.4667 -0.2104
17852TIP3    H275048   5.613   5.810   0.509 -0.4764 -1.3988 -0.6961
17853TIP3   OH275049   1.226   0.365  13.677  0.3609 -0.0513 -0.3889
17853TIP3    H175050   1.163   0.437  13.683 -0.0925 -0.4386 -0.4581
17853TIP3    H275051   1.285   0.390  13.606  0.9745  0.8519  0.4352
17854TIP3   OH275052   0.334   2.668   5.179 -0.2442  0.0292  0.3279
17854TIP3    H175053   0.247   2.631   5.196 -0.0832 -0.4068  0.2068
17854TIP3    H275054   0.321   2.725   5.103 -0.7281  1.1018  1.1939
17855TIP3   OH275055   0.709   1.387   0.812  0.0983 -0.3982 -0.5953
17855TIP3    H175056   0.682   1.435   0.734  0.1966 -0.1687 -0.4912
17855TIP3    H275057   0.698   1.295   0.790 -1.5772 -0.2950 -0.2701
17856TIP3   OH275058   2.713   3.303  14.920  0.0438  0.2409  0.1517
17856TIP3    H175059   2.660   3.370  14.877  1.3692 -0.1421 -2.1359
17856TIP3    H275060   2.800   3.343  14.929  0.5214 -0.7147 -0.1179
17857TIP3   OH275061   0.761   4.893   1.111  0.0556  0.5482 -0.3062
17857TIP3    H175062   0.846   4.854   1.088 -0.7235 -0.4276 -1.6343
17857TIP3    H275063   0.699   4.848   1.054 -1.3233  1.4356  0.4862
17858TIP3   OH275064   4.162   3.344   1.097 -0.1692 -0.3093  0.1642
17858TIP3    H175065   4.093   3.327   1.034  1.5521  0.6205 -2.0413
17858TIP3    H275066   4.236   3.291   1.067  1.5615  2.2396 -0.2565
17859TIP3   OH275067   2.243   6.414  16.698  0.2561  0.8495  0.4457
17859TIP3    H175068   2.177   6.393  16.633  0.8660  0.5404 -0.0874
17859TIP3    H275069   2.280   6.497  16.668  1.1816  0.2431 -0.1261
17860TIP3   OH275070   1.971   3.775  12.639 -0.1720 -0.1125 -0.1110
17860TIP3    H175071   1.951   3.761  12.732 -1.0274  0.3255 -0.2187
17860TIP3    H275072   2.041   3.841  12.640 -1.9891  1.9003  0.1890
17861TIP3   OH275073   5.900   6.690   5.157 -0.5339 -0.3634  0.4853
17861TIP3    H175074   5.861   6.745   5.225 -0.6628  0.1597 -0.0142
17861TIP3    H275075   5.866   6.602   5.176 -1.7793  0.0456  0.1876
17862TIP3   OH275076   3.090   1.976   2.974 -0.2676  0.3060  0.2159
17862TIP3    H175077   3.162   1.918   3.000  1.0924  1.9251  0.1344
17862TIP3    H275078   3.082   1.962   2.880  1.4214  1.6853 -0.1721
17863TIP3   OH275079   4.046   4.684   1.869 -0.3135  0.3865 -0.2854
17863TIP3    H175080   3.981   4.721   1.928 -3.1083 -1.5003 -2.0514
17863TIP3    H275081   4.070   4.601   1.908  0.3038  0.6373 -0.1322
17864TIP3   OH275082   2.355   0.938  11.064 -0.8303  0.3296  0.0004
17864TIP3    H175083   2.381   1.010  11.007  1.2552  0.6193  1.2762
17864TIP3    H275084   2.323   0.870  11.005 -0.7637  1.4701 -1.3494
17865TIP3   OH275085   0.310   5.779  12.945 -0.0484  0.1829 -0.0854
17865TIP3    H175086   0.298   5.864  12.902  0.7835  1.1677  1.6134
17865TIP3    H275087   0.356   5.726  12.880  2.1838  2.0111 -0.0558
17866TIP3   OH275088   2.613   2.295   1.743 -0.3385  0.1068  0.5331
17866TIP3    H175089   2.641   2.278   1.653 -0.9107 -2.5252  0.7950
17866TIP3    H275090   2.686   2.266   1.797 -0.6410  0.1395  0.9635
17867TIP3   OH275091   1.963   4.703  11.442 -0.2794 -0.1577  0.0408
17867TIP3    H175092   1.915   4.769  11.392  0.3455  0.0698 -0.2600
17867TIP3    H275093   2.020   4.753  11.500  0.8301 -0.4246 -0.7972
17868TIP3   OH275094   5.749   2.190   3.527 -0.0612  0.5037 -0.1166
17868TIP3    H175095   5.809   2.115   3.519  0.2319  0.7290 -0.0643
17868TIP3    H275096   5.664   2.156   3.502 -0.3405 -0.4120  1.9697
17869TIP3   OH275097   2.845   4.905   3.613  0.1070 -0.0685 -0.1967
17869TIP3    H175098   2.908   4.888   3.542  0.7587 -0.4186  0.4519
17869TIP3    H275099   2.899   4.907   3.692 -0.7077 -0.4264  0.3732
17870TIP3   OH275100   6.646   3.897   6.197  0.0336  0.0697 -0.2579
17870TIP3    H175101   6.617   3.813   6.233 -1.1854  0.0376 -1.2653
17870TIP3    H275102   6.644   3.957   6.271 -1.9562 -0.1032 -0.1434
17871TIP3   OH275103   1.108   1.763  12.238  0.1150 -0.3325 -0.4834
17871TIP3    H175104   1.128   1.849  12.275  1.8857 -1.5558  1.5663
17871TIP3    H275105   1.054   1.781  12.162  2.9350  2.7645 -1.8512
17872TIP3   OH275106   1.710   4.019  15.517  0.0412  0.0168 -0.5697
17872TIP3    H175107   1.664   4.103  15.509 -0.5138 -0.3651 -1.5741
17872TIP3    H275108   1.666   3.962  15.453  1.1135 -0.7224 -0.6585
17873TIP3   OH275109   1.844   1.887  13.697  0.2084  0.0819 -0.2166
17873TIP3    H175110   1.923   1.852  13.656 -1.0263 -0.5555 -2.0849
17873TIP3    H275111   1.852   1.982  13.688 -0.6549 -0.0792 -3.1571
17874TIP3   OH275112   3.746   6.785  13.739 -0.0659  0.3534  0.2456
17874TIP3    H175113   3.840   6.787  13.758 -0.0688  0.4665  0.2492
17874TIP3    H275114   3.740   6.798  13.644 -0.0876  0.5330  0.2719
17875TIP3   OH275115   2.757   4.137  15.124  0.2257 -0.1617 -0.2220
17875TIP3    H175116   2.696   4.074  15.086 -1.0429  0.7163  0.3022
17875TIP3    H275117   2.728   4.147  15.215  2.1433 -0.9185  0.5096
17876TIP3   OH275118   1.182   0.094   0.161 -0.8456 -0.0393  0.3530
17876TIP3    H175119   1.127   0.051   0.227  0.1706 -1.2573  0.4281
17876TIP3    H275120   1.155   0.057   0.078 -1.1782  0.4895  0.2193
17877TIP3   OH275121   5.860   3.800  13.627 -1.1394  0.7096 -0.1206
17877TIP3    H175122   5.853   3.875  13.686  0.9536 -0.3989  1.5899
17877TIP3    H275123   5.954   3.784  13.619 -1.5459 -2.6404  0.7629
17878TIP3   OH275124   4.904   3.287   1.104 -0.5638  0.0113 -0.6148
17878TIP3    H175125   4.812   3.315   1.100 -0.4770  0.2125 -1.2539
17878TIP3    H275126   4.900   3.192   1.095 -0.7835 -0.0875  0.4689
17879TIP3   OH275127   5.238   0.832  11.273 -0.0285  0.2876 -0.4670
17879TIP3    H175128   5.334   0.827  11.274 -0.0930 -1.1888 -0.3538
17879TIP3    H275129   5.217   0.875  11.191  0.6810 -0.9559 -1.3111
17880TIP3   OH275130   0.059   0.684  13.350  0.1793 -0.0859 -0.3272
17880TIP3    H175131   0.088   0.776  13.350 -0.1880  0.0333 -0.9782
17880TIP3    H275132  -0.022   0.684  13.400 -0.0670  0.0257 -0.7245
17881TIP3   OH275133   1.657   2.856   0.585  0.0804 -0.3166 -0.3677
17881TIP3    H175134   1.628   2.810   0.506 -0.2548 -0.5993 -0.0858
17881TIP3    H275135   1.752   2.850   0.584  0.0032 -1.7957  0.1238
17882TIP3   OH275136   3.279   2.045  16.129 -0.3882  0.3461 -0.0736
17882TIP3    H175137   3.255   2.052  16.037  2.7557  1.3637 -0.8767
17882TIP3    H275138   3.321   2.129  16.150  2.4929 -1.3220  1.1355
17883TIP3   OH275139   4.799   4.140  12.616  0.2122 -0.2245  0.0401
17883TIP3    H175140   4.850   4.097  12.548 -0.3963 -0.8994  0.0039
17883TIP3    H275141   4.712   4.149  12.578  0.2775  0.8268  0.1375
17884TIP3   OH275142   5.827   2.136  14.468 -0.4447  0.3631  0.2750
17884TIP3    H175143   5.744   2.157  14.425  0.4970  0.4211 -1.5326
17884TIP3    H275144   5.811   2.154  14.561 -1.7760  2.4600 -0.3431
17885TIP3   OH275145   2.795   3.448  10.889 -0.9223 -0.6819 -0.2426
17885TIP3    H175146   2.835   3.368  10.856  0.4868 -0.1228  0.0829
17885TIP3    H275147   2.751   3.422  10.970  1.3392 -0.7282  1.0136
17886TIP3   OH275148   1.374   6.407  16.029 -0.4918 -0.6015  0.1992
17886TIP3    H175149   1.350   6.406  16.122  1.6285  0.1213  0.7877
17886TIP3    H275150   1.302   6.453  15.986 -0.2096  1.5235  1.9081
17887TIP3   OH275151   4.036   3.976  14.714 -0.2568  0.5473  0.0042
17887TIP3    H175152   4.130   3.974  14.732 -0.2332  0.7356 -0.0980
17887TIP3    H275153   4.017   4.068  14.694 -0.9341  0.9848  2.4850
17888TIP3   OH275154   3.393   1.090   6.278 -0.2803  0.3999  0.0318
17888TIP3    H175155   3.465   1.027   6.272 -0.5903  0.0508 -0.1115
17888TIP3    H275156   3.435   1.175   6.280  0.1544  0.1791  0.3724
17889TIP3   OH275157   3.249   6.022   1.861 -0.0058 -0.0064  0.2633
17889TIP3    H175158   3.260   5.982   1.948  0.9624  0.3323  0.3056
17889TIP3    H275159   3.329   6.073   1.848 -0.5741  0.7155 -0.4288
17890TIP3   OH275160   5.111   3.180  16.146  0.1365  0.3458 -0.5123
17890TIP3    H175161   5.168   3.200  16.221 -0.9714 -0.4960  0.5811
17890TIP3    H275162   5.032   3.231  16.163 -0.3369 -0.2836 -0.8303
17891TIP3   OH275163   6.182   0.547  11.560  0.3178 -0.1411  0.0103
17891TIP3    H175164   6.217   0.559  11.472 -0.1797  2.1141  0.1060
17891TIP3    H275165   6.169   0.452  11.568  2.7001 -0.6250 -1.4262
17892TIP3   OH275166   0.828   5.528   3.634 -0.1606  0.0059  0.3160
17892TIP3    H175167   0.834   5.453   3.574  3.6955  0.6853 -0.3077
17892TIP3    H275168   0.845   5.491   3.720 -1.0592 -0.2796  0.3663
17893TIP3   OH275169   2.027   3.334   3.497  0.2315 -0.5901 -0.2928
17893TIP3    H175170   1.986   3.409   3.455  2.1504 -0.4699 -2.0033
17893TIP3    H275171   2.063   3.369   3.579 -1.9244 -0.4444  0.6354
17894TIP3   OH275172   2.767   0.128   0.452  0.1715  0.1678  0.7413
17894TIP3    H175173   2.719   0.109   0.371  0.2038  0.3348  0.6835
17894TIP3    H275174   2.762   0.046   0.502 -0.5401  0.3221  0.9263
17895TIP3   OH275175   6.686   4.475   3.694 -0.0826 -0.1836 -0.1134
17895TIP3    H175176   6.756   4.478   3.759 -0.7262  1.7772  0.5041
17895TIP3    H275177   6.606   4.472   3.745 -0.6332  2.2421 -0.7967
17896TIP3   OH275178   1.565   4.688  14.489 -0.0745 -0.6843 -0.7041
17896TIP3    H175179   1.479   4.647  14.484 -0.7431  0.5356  0.4229
17896TIP3    H275180   1.562   4.740  14.570  0.7331  1.5321 -2.0417
17897TIP3   OH275181   3.753   5.738   3.283  0.0914 -0.3081  0.1954
17897TIP3    H175182   3.708   5.821   3.269  1.5070  0.4678  0.2024
17897TIP3    H275183   3.721   5.708   3.369 -0.8964 -0.0928 -0.0897
17898TIP3   OH275184   0.469   5.495   2.717  0.1922 -0.3622  0.5793
17898TIP3    H175185   0.480   5.499   2.812 -0.8895  0.2071  0.6857
17898TIP3    H275186   0.446   5.403   2.700 -2.3403  0.1288  1.1817
17899TIP3   OH275187   1.680   3.755   2.455 -0.2602 -0.0990  0.0237
17899TIP3    H175188   1.705   3.719   2.541 -0.4331 -1.4531 -0.4835
17899TIP3    H275189   1.644   3.842   2.475  1.3679  0.3484  1.1361
17900TIP3   OH275190   5.560   0.487  16.588 -0.1260  0.0927  1.2187
17900TIP3    H175191   5.560   0.500  16.493  0.2942  0.8269  1.3203
17900TIP3    H275192   5.533   0.395  16.599  1.8975 -0.6520  0.2851
17901TIP3   OH275193   0.845   3.539  14.334  0.2477 -0.2224  0.2172
17901TIP3    H175194   0.896   3.492  14.268  0.0743  0.0263 -0.0964
17901TIP3    H275195   0.794   3.471  14.378 -0.1000 -0.3133 -0.3247
17902TIP3   OH275196   4.503   2.053   1.380  0.0664 -0.6948  0.2233
17902TIP3    H175197   4.516   2.054   1.475 -0.5940 -1.3271  0.3209
17902TIP3    H275198   4.520   1.963   1.354 -0.4852 -0.6943 -0.1502
17903TIP3   OH275199   1.196   1.071  11.887  0.1305  0.4933  0.2296
17903TIP3    H175200   1.286   1.053  11.914  0.2119  0.4933 -0.0420
17903TIP3    H275201   1.205   1.129  11.811 -0.0496 -0.5978 -0.6544
17904TIP3   OH275202   4.287   3.836   1.069 -0.3113  0.0809  0.0459
17904TIP3    H175203   4.232   3.760   1.048 -1.5739  1.0226 -0.1563
17904TIP3    H275204   4.335   3.810   1.148  1.3918 -1.9595 -1.6020
17905TIP3   OH275205   5.514   2.797  16.543 -0.3207 -0.0193 -0.4875
17905TIP3    H175206   5.510   2.714  16.592  0.5584 -0.3418 -0.9518
17905TIP3    H275207   5.582   2.783  16.478 -1.1657  0.5717 -1.5139
17906TIP3   OH275208   4.339   4.013   2.805 -0.4306  0.5538  0.0386
17906TIP3    H175209   4.289   4.057   2.737 -0.2347  1.4940  0.4995
17906TIP3    H275210   4.342   3.921   2.777 -1.0432  0.7862 -0.7966
17907TIP3   OH275211   4.817   6.224  15.470  0.1196  0.0155  0.2367
17907TIP3    H175212   4.884   6.174  15.422  0.9298 -0.6260  2.0152
17907TIP3    H275213   4.860   6.250  15.551 -1.1172  1.4529  0.4465
17908TIP3   OH275214   6.027   4.274   2.266 -0.3678 -0.7833 -0.3672
17908TIP3    H175215   5.935   4.284   2.242 -0.0195 -0.7430 -1.6896
17908TIP3    H275216   6.074   4.332   2.207  0.4728 -0.4847  0.5897
17909TIP3   OH275217   4.639   0.642   0.661 -0.4256  0.4472 -0.8107
17909TIP3    H175218   4.659   0.552   0.686 -1.4497 -0.4812 -3.1810
17909TIP3    H275219   4.707   0.665   0.598  2.0018  2.6742  2.4933
17910TIP3   OH275220   6.648   5.932  14.754  0.1679 -0.1748  0.1563
17910TIP3    H175221   6.645   5.940  14.849  1.5226  0.1681  0.1889
17910TIP3    H275222   6.723   5.986  14.728 -0.6779  0.3968 -1.1849
17911TIP3   OH275223   0.517   0.574  16.319  0.3661 -0.0252 -0.1641
17911TIP3    H175224   0.556   0.526  16.392  0.0230  0.5546  0.4054
17911TIP3    H275225   0.576   0.648  16.304  1.4854 -1.2147 -1.7554
17912TIP3   OH275226   6.388   2.676   4.446  0.4876  0.4809  0.3624
17912TIP3    H175227   6.306   2.645   4.408  2.3231 -3.1903 -0.8417
17912TIP3    H275228   6.374   2.672   4.540 -0.8436  0.2604  0.1584
17913TIP3   OH275229   3.079   0.942   3.846  0.4124 -0.2631  0.0014
17913TIP3    H175230   3.116   1.005   3.784  0.3646 -0.9295 -0.7194
17913TIP3    H275231   2.987   0.965   3.852  0.3945 -0.2626 -0.2657
17914TIP3   OH275232   5.840   3.582   6.242  0.0135  0.3103  0.5890
17914TIP3    H175233   5.823   3.585   6.336 -0.9511 -0.7635  0.4629
17914TIP3    H275234   5.759   3.611   6.201 -0.2500 -1.1086  0.0568
17915TIP3   OH275235   1.128   5.739  13.378  0.5428 -0.5477  0.5107
17915TIP3    H175236   1.033   5.749  13.375  0.5866  0.3760  1.9126
17915TIP3    H275237   1.153   5.722  13.287 -1.0688 -1.8898  0.2912
17916TIP3   OH275238   1.255   3.122   1.557  0.0014 -0.1862 -0.3018
17916TIP3    H175239   1.344   3.112   1.589  0.6069 -0.1941 -1.9354
17916TIP3    H275240   1.203   3.063   1.612  1.2379 -1.2642 -0.2742
17917TIP3   OH275241   1.205   5.055   5.001 -0.9253  0.1841  0.5948
17917TIP3    H175242   1.189   5.100   5.084 -1.7796 -3.4819  2.5271
17917TIP3    H275243   1.165   4.969   5.012 -0.0059 -0.8339 -3.2105
17918TIP3   OH275244   3.439   1.611   4.043 -0.2226 -0.3020 -1.0383
17918TIP3    H175245   3.436   1.613   4.138 -0.0044  0.2862 -1.0416
17918TIP3    H275246   3.484   1.692   4.018 -0.2711 -0.4530 -1.6392
17919TIP3   OH275247   6.013   3.256  14.777  0.0656 -0.4349 -0.0274
17919TIP3    H175248   6.082   3.305  14.732 -0.9075  0.0992 -0.9658
17919TIP3    H275249   5.972   3.320  14.835  0.3699 -0.7586  0.5495
17920TIP3   OH275250   6.009   2.494   6.108  0.1119 -0.5458  0.2285
17920TIP3    H175251   6.023   2.414   6.157  0.9527  0.5755  1.8773
17920TIP3    H275252   6.071   2.490   6.036  1.6525 -0.4200  1.5304
17921TIP3   OH275253   5.846   3.444  15.672 -0.1357 -0.1402  0.3456
17921TIP3    H175254   5.795   3.367  15.700  0.3099 -0.0844  1.3187
17921TIP3    H275255   5.806   3.469  15.589 -0.9747 -0.7882  0.5364
17922TIP3   OH275256   3.513   5.724  15.977 -0.2062 -0.5950  0.4408
17922TIP3    H175257   3.571   5.798  15.991 -0.2365 -0.8703  2.1735
17922TIP3    H275258   3.549   5.679  15.900  0.5484  0.4879  0.1495
17923TIP3   OH275259   0.450   3.875  14.228  0.5857  0.2244  0.0662
17923TIP3    H175260   0.374   3.873  14.286  0.6278  1.3811  0.1717
17923TIP3    H275261   0.486   3.963  14.238  0.1625  0.7039 -2.2767
17924TIP3   OH275262   6.715   3.920  16.841 -0.7865 -0.5817 -0.1837
17924TIP3    H175263   6.693   3.884  16.754 -0.7222  2.7388 -1.6411
17924TIP3    H275264   6.632   3.919  16.888 -1.5366  0.6097 -1.4443
17925TIP3   OH275265   2.733   3.591   4.227 -0.4071  1.1051 -0.0007
17925TIP3    H175266   2.749   3.507   4.184 -1.4138 -0.2910  2.3042
17925TIP3    H275267   2.821   3.626   4.243  0.0042  1.6004 -2.9765
17926TIP3   OH275268   1.310   6.784  13.111 -0.2070 -0.6797 -0.3392
17926TIP3    H175269   1.219   6.798  13.134 -0.3763  0.6337 -1.7335
17926TIP3    H275270   1.359   6.838  13.173 -0.5569  1.2593 -1.7213
17927TIP3   OH275271   1.718   0.490   0.561 -0.1832 -0.2501  0.1670
17927TIP3    H175272   1.656   0.544   0.610 -0.7807 -0.5795 -0.2194
17927TIP3    H275273   1.804   0.523   0.586 -0.4779 -0.4138  1.4415
17928TIP3   OH275274   3.801   3.632   3.952 -0.5143  0.1072 -0.4135
17928TIP3    H175275   3.805   3.727   3.946  0.6244  0.2074  1.5830
17928TIP3    H275276   3.740   3.615   4.023  0.3598 -0.6323  0.1676
17929TIP3   OH275277   3.756   6.414   0.494 -0.4188  0.5173 -0.0621
17929TIP3    H175278   3.806   6.485   0.453  0.0126  0.6383  0.6633
17929TIP3    H275279   3.673   6.413   0.447  0.4567 -0.0228 -1.6097
17930TIP3   OH275280   3.357   0.644   5.317 -0.3141  0.2826  0.6688
17930TIP3    H175281   3.327   0.629   5.406  1.0739 -1.1298  0.9223
17930TIP3    H275282   3.281   0.679   5.271 -1.5723 -0.7341  1.9404
17931TIP3   OH275283   1.937   1.077   5.940 -0.2048  0.0821  0.4551
17931TIP3    H175284   2.014   1.119   5.978  1.0715 -0.7448 -1.1645
17931TIP3    H275285   1.937   0.989   5.978 -0.1267 -0.0472  0.1537
17932TIP3   OH275286   4.456   0.524   1.928 -0.2197  0.3214 -0.1274
17932TIP3    H175287   4.511   0.564   1.995 -0.1332  1.1886 -0.7044
17932TIP3    H275288   4.501   0.442   1.906 -0.0902  0.1782  0.6409
17933TIP3   OH275289   6.775   0.842   6.037  0.3012 -1.1234 -0.3687
17933TIP3    H175290   6.739   0.765   6.081  0.6893 -0.2114  1.6230
17933TIP3    H275291   6.712   0.912   6.056  0.8338 -0.5542 -0.6628
17934TIP3   OH275292   2.549   0.054  16.618 -0.5931 -0.3272 -0.5649
17934TIP3    H175293   2.458   0.083  16.617 -0.7457 -0.7325  0.6099
17934TIP3    H275294   2.573   0.052  16.711  0.9804  0.8711 -0.9266
17935TIP3   OH275295   5.847   0.274  11.865 -0.2592 -0.0084 -0.0808
17935TIP3    H175296   5.755   0.247  11.862 -0.7573  1.3195  2.3430
17935TIP3    H275297   5.894   0.194  11.890 -0.9299 -0.2752  0.3346
17936TIP3   OH275298   2.595   1.324  11.776 -0.7883  0.2833  0.1144
17936TIP3    H175299   2.637   1.385  11.716 -0.3753 -0.9609 -0.8998
17936TIP3    H275300   2.665   1.265  11.804 -1.2447  0.0652  0.8150
17937TIP3   OH275301   5.520   3.533   2.721 -0.1999 -0.4642 -0.1801
17937TIP3    H175302   5.525   3.619   2.678  0.2571 -0.4826 -0.1656
17937TIP3    H275303   5.591   3.483   2.682  0.3604 -0.4118  0.7705
17938TIP3   OH275304   3.923   3.834  14.482  0.5468  0.1683 -0.1792
17938TIP3    H175305   3.968   3.889  14.417  0.8384  0.0345 -0.0885
17938TIP3    H275306   3.950   3.870  14.566  0.5304  0.0505 -0.1246
17939TIP3   OH275307   0.218   4.843   0.632 -0.5566  0.0620 -0.1237
17939TIP3    H175308   0.131   4.806   0.616 -0.7351  0.0734  0.7705
17939TIP3    H275309   0.259   4.781   0.693  0.2113 -0.1521 -0.8607
17940TIP3   OH275310   6.006   3.504  13.954  0.2580  0.3589 -0.7965
17940TIP3    H175311   6.066   3.448  13.905  0.9681  0.5901 -0.2035
17940TIP3    H275312   5.927   3.508  13.901  0.2802 -1.0404 -0.9444
17941TIP3   OH275313   3.163   2.409   3.854 -0.5009  0.1185  0.0626
17941TIP3    H175314   3.125   2.332   3.811  1.1196  0.4286 -2.0452
17941TIP3    H275315   3.134   2.483   3.801 -1.9117  0.9590  1.9826
17942TIP3   OH275316   6.271   2.735  14.738  0.3381  0.0501  0.3150
17942TIP3    H175317   6.297   2.803  14.675 -3.6134  1.5211  0.1397
17942TIP3    H275318   6.266   2.655  14.686  0.5193  0.5525 -0.4887
17943TIP3   OH275319   4.695   5.564   3.322 -0.1750 -0.2645 -0.0750
17943TIP3    H175320   4.613   5.589   3.280  1.9268 -0.4254 -4.6712
17943TIP3    H275321   4.747   5.645   3.323  0.1959 -0.5170  1.3000
17944TIP3   OH275322   2.539   4.458   1.029 -0.4039 -0.2623  0.8670
17944TIP3    H175323   2.590   4.444   1.109  3.8356  2.6369 -1.1150
17944TIP3    H275324   2.509   4.549   1.036 -0.1068 -0.0335 -0.7857
17945TIP3   OH275325   3.787   1.308  11.687 -0.8457 -0.3219  0.3354
17945TIP3    H175326   3.838   1.386  11.709 -0.2928 -0.3561 -0.7965
17945TIP3    H275327   3.790   1.254  11.767 -0.6665  0.5083  0.8890
17946TIP3   OH275328   4.627   5.232   6.325 -0.0028 -0.4778  0.0727
17946TIP3    H175329   4.535   5.235   6.352  0.3166 -1.6183  1.3505
17946TIP3    H275330   4.663   5.156   6.371  1.9197  0.7721  0.6928
17947TIP3   OH275331   2.552   4.958   2.498  0.5644  0.4545  0.0647
17947TIP3    H175332   2.492   4.953   2.572 -0.3386 -0.8341 -0.7337
17947TIP3    H275333   2.521   5.032   2.446 -0.2271 -0.0873 -0.2419
17948TIP3   OH275334   1.749   6.668   1.289  0.0590 -0.4793  0.6974
17948TIP3    H175335   1.824   6.727   1.290 -0.3434  0.0477  0.2396
17948TIP3    H275336   1.786   6.581   1.274  0.4043  0.0248 -1.4485
17949TIP3   OH275337   0.669   5.875   5.144 -0.0940  0.1938 -0.4605
17949TIP3    H175338   0.578   5.899   5.163  0.0678  0.0163  0.5839
17949TIP3    H275339   0.718   5.956   5.158  0.0642 -0.0078  0.1692
17950TIP3   OH275340   4.354   3.548   0.052 -0.9391  0.2898  0.1858
17950TIP3    H175341   4.324   3.610  -0.013  1.0565  0.3888 -0.6652
17950TIP3    H275342   4.389   3.602   0.123  0.4111  0.1579 -0.3687
17951TIP3   OH275343   0.478   3.939   4.739  0.0106  0.0307  0.2725
17951TIP3    H175344   0.572   3.950   4.753 -0.1107 -0.1917  1.2921
17951TIP3    H275345   0.442   4.028   4.748  0.2304  0.2820 -1.1075
17952TIP3   OH275346   5.294   2.906  15.135  0.2512  0.5694  0.0469
17952TIP3    H175347   5.244   2.826  15.145  0.6361  0.2655 -0.4933
17952TIP3    H275348   5.376   2.879  15.093  0.1827  1.3124 -0.5672
17953TIP3   OH275349   0.995   3.236  17.036 -0.2848  0.3555 -0.2936
17953TIP3    H175350   1.080   3.271  17.010 -0.9760  1.8608 -0.6130
17953TIP3    H275351   0.977   3.276  17.121 -0.6785  0.0589 -0.2357
17954TIP3   OH275352   6.148   0.128  11.135  0.0395  0.2548  0.0363
17954TIP3    H175353   6.163   0.142  11.042 -0.3090 -0.8796 -0.2034
17954TIP3    H275354   6.061   0.089  11.140  0.2999 -0.2552  0.7775
17955TIP3   OH275355   3.079   6.416  14.451  0.7498 -0.2119  0.0977
17955TIP3    H175356   3.166   6.439  14.418  0.0333 -0.9172 -2.4079
17955TIP3    H275357   3.026   6.495  14.437  1.0576  0.3686  2.0323
17956TIP3   OH275358   0.110   2.649   3.797  0.0092 -0.4383 -0.0498
17956TIP3    H175359   0.119   2.661   3.702 -0.2436  0.9164  0.0955
17956TIP3    H275360   0.127   2.735   3.834 -1.6830 -0.5360  1.0183
17957TIP3   OH275361   1.738   0.383   1.440 -0.0604  0.3187  0.6206
17957TIP3    H175362   1.748   0.378   1.535  1.6765 -0.5465  0.4074
17957TIP3    H275363   1.669   0.319   1.420  1.8513 -1.9035  0.9721
17958TIP3   OH275364   5.016   5.593   3.892  0.4011 -0.2681  0.0049
17958TIP3    H175365   5.079   5.536   3.937  0.3651  0.1865  0.6202
17958TIP3    H275366   5.062   5.620   3.812  1.4380  1.0267  1.0371
17959TIP3   OH275367   1.931   3.993  16.983 -0.0309  0.3096  0.0326
17959TIP3    H175368   1.928   3.918  16.924 -1.6262  1.7567 -1.7684
17959TIP3    H275369   2.024   4.004  17.002  0.1734 -2.6203  1.0321
17960TIP3   OH275370   6.179   1.772   4.212  0.1589  0.0603  0.9112
17960TIP3    H175371   6.163   1.824   4.134  0.9109  3.0069  2.6394
17960TIP3    H275372   6.108   1.794   4.272  0.7723 -0.5047  1.8699
17961TIP3   OH275373   0.171   2.007  17.024 -0.0476 -0.0243 -0.2853
17961TIP3    H175374   0.165   2.100  17.046 -1.4104 -0.5594  1.6386
17961TIP3    H275375   0.265   1.991  17.013  0.1235  1.8021 -1.7109
17962TIP3   OH275376   0.192   1.004   5.949 -0.2596 -0.1038  0.0902
17962TIP3    H175377   0.123   1.017   6.014  0.4384 -1.3311  1.0796
17962TIP3    H275378   0.173   0.919   5.910  0.1238  0.0074 -0.3467
17963TIP3   OH275379   5.360   3.168   5.223 -0.0892  0.3601  0.0401
17963TIP3    H175380   5.357   3.104   5.294  1.8129 -0.7577 -0.8351
17963TIP3    H275381   5.269   3.180   5.198 -0.7208  0.1922  2.1434
17964TIP3   OH275382   0.676   3.491   2.873 -0.5034 -0.1085  0.3844
17964TIP3    H175383   0.666   3.416   2.815  2.2120  0.4489 -0.9133
17964TIP3    H275384   0.623   3.471   2.949 -1.1313 -2.5822 -0.6748
17965TIP3   OH275385   1.947   2.236   1.812 -0.4783 -0.1130 -0.0484
17965TIP3    H175386   2.039   2.246   1.787 -0.5044 -1.0865 -0.5467
17965TIP3    H275387   1.946   2.251   1.906  0.0587  0.7529 -0.1737
17966TIP3   OH275388   1.271   6.105  14.126  0.0189 -0.2078 -0.3856
17966TIP3    H175389   1.227   6.142  14.049 -0.1629  0.0437 -0.1611
17966TIP3    H275390   1.293   6.181  14.180 -4.0721 -0.6638  2.0883
17967TIP3   OH275391   5.600   0.619   0.922  0.1837 -0.3546  0.0114
17967TIP3    H175392   5.629   0.529   0.937 -0.4793 -0.9620 -2.1734
17967TIP3    H275393   5.504   0.614   0.924  0.1084 -0.1307 -2.3761
17968TIP3   OH275394   2.115   0.742   3.732  0.1270 -0.7535 -0.1089
17968TIP3    H175395   2.071   0.795   3.798 -0.1630 -0.2562 -0.6918
17968TIP3    H275396   2.141   0.662   3.778 -1.6982 -1.2161  0.1721
17969TIP3   OH275397   2.363   4.736   5.622 -0.8717 -0.5001 -0.8194
17969TIP3    H175398   2.289   4.716   5.679 -0.7929 -0.9013 -0.8533
17969TIP3    H275399   2.390   4.824   5.647  1.3824 -1.9736  2.2197
17970TIP3   OH275400   5.225   3.743   2.548  0.5843 -0.7968 -0.5680
17970TIP3    H175401   5.227   3.714   2.639  1.3723  1.3865  0.1425
17970TIP3    H275402   5.315   3.733   2.517  1.0530  1.5292 -0.0654
17971TIP3   OH275403   4.147   2.902   0.355 -0.3364 -0.2107 -0.4133
17971TIP3    H175404   4.103   2.919   0.272  0.4679 -1.6638 -1.1649
17971TIP3    H275405   4.135   2.808   0.369  0.1163 -0.0996  0.7909
17972TIP3   OH275406   0.802   2.216  14.113 -0.1263  1.3451  0.2161
17972TIP3    H175407   0.842   2.191  14.029 -1.4721  0.9526 -0.3095
17972TIP3    H275408   0.877   2.223  14.173  0.7983  1.1231 -0.8817
17973TIP3   OH275409   1.189   4.070  12.957 -0.1202 -0.3019  0.0773
17973TIP3    H175410   1.280   4.081  12.985 -0.3524 -0.5005  0.8926
17973TIP3    H275411   1.153   4.159  12.957 -0.4975 -0.4466  1.6743
17974TIP3   OH275412   3.047   3.031  12.731  0.1630  0.1147  0.8626
17974TIP3    H175413   3.080   2.942  12.724 -0.7325 -0.1535 -0.0319
17974TIP3    H275414   3.011   3.037  12.820 -2.2777 -1.3063  0.0235
17975TIP3   OH275415   5.960   3.785   5.026 -0.7115 -0.1631  0.3768
17975TIP3    H175416   5.914   3.724   4.968 -0.9182 -2.1131  2.5185
17975TIP3    H275417   6.051   3.781   4.997 -0.6687 -1.7604  0.6582
17976TIP3   OH275418   3.739   5.675  15.433 -0.2440  0.5159 -0.3407
17976TIP3    H175419   3.709   5.677  15.524 -1.1242  0.7725 -0.6228
17976TIP3    H275420   3.834   5.674  15.439 -0.2977  0.1692  0.5890
17977TIP3   OH275421   2.002   5.652   4.661  0.2343  0.2310  0.2517
17977TIP3    H175422   1.907   5.653   4.651  0.0066  0.8644  2.2378
17977TIP3    H275423   2.032   5.727   4.609 -0.0043 -1.8630 -3.0601
17978TIP3   OH275424   1.916   0.562  11.317 -0.3149  0.4716  0.6662
17978TIP3    H175425   1.864   0.536  11.241  1.6884  1.6810 -1.1754
17978TIP3    H275426   1.893   0.653  11.332 -0.0040  0.5129  0.9064
17979TIP3   OH275427   4.137   1.267  14.629 -0.2006  0.2320  0.0911
17979TIP3    H175428   4.212   1.275  14.688 -0.1834 -0.5371  0.1779
17979TIP3    H275429   4.167   1.305  14.547  0.3729 -0.3014  0.0505
17980TIP3   OH275430   3.053   3.757  16.064 -0.3021  0.4603  0.2902
17980TIP3    H175431   3.037   3.770  16.157  1.6275  0.0328  0.7173
17980TIP3    H275432   3.047   3.662  16.052  0.1837  0.4482  0.1348
17981TIP3   OH275433   4.122   1.763  11.151  0.2654  0.0612 -0.3637
17981TIP3    H175434   4.069   1.742  11.074  1.3819 -0.7443 -0.9333
17981TIP3    H275435   4.155   1.678  11.181  1.8617  0.6111 -0.4998
17982TIP3   OH275436   1.405   0.677   6.286  0.4810 -0.2567  0.4137
17982TIP3    H175437   1.457   0.685   6.207 -0.3379 -1.2977 -0.2531
17982TIP3    H275438   1.316   0.700   6.259  0.6471  1.9501  1.6407
17983TIP3   OH275439   6.114   5.778   4.733 -0.0045 -0.1470  0.1739
17983TIP3    H175440   6.070   5.785   4.818  2.0817 -2.7219  1.5560
17983TIP3    H275441   6.060   5.718   4.683 -1.4875  1.7298 -0.5255
17984TIP3   OH275442   3.498   1.127  16.508  0.3950  0.2192 -0.0200
17984TIP3    H175443   3.475   1.216  16.533  0.4686  0.2515 -0.0663
17984TIP3    H275444   3.582   1.136  16.462  0.4372  0.1184  0.0381
17985TIP3   OH275445   3.637   6.295   0.733 -0.0664 -0.3039  0.1566
17985TIP3    H175446   3.670   6.263   0.649  0.3597  0.3364  0.0740
17985TIP3    H275447   3.666   6.386   0.736  0.8350 -0.6261  1.4731
17986TIP3   OH275448   3.339   4.912   3.439  0.8358 -0.0417 -0.0666
17986TIP3    H175449   3.369   4.988   3.488  1.5028  1.2875 -2.4489
17986TIP3    H275450   3.417   4.860   3.425  1.0515  0.6491 -1.5115
17987TIP3   OH275451   2.385   0.256  11.274  0.0677 -0.5206 -0.1348
17987TIP3    H175452   2.469   0.226  11.309 -1.2762 -2.5133  1.5542
17987TIP3    H275453   2.357   0.186  11.215 -1.3398 -0.8865  0.9236
17988TIP3   OH275454   1.367   1.335   2.928  0.3550  0.0212 -0.3856
17988TIP3    H175455   1.293   1.389   2.957 -1.8586 -2.2254 -1.7256
17988TIP3    H275456   1.394   1.374   2.845  0.0566  0.2787 -0.3635
17989TIP3   OH275457   4.654   0.024   5.767  0.1670 -0.0438  0.4385
17989TIP3    H175458   4.566  -0.007   5.789 -0.2077  0.2059 -0.6876
17989TIP3    H275459   4.701  -0.055   5.741 -1.0113  0.3796 -3.1659
17990TIP3   OH275460   5.754   2.656   2.559  0.0703  0.3514  0.0137
17990TIP3    H175461   5.675   2.708   2.573 -1.3470 -1.2989 -1.6044
17990TIP3    H275462   5.759   2.599   2.636 -1.2426 -0.6968 -0.6733
17991TIP3   OH275463   2.812   1.189   2.110 -0.1322 -0.3776 -0.0836
17991TIP3    H175464   2.808   1.101   2.146 -0.9878  0.0601  0.9300
17991TIP3    H275465   2.772   1.244   2.178 -2.1620  0.4131 -1.8709
17992TIP3   OH275466   1.570   5.166  16.974 -0.2488 -0.1939  0.1367
17992TIP3    H175467   1.564   5.220  17.053 -0.9727 -0.0573 -0.0125
17992TIP3    H275468   1.663   5.142  16.969 -0.2736 -0.6025  1.2974
17993TIP3   OH275469   5.836   2.462   5.149 -0.4429 -0.8252 -0.5063
17993TIP3    H175470   5.771   2.516   5.103 -1.6894 -0.8622  1.1507
17993TIP3    H275471   5.818   2.373   5.119 -1.0406 -0.8072 -0.2212
17994TIP3   OH275472   5.558   4.372   1.140  0.5967  0.3002  1.2696
17994TIP3    H175473   5.634   4.355   1.085  0.3735 -0.7473  1.2652
17994TIP3    H275474   5.493   4.307   1.112 -0.6787  1.8405  0.5661
17995TIP3   OH275475   5.882   6.304  13.412  0.5677  0.2458  0.0937
17995TIP3    H175476   5.903   6.211  13.423  1.1788  0.5320  1.4127
17995TIP3    H275477   5.967   6.347  13.403  0.3543  0.8523  0.9396
17996TIP3   OH275478   6.549   5.092  12.365  0.1325  0.5926 -0.8574
17996TIP3    H175479   6.473   5.045  12.400 -0.7001  1.1635 -1.8731
17996TIP3    H275480   6.623   5.056  12.414 -1.0568  1.8820  2.0019
17997TIP3   OH275481   2.855   1.166   1.127  0.0190  0.2387  0.5564
17997TIP3    H175482   2.898   1.105   1.187  0.2236 -1.4860 -1.2904
17997TIP3    H275483   2.872   1.130   1.040 -2.0321  1.5550 -0.4194
17998TIP3   OH275484   2.752   0.791   1.013 -0.3652 -0.2446  0.0176
17998TIP3    H175485   2.697   0.716   0.991 -1.3891  0.2397  0.8966
17998TIP3    H275486   2.756   0.842   0.932 -1.3291 -0.2150 -0.0245
17999TIP3   OH275487   6.472   2.112   3.018  0.0811 -0.1735  0.1440
17999TIP3    H175488   6.480   2.017   3.006  0.1268 -0.2292  0.6030
17999TIP3    H275489   6.404   2.122   3.084  1.1665  0.0508  1.2574
18000TIP3   OH275490   3.060   3.697  12.531 -0.4239  0.5372 -0.6739
18000TIP3    H175491   3.007   3.775  12.544  0.1996  1.0268 -1.0316
18000TIP3    H275492   3.044   3.644  12.609 -1.2951  0.7561 -0.6947
18001TIP3   OH275493   1.242   5.842  13.630 -0.2774  0.4770 -0.5041
18001TIP3    H175494   1.244   5.919  13.574 -1.1961  0.3973 -0.6547
18001TIP3    H275495   1.151   5.811  13.625 -1.1382  2.0911  3.2492
18002TIP3   OH275496   3.206   2.894   5.099  0.1910 -0.2376  0.2046
18002TIP3    H175497   3.211   2.817   5.155 -2.7502 -1.7360 -1.4894
18002TIP3    H275498   3.259   2.872   5.022 -0.0448 -0.2795  0.0532
18003TIP3   OH275499   6.517   0.084  15.798  0.4339 -0.5408  0.1160
18003TIP3    H175500   6.512   0.174  15.766 -1.1748 -0.4760  0.4918
18003TIP3    H275501   6.458   0.083  15.874  2.1848 -1.3308  1.5215
18004TIP3   OH275502   0.753   0.718  10.915  0.5207  0.5570 -0.4253
18004TIP3    H175503   0.672   0.768  10.920 -0.0568 -0.2948 -1.3001
18004TIP3    H275504   0.818   0.776  10.955 -0.8353  0.5499  1.8802
18005TIP3   OH275505   0.718   0.718  15.742 -0.2900  0.2358  0.2529
18005TIP3    H175506   0.809   0.749  15.749  0.1957 -0.6533 -1.6765
18005TIP3    H275507   0.714   0.678  15.655 -2.4406 -0.0677  0.4806
18006TIP3   OH275508   0.206   4.993  13.448 -0.3731  0.0017  0.1450
18006TIP3    H175509   0.136   4.949  13.494 -0.2293 -1.8626 -1.3720
18006TIP3    H275510   0.261   5.030  13.517 -2.3579  0.7643  1.3535
18007TIP3   OH275511   6.269   1.896  15.948 -0.5139  0.1537  0.5574
18007TIP3    H175512   6.296   1.805  15.958  0.1252  0.3433  0.6265
18007TIP3    H275513   6.202   1.910  16.014 -0.5821 -0.2578  0.5727
18008TIP3   OH275514   6.460   5.014  13.420 -0.1539 -0.6080  0.1999
18008TIP3    H175515   6.495   4.934  13.381  0.3404 -0.0306 -0.5504
18008TIP3    H275516   6.520   5.083  13.392 -0.6032  0.0347  0.8000
18009TIP3   OH275517   3.266   1.145  15.733 -0.0973  0.1850  0.0120
18009TIP3    H175518   3.266   1.112  15.643  0.8672  2.4583 -0.8469
18009TIP3    H275519   3.243   1.068  15.786 -0.2614 -1.2890 -2.1157
18010TIP3   OH275520   2.672   0.126  11.918 -0.1329  0.2877  0.2104
18010TIP3    H175521   2.710   0.040  11.902  0.7380  0.4731  1.2334
18010TIP3    H275522   2.632   0.119  12.005  1.6814  1.4969  1.1719
18011TIP3   OH275523   6.802   3.518   4.149 -0.0487 -0.1408 -0.0901
18011TIP3    H175524   6.893   3.490   4.151 -0.2535 -0.7754  2.0149
18011TIP3    H275525   6.752   3.437   4.134 -0.3365 -0.0491  0.3452
18012TIP3   OH275526   3.956   5.807   0.077 -0.2473  0.5595  1.1139
18012TIP3    H175527   3.916   5.730   0.035 -0.0318  0.4633  1.0844
18012TIP3    H275528   3.902   5.880   0.047  1.8426  0.9303 -2.0266
18013TIP3   OH275529   4.670   0.250  13.726 -0.2839  0.1707  0.0389
18013TIP3    H175530   4.629   0.246  13.812  0.0176  2.1430  0.2937
18013TIP3    H275531   4.659   0.162  13.690  1.6125 -1.3531  3.0003
18014TIP3   OH275532   6.720   6.039  16.715 -0.0329  0.0461 -0.5164
18014TIP3    H175533   6.656   6.107  16.736 -0.2904 -0.3233 -0.1061
18014TIP3    H275534   6.794   6.087  16.678  0.1773  0.6540  0.6525
18015TIP3   OH275535   6.674   4.157  16.035 -0.7245 -0.0686 -0.3471
18015TIP3    H175536   6.661   4.070  15.999  0.1262  0.1038 -1.0786
18015TIP3    H275537   6.611   4.212  15.989 -0.3781 -0.0571 -0.8157
18016TIP3   OH275538   5.145   3.759   5.056 -0.4146  0.4548  0.1758
18016TIP3    H175539   5.179   3.689   5.110  0.7120  1.8689  1.3441
18016TIP3    H275540   5.061   3.783   5.097 -0.4469  0.2882  0.2051
18017TIP3   OH275541   2.615   0.439  16.262 -0.1932 -0.1210 -0.5146
18017TIP3    H175542   2.673   0.380  16.214 -2.8187 -1.0194 -2.7125
18017TIP3    H275543   2.653   0.526  16.247  2.7986 -1.0283  1.4406
18018TIP3   OH275544   1.440   4.028   0.535  0.7910  0.2119 -0.5072
18018TIP3    H175545   1.354   3.985   0.534 -0.4000  2.4827 -0.2438
18018TIP3    H275546   1.497   3.967   0.583 -0.7164 -1.2535 -0.5331
18019TIP3   OH275547   3.970   2.126  17.098  0.1910 -0.6172 -0.3355
18019TIP3    H175548   3.924   2.127  17.015 -2.0812 -3.1220  0.8128
18019TIP3    H275549   3.901   2.114  17.164  2.2019 -1.9177  1.6335
18020TIP3   OH275550   4.357   1.419   1.282  0.0667 -0.5229  0.5180
18020TIP3    H175551   4.373   1.413   1.188 -1.6004  2.3529 -0.0337
18020TIP3    H275552   4.262   1.430   1.289  0.4714  2.5699  2.2647
18021TIP3   OH275553   4.791   4.139  15.273  0.0373  0.7682  0.1941
18021TIP3    H175554   4.818   4.067  15.330  1.5756 -0.5702 -2.1516
18021TIP3    H275555   4.699   4.122  15.254  0.0677  0.1092  0.6371
18022TIP3   OH275556   0.787   4.458   3.939 -0.9652  0.0974  0.2463
18022TIP3    H175557   0.880   4.441   3.954 -0.9168 -0.8455 -0.9618
18022TIP3    H275558   0.782   4.478   3.845 -2.0441 -0.4339  0.1838
18023TIP3   OH275559   6.163   6.804   4.163 -0.5671 -0.5347 -0.2484
18023TIP3    H175560   6.258   6.812   4.169 -0.3362 -2.8356 -0.5695
18023TIP3    H275561   6.138   6.756   4.242 -1.4992  0.3091 -0.0232
18024TIP3   OH275562   0.547   2.791  15.795  0.4388  0.2591 -0.7883
18024TIP3    H175563   0.521   2.858  15.732  2.9243  0.2393 -1.8975
18024TIP3    H275564   0.638   2.812  15.816  0.8036 -1.9264 -0.0519
18025TIP3   OH275565   0.304   6.292   5.628 -0.2502  0.2897  0.3717
18025TIP3    H175566   0.249   6.247   5.691 -0.0527  0.9523  1.0224
18025TIP3    H275567   0.275   6.384   5.632 -0.1010  0.3740 -0.3507
18026TIP3   OH275568   1.696   4.797  14.882 -0.2125 -0.4071 -0.2327
18026TIP3    H175569   1.623   4.736  14.873 -0.8808  0.7101 -2.9098
18026TIP3    H275570   1.773   4.745  14.856 -0.2874 -1.0588  0.8133
18027TIP3   OH275571   3.368   2.765  15.554 -0.6173 -0.0049 -0.1043
18027TIP3    H175572   3.364   2.672  15.532 -0.9514  0.4395 -1.9976
18027TIP3    H275573   3.279   2.797  15.540 -0.5976  0.5099  0.9416
18028TIP3   OH275574   2.859   0.794  13.917  0.3029  0.5842  0.5862
18028TIP3    H175575   2.885   0.866  13.858 -2.5815  1.0871 -0.1870
18028TIP3    H275576   2.806   0.837  13.984 -1.0635 -0.7519  0.3764
18029TIP3   OH275577   1.757   5.969  16.630 -0.1523 -0.2429 -0.0683
18029TIP3    H175578   1.727   5.954  16.719 -1.3807 -0.4442 -0.4988
18029TIP3    H275579   1.777   5.881  16.596  1.8694 -0.0322  0.5271
18030TIP3   OH275580   6.236   2.117  17.022 -0.0006  0.0900  0.1361
18030TIP3    H175581   6.171   2.162  17.076  0.0795  0.0827  0.2397
18030TIP3    H275582   6.202   2.125  16.932 -1.6112 -2.4035  0.4832
18031TIP3   OH275583   5.565   1.662  14.697  0.6139 -1.0005 -0.4670
18031TIP3    H175584   5.493   1.676  14.757 -0.2894  0.4749 -1.8575
18031TIP3    H275585   5.567   1.567  14.683 -0.4008 -1.1426  0.3679
18032TIP3   OH275586   4.930   5.235  13.134 -0.4365  0.3962 -1.0695
18032TIP3    H175587   4.921   5.330  13.139  1.2909  0.6042 -1.4996
18032TIP3    H275588   4.946   5.216  13.042  1.7510 -0.0229 -0.6523
18033TIP3   OH275589   3.818   6.302  17.134  0.6488 -0.2420 -0.1009
18033TIP3    H175590   3.788   6.226  17.183 -0.8150 -0.2463 -0.9766
18033TIP3    H275591   3.902   6.325  17.174  0.0427 -0.9597  1.6182
18034TIP3   OH275592   2.097   2.790  14.611  0.1330 -0.3455  0.1556
18034TIP3    H175593   2.108   2.730  14.685  0.8102 -0.7030 -0.2311
18034TIP3    H275594   2.120   2.876  14.646  1.0675 -0.6097  0.1842
18035TIP3   OH275595   1.301   6.785  11.363  0.2412 -0.3776  0.1693
18035TIP3    H175596   1.380   6.840  11.368  0.7659 -1.0592 -0.5548
18035TIP3    H275597   1.328   6.701  11.399 -0.9088  0.1924  2.4504
18036TIP3   OH275598   4.653   0.497  11.443  0.2986 -0.5042  0.1277
18036TIP3    H175599   4.687   0.436  11.377  1.7301 -0.8228  1.1477
18036TIP3    H275600   4.611   0.440  11.508  1.6260 -0.4125  1.0736
18037TIP3   OH275601   2.043   6.720  16.164 -0.1214 -0.1395 -0.5601
18037TIP3    H175602   1.976   6.683  16.106 -0.5040 -1.4000  0.6482
18037TIP3    H275603   1.995   6.742  16.244  0.5253  0.9277 -0.4684
18038TIP3   OH275604   1.429   6.804  16.756 -0.3544  0.3045  0.3186
18038TIP3    H175605   1.502   6.761  16.801 -0.9361 -1.2941 -0.2241
18038TIP3    H275606   1.440   6.897  16.775  1.4272  0.0081  0.8098
18039TIP3   OH275607   3.495   0.971  12.779 -0.3574 -0.3257 -0.3567
18039TIP3    H175608   3.527   0.899  12.726  0.4286 -0.7681  0.6999
18039TIP3    H275609   3.400   0.961  12.780 -0.2525 -1.3265 -0.2413
18040TIP3   OH275610   1.323   2.828  13.890  0.0090 -0.0168 -0.0284
18040TIP3    H175611   1.272   2.898  13.849 -0.5107 -0.3741  0.0030
18040TIP3    H275612   1.298   2.749  13.842  1.9858  0.0998 -1.2943
18041TIP3   OH275613   1.933   1.196  11.249 -0.2841  0.5536  0.3316
18041TIP3    H175614   1.867   1.230  11.309 -1.2393  0.3208 -0.5487
18041TIP3    H275615   1.883   1.178  11.169  0.8661  0.3903 -0.3470
18042TIP3   OH275616   5.344   6.162  16.918  0.3588  0.4223  0.6233
18042TIP3    H175617   5.279   6.185  16.985 -0.5630  0.9853 -0.4551
18042TIP3    H275618   5.425   6.204  16.949 -0.4824  2.1834  0.4854
18043TIP3   OH275619   3.758   6.046   5.823  0.1083  0.1548  0.3691
18043TIP3    H175620   3.781   6.139   5.834  1.5990 -0.1878  0.2136
18043TIP3    H275621   3.669   6.048   5.790  0.4143  1.5682 -0.4315
18044TIP3   OH275622   2.405   4.621  12.036  0.4667 -0.0902 -0.1900
18044TIP3    H175623   2.481   4.608  12.093  0.0877  1.6057  0.7459
18044TIP3    H275624   2.406   4.546  11.977  2.4599 -0.4514  0.2692
18045TIP3   OH275625   0.913   3.703   5.160  0.4154 -0.1153  0.1274
18045TIP3    H175626   0.993   3.724   5.111  0.2869  0.8235  0.3071
18045TIP3    H275627   0.920   3.754   5.240 -0.9629  0.9790 -0.4217
18046TIP3   OH275628   5.003   3.722   5.308  0.6683  0.7898 -0.0736
18046TIP3    H175629   4.910   3.702   5.318  0.8110 -0.4935 -1.0429
18046TIP3    H275630   5.012   3.813   5.336 -0.5628  0.3737  1.7322
18047TIP3   OH275631   2.299   5.862  16.978  0.5931 -0.0420 -0.2517
18047TIP3    H175632   2.360   5.934  16.962  0.9393 -0.3651 -0.3876
18047TIP3    H275633   2.302   5.848  17.072 -0.4322  0.9705 -0.0651
18048TIP3   OH275634   0.744   0.219  15.104  0.1421  0.4578 -0.0917
18048TIP3    H175635   0.681   0.152  15.078  1.2548 -1.7199  2.6875
18048TIP3    H275636   0.791   0.240  15.023 -2.9587  0.9080 -1.8387
18049TIP3   OH275637   4.272   3.988  16.238 -0.0176  0.0972 -0.3467
18049TIP3    H175638   4.343   3.927  16.257  0.4885  1.2172  1.4636
18049TIP3    H275639   4.231   3.953  16.159  1.3049 -1.6489 -0.2883
18050TIP3   OH275640   2.044   6.129  12.947  0.3239  0.9619 -0.5496
18050TIP3    H175641   2.100   6.197  12.911  1.5248  0.4452  0.3017
18050TIP3    H275642   2.007   6.168  13.027  1.7503  0.3288  0.4561
18051TIP3   OH275643   0.529   1.376   5.503  0.5504  1.1923  0.0873
18051TIP3    H175644   0.564   1.322   5.433 -2.7659 -1.7037  0.4950
18051TIP3    H275645   0.476   1.442   5.459 -1.5492 -0.6399 -0.2509
18052TIP3   OH275646   3.390   0.331   3.484  0.0964  0.5858 -0.1718
18052TIP3    H175647   3.341   0.304   3.562  2.2673 -2.1472  0.3215
18052TIP3    H275648   3.361   0.269   3.416 -0.7304  2.0630 -1.1890
18053TIP3   OH275649   2.255   1.050   5.681 -0.1866  0.1893 -0.0119
18053TIP3    H175650   2.262   0.980   5.616 -1.2164 -1.6559  1.8029
18053TIP3    H275651   2.164   1.079   5.674 -0.3490 -0.1275  0.6826
18054TIP3   OH275652   5.917   6.510  17.122 -0.6190 -0.0749  0.2826
18054TIP3    H175653   5.954   6.422  17.128 -1.6940 -0.6772 -1.3876
18054TIP3    H275654   5.966   6.551  17.050 -1.7740 -0.1754 -0.5756
18055TIP3   OH275655   6.464   2.895   5.046  0.7281  0.2778 -0.1436
18055TIP3    H175656   6.371   2.906   5.068  0.7012 -0.4488  0.1393
18055TIP3    H275657   6.482   2.963   4.981 -0.2280 -0.1448 -0.8661
18056TIP3   OH275658   2.410   3.679   1.418 -0.1047 -0.1778  0.7201
18056TIP3    H175659   2.351   3.604   1.417 -0.0739 -0.2010  0.6655
18056TIP3    H275660   2.383   3.733   1.344 -0.3870  0.0670  0.9980
18057TIP3   OH275661   3.827   3.781   6.381 -0.0735  0.6402  0.0035
18057TIP3    H175662   3.896   3.841   6.352  0.2603  0.0762 -0.3755
18057TIP3    H275663   3.797   3.739   6.301 -0.3837  0.3744  0.2575
18058TIP3   OH275664   4.552   6.460  16.779  0.0712  0.1921  0.1351
18058TIP3    H175665   4.546   6.547  16.741 -2.0477  0.1911  0.4144
18058TIP3    H275666   4.526   6.472  16.871 -0.4315 -0.7698  0.1256
18059TIP3   OH275667   3.514   2.955   4.048  0.1624 -0.0446  0.4631
18059TIP3    H175668   3.504   2.898   3.972 -1.2527  1.7674 -0.7432
18059TIP3    H275669   3.553   3.035   4.012 -0.6686  0.8872  1.6142
18060TIP3   OH275670   6.473   3.126   4.876  0.1233  0.1375 -0.1839
18060TIP3    H175671   6.521   3.161   4.800 -0.0344  1.3121  0.2479
18060TIP3    H275672   6.381   3.148   4.858  0.3903  2.9593  1.6684
18061TIP3   OH275673   1.723   1.939  12.078 -0.3581 -0.2440  0.0186
18061TIP3    H175674   1.762   1.855  12.100 -0.1232 -0.6159 -1.7898
18061TIP3    H275675   1.710   1.936  11.984 -0.3031  1.7671 -0.0748
18062TIP3   OH275676   5.320   5.806   5.318  0.0614  0.7207 -0.1456
18062TIP3    H175677   5.277   5.871   5.262  0.6746  1.0444 -0.2497
18062TIP3    H275678   5.249   5.765   5.367 -0.4109  0.9286 -0.6478
18063TIP3   OH275679   2.824   5.831  15.308  0.0326 -0.0650  0.0172
18063TIP3    H175680   2.908   5.802  15.343  0.2716  0.6075  0.0124
18063TIP3    H275681   2.765   5.757  15.324  0.1291  0.2224  1.8298
18064TIP3   OH275682   2.539   6.501  15.756  0.4870 -0.5730 -0.0460
18064TIP3    H175683   2.582   6.565  15.700  0.3603 -0.4216  0.0330
18064TIP3    H275684   2.610   6.442  15.782  0.8919  0.4222  1.1271
18065TIP3   OH275685   6.737   1.251   5.154 -0.0418  0.3550  0.2207
18065TIP3    H175686   6.783   1.173   5.121 -1.0926 -0.9354  1.7107
18065TIP3    H275687   6.806   1.302   5.198  0.6819  0.3237 -0.8709
18066TIP3   OH275688   3.773   4.084  11.449 -0.1464 -0.2641  0.3548
18066TIP3    H175689   3.862   4.112  11.428 -0.4153  0.1188 -0.2504
18066TIP3    H275690   3.739   4.048  11.368 -1.0324  0.8475  0.2198
18067TIP3   OH275691   5.610   5.555   1.438  0.2228  0.2024  0.1057
18067TIP3    H175692   5.618   5.626   1.502  0.4324  0.6454 -0.4110
18067TIP3    H275693   5.696   5.550   1.397  0.4976 -0.9894  0.8028
18068TIP3   OH275694   4.702   3.362  13.989 -0.3513 -0.0536  0.4933
18068TIP3    H175695   4.724   3.286  14.043  1.5819  2.4855  3.3953
18068TIP3    H275696   4.767   3.360  13.918  0.5001 -0.3991  1.2712
18069TIP3   OH275697   3.564   2.092  12.514 -0.3143  0.0170  0.1088
18069TIP3    H175698   3.633   2.067  12.575  0.7046 -0.0488 -1.0471
18069TIP3    H275699   3.611   2.122  12.436 -1.5329  3.1919  0.5277
18070TIP3   OH275700   6.292   2.309   4.805 -0.3709 -0.3514  0.0175
18070TIP3    H175701   6.345   2.241   4.848  0.2638  0.6177  0.8003
18070TIP3    H275702   6.210   2.310   4.855 -0.1221 -0.0964  0.4294
18071TIP3   OH275703   3.228   1.128  17.057  0.5077  0.0181  0.6793
18071TIP3    H175704   3.219   1.197  16.991  0.3302  0.5234  1.2242
18071TIP3    H275705   3.210   1.047  17.010 -0.1062  0.4205  0.2187
18072TIP3   OH275706   3.244   2.148   4.545  0.5496 -0.7168  0.5522
18072TIP3    H175707   3.267   2.235   4.578 -1.3836  1.0072 -2.4769
18072TIP3    H275708   3.149   2.142   4.554  0.5543 -2.1444 -0.1225
18073TIP3   OH275709   1.039   0.645   1.429  0.4410 -0.2599  0.4440
18073TIP3    H175710   1.123   0.611   1.460 -0.3787 -0.6109  2.3153
18073TIP3    H275711   0.982   0.568   1.422  0.1094  0.0469 -0.2744
18074TIP3   OH275712   0.549   3.077   5.284 -0.3106 -0.1050 -0.7023
18074TIP3    H175713   0.608   3.151   5.300  0.8327 -0.8663 -1.3706
18074TIP3    H275714   0.564   3.053   5.193 -2.0160 -0.0077 -1.0284
18075TIP3   OH275715   0.674   5.027   0.837  0.1799 -0.3591 -0.1114
18075TIP3    H175716   0.654   5.090   0.907  1.1468 -0.3128  0.1277
18075TIP3    H275717   0.596   5.027   0.782  1.0682  2.8174 -1.4595
18076TIP3   OH275718   6.395   4.154  13.069  0.3522 -0.1802  0.3201
18076TIP3    H175719   6.357   4.128  12.985 -0.1236 -1.5705  0.9556
18076TIP3    H275720   6.403   4.073  13.118  0.4402  0.6464  1.6966
18077TIP3   OH275721   4.216   4.378   1.410  0.2589  0.9310  0.3614
18077TIP3    H175722   4.152   4.448   1.416 -0.7598 -0.0904  1.9933
18077TIP3    H275723   4.164   4.298   1.400  1.3621  0.3329 -0.7087
18078TIP3   OH275724   5.024   1.090   3.176  0.2633  0.1584  0.4404
18078TIP3    H175725   5.007   1.101   3.082 -0.0716 -2.8954  0.0881
18078TIP3    H275726   5.115   1.062   3.181  0.4818  0.9778  1.0775
18079TIP3   OH275727   3.326   1.898   5.593 -0.7003  0.2845 -0.0662
18079TIP3    H175728   3.322   1.802   5.590 -0.1914  0.2836 -1.5523
18079TIP3    H275729   3.286   1.926   5.510  2.9294  1.1797 -1.6234
18080TIP3   OH275730   4.887   0.673  16.661  0.3011 -0.0375 -0.1210
18080TIP3    H175731   4.910   0.584  16.634  0.2088  0.6853 -2.6616
18080TIP3    H275732   4.881   0.668  16.756  0.8455 -2.6204 -0.1909
18081TIP3   OH275733   4.789   5.101   2.439 -0.2181 -0.0789  0.1127
18081TIP3    H175734   4.793   5.055   2.355 -0.6616 -5.0147  2.5827
18081TIP3    H275735   4.705   5.147   2.437 -0.2101 -0.0750 -2.0935
18082TIP3   OH275736   2.301   4.540   3.602 -0.2856 -0.5299 -0.0308
18082TIP3    H175737   2.220   4.588   3.586  0.9707  1.4437 -0.6441
18082TIP3    H275738   2.312   4.485   3.524  0.0737  0.7933 -0.9199
18083TIP3   OH275739   2.716   1.164   4.368 -0.1245  0.2651 -0.0806
18083TIP3    H175740   2.787   1.208   4.415  0.6789 -0.0421 -0.9789
18083TIP3    H275741   2.703   1.082   4.415  0.6883 -0.0476 -0.3925
18084TIP3   OH275742   4.698   1.675  14.820 -0.2720 -0.0138 -0.2613
18084TIP3    H175743   4.703   1.744  14.754 -0.8830 -0.2782 -0.5903
18084TIP3    H275744   4.775   1.620  14.803  0.7435  1.1143  0.6129
18085TIP3   OH275745   3.546   5.231  13.007  0.1349  0.5133  0.1173
18085TIP3    H175746   3.539   5.260  13.098  0.2970 -1.4706  0.7804
18085TIP3    H275747   3.637   5.202  12.998 -0.3499 -0.9283 -0.1818
18086TIP3   OH275748   4.334   4.073  13.089  0.4542 -0.3676 -0.0576
18086TIP3    H175749   4.361   4.036  13.173 -0.4471 -2.1836 -0.5375
18086TIP3    H275750   4.413   4.115  13.055  1.4610 -1.6677  0.6130
18087TIP3   OH275751   2.520   0.612  12.892  0.0080 -0.3496 -0.0400
18087TIP3    H175752   2.515   0.585  12.800 -0.9353 -2.2222  0.5392
18087TIP3    H275753   2.595   0.565  12.927  0.3881  0.3901  0.1615
18088TIP3   OH275754   4.122   6.795  13.067 -0.0449 -0.1519  0.3942
18088TIP3    H175755   4.181   6.846  13.122  0.1749  0.7421 -0.6530
18088TIP3    H275756   4.176   6.720  13.039  1.0196  1.2716 -1.5191
18089TIP3   OH275757   1.911   2.550  15.914 -0.5757 -0.4408  0.3575
18089TIP3    H175758   1.828   2.527  15.871 -0.0156 -1.3392 -0.2721
18089TIP3    H275759   1.918   2.490  15.987 -0.6594 -0.1113  0.6383
18090TIP3   OH275760   4.567   1.561  12.591  0.5811  0.0931 -0.0701
18090TIP3    H175761   4.565   1.550  12.686 -0.7010 -0.8848 -0.1935
18090TIP3    H275762   4.474   1.563  12.566  0.9267 -1.5034 -1.5013
18091TIP3   OH275763   5.106   6.652  11.153 -0.3067 -0.4064  0.1330
18091TIP3    H175764   5.176   6.591  11.127 -1.2680 -1.4451 -0.0740
18091TIP3    H275765   5.122   6.730  11.100 -0.8399 -1.6200 -1.8943
18092TIP3   OH275766   2.104   3.258   0.708 -0.2499 -0.0911  0.3893
18092TIP3    H175767   2.140   3.289   0.791 -2.4180  1.7343  0.7116
18092TIP3    H275768   2.158   3.300   0.641 -1.1651  1.9419  0.8706
18093TIP3   OH275769   5.444   2.590  11.167  0.0730  0.7291 -0.4219
18093TIP3    H175770   5.357   2.582  11.206 -0.0789  1.9245 -0.5048
18093TIP3    H275771   5.435   2.553  11.079 -0.5019  1.4254 -0.6541
18094TIP3   OH275772   0.809   6.722   3.497  0.3524  0.0736  0.4980
18094TIP3    H175773   0.799   6.817   3.504  0.5398  0.2780 -1.6499
18094TIP3    H275774   0.721   6.687   3.512  0.5257  0.4720  2.6120
18095TIP3   OH275775   1.426   0.124  13.337  0.1089 -0.1923 -0.2173
18095TIP3    H175776   1.468   0.038  13.345  1.3041  0.2900 -1.1971
18095TIP3    H275777   1.497   0.187  13.348 -0.9157  0.7206  1.5062
18096TIP3   OH275778   3.143   1.784   4.221  0.0663 -0.0822 -0.6213
18096TIP3    H175779   3.211   1.842   4.254  0.2644  0.0324 -1.2258
18096TIP3    H275780   3.095   1.756   4.299  0.2402  0.5509 -0.2834
18097TIP3   OH275781   0.972   5.740  12.402  0.4793 -0.5295 -0.0890
18097TIP3    H175782   0.937   5.819  12.441  0.7290 -0.8233  0.7535
18097TIP3    H275783   1.058   5.730  12.443  1.0688 -0.4284 -1.2830
18098TIP3   OH275784   4.566   0.836   3.342 -0.2427 -0.4127  0.4797
18098TIP3    H175785   4.549   0.795   3.427  0.2374 -0.1394  0.7093
18098TIP3    H275786   4.596   0.925   3.364  1.3598 -0.8448  0.0712
18099TIP3   OH275787   4.271   6.295   0.546  0.1923  0.1580 -0.5189
18099TIP3    H175788   4.185   6.337   0.549 -0.4684 -1.2774  1.1726
18099TIP3    H275789   4.259   6.223   0.484  0.2472  0.1070 -0.4690
18100TIP3   OH275790   3.547   5.823   4.526 -0.3619  0.3575 -0.1589
18100TIP3    H175791   3.458   5.843   4.556  0.9283  3.8332  1.5744
18100TIP3    H275792   3.603   5.844   4.601  2.1071  0.1101 -1.8818
18101TIP3   OH275793   5.639   4.107  15.965 -0.3751  0.1204  0.1451
18101TIP3    H175794   5.558   4.143  15.930 -0.6078 -0.6751 -0.1465
18101TIP3    H275795   5.618   4.017  15.988 -0.3619  0.7816  2.8659
18102TIP3   OH275796   4.400   6.466  16.393 -0.0605  0.1980 -0.1893
18102TIP3    H175797   4.350   6.384  16.394 -0.0525  0.2013  0.3880
18102TIP3    H275798   4.387   6.501  16.305  1.3401 -1.2945 -1.0313
18103TIP3   OH275799   1.434   6.780   4.594 -0.2125  0.1847  0.3332
18103TIP3    H175800   1.434   6.703   4.652  1.5605  0.5142  0.7982
18103TIP3    H275801   1.443   6.744   4.506  0.0306 -0.1683  0.5032
18104TIP3   OH275802   4.797   3.490   2.438  0.3910  0.0843 -0.0319
18104TIP3    H175803   4.851   3.569   2.446 -1.8109  1.5355  1.1170
18104TIP3    H275804   4.774   3.468   2.528  0.2053 -1.2964 -0.4143
18105TIP3   OH275805   1.917   2.034  11.349 -0.1244  0.6622  0.0360
18105TIP3    H175806   1.937   2.031  11.443  0.1369  1.0835 -0.0072
18105TIP3    H275807   2.001   2.052  11.307 -0.2455  0.4935 -0.2793
18106TIP3   OH275808   3.266   3.592  13.906 -0.4530  0.4741  0.3886
18106TIP3    H175809   3.278   3.557  13.817 -1.0354  1.2802 -0.0091
18106TIP3    H275810   3.346   3.567  13.952  0.4433  1.2348 -0.7425
18107TIP3   OH275811   3.911   0.840   0.415  0.1909 -0.2516 -0.1238
18107TIP3    H175812   3.899   0.907   0.348 -0.5691  1.1066  1.3409
18107TIP3    H275813   3.839   0.779   0.401  0.0602  0.0040 -0.5824
18108TIP3   OH275814   3.314   0.362  16.300  0.5714 -0.8047  0.0780
18108TIP3    H175815   3.240   0.363  16.240  0.0893 -1.3492  0.6597
18108TIP3    H275816   3.299   0.287  16.357  1.4120 -0.7440  0.4008
18109TIP3   OH275817   2.853   5.881  12.963 -0.3416 -0.3747 -0.1453
18109TIP3    H175818   2.815   5.795  12.982 -3.2993  0.7847 -0.5188
18109TIP3    H275819   2.946   5.871  12.982 -0.6828 -3.5694  0.1057
18110TIP3   OH275820   5.395   1.780  13.978  0.0430 -0.3338 -0.8971
18110TIP3    H175821   5.310   1.779  13.934 -0.6198  3.5837  0.1607
18110TIP3    H275822   5.374   1.795  14.070  1.8557 -0.4829 -0.4415
18111TIP3   OH275823   1.913   6.535  15.690 -0.6766  0.0229  0.0701
18111TIP3    H175824   1.946   6.511  15.603  0.5425 -0.6930  0.7162
18111TIP3    H275825   1.888   6.627  15.682  0.1541  0.1772 -0.8244
18112TIP3   OH275826   3.452   4.273   4.355  0.4922 -0.3483 -0.6650
18112TIP3    H175827   3.483   4.335   4.420 -1.9353 -0.6653  0.8490
18112TIP3    H275828   3.458   4.320   4.272  2.4424  0.4791 -0.0833
18113TIP3   OH275829   2.663   3.166  16.080 -0.0008 -0.0923 -0.3370
18113TIP3    H175830   2.627   3.192  16.165  2.2001 -2.7749  1.5010
18113TIP3    H275831   2.588   3.133  16.031 -1.1183  0.4839  0.9629
18114TIP3   OH275832   0.396   1.349   1.048  0.0093  0.0491 -0.1930
18114TIP3    H175833   0.462   1.408   1.085  0.0492  0.0969 -0.3410
18114TIP3    H275834   0.314   1.397   1.056 -0.5345 -1.2480  2.9075
18115TIP3   OH275835   4.015   2.313   6.130  0.7572 -0.4891  0.5248
18115TIP3    H175836   3.991   2.331   6.221  0.2517  0.0927  0.2821
18115TIP3    H275837   3.961   2.239   6.105  1.3565 -1.0571  0.8924
18116TIP3   OH275838   6.696   6.259   5.208  0.4490 -1.0857  0.1582
18116TIP3    H175839   6.609   6.295   5.195 -0.2275 -2.4327  0.8746
18116TIP3    H275840   6.709   6.200   5.133  0.2834 -1.7470  0.6469
18117TIP3   OH275841   0.747   1.738   0.900 -0.2336 -0.1775 -0.2862
18117TIP3    H175842   0.710   1.700   0.821  0.1032 -0.3085 -0.3844
18117TIP3    H275843   0.672   1.763   0.952 -0.4571  0.3333 -0.8530
18118TIP3   OH275844   0.287   2.752  17.177  0.0803  0.3772  0.0583
18118TIP3    H175845   0.298   2.672  17.229  1.4192  1.8019  2.0497
18118TIP3    H275846   0.376   2.778  17.153 -0.1813  2.1683  0.8922
18119TIP3   OH275847   1.424   2.414  13.649 -0.0716 -1.1181 -0.3985
18119TIP3    H175848   1.468   2.426  13.565 -0.3093 -2.3334 -0.7017
18119TIP3    H275849   1.491   2.431  13.714  0.2372 -0.6406 -0.8360
18120TIP3   OH275850   1.864   0.878   2.106  0.4794 -0.1838 -0.5236
18120TIP3    H175851   1.941   0.821   2.110  0.3874 -0.2612  0.3013
18120TIP3    H275852   1.844   0.885   2.013  0.0595 -2.0712 -0.5941
18121TIP3   OH275853   4.388   1.923   6.224  0.1623 -0.0664 -0.5094
18121TIP3    H175854   4.331   1.859   6.267 -0.1905  0.5023 -0.1265
18121TIP3    H275855   4.386   1.999   6.282 -0.3991  0.7562 -1.5964
18122TIP3   OH275856   2.366   3.171  17.111 -0.1443  0.0034  0.1524
18122TIP3    H175857   2.362   3.245  17.172 -0.2991  0.0554  0.0757
18122TIP3    H275858   2.334   3.207  17.028 -2.1447 -0.6727  0.6120
18123TIP3   OH275859   5.424   1.919   4.790 -0.0213 -0.2568 -0.1107
18123TIP3    H175860   5.467   2.004   4.785  0.7114 -0.6893 -1.4444
18123TIP3    H275861   5.336   1.935   4.756  0.6537 -0.3630 -1.9612
18124TIP3   OH275862   0.974   6.686  10.512 -0.2146  0.7505  0.1293
18124TIP3    H175863   0.970   6.748  10.584 -1.9946 -0.0855  0.7974
18124TIP3    H275864   0.898   6.706  10.457  0.2959  0.4348 -0.7214
18125TIP3   OH275865   2.934   4.733   4.180  0.1690  0.0392 -0.1032
18125TIP3    H175866   2.976   4.817   4.202 -0.1978 -0.0790  1.0510
18125TIP3    H275867   2.874   4.716   4.252 -0.7609 -0.5571 -1.0048
18126TIP3   OH275868   2.959   2.242   3.726  0.2119  0.0397  0.0948
18126TIP3    H175869   2.980   2.176   3.659 -0.7844 -0.5997  0.4036
18126TIP3    H275870   2.918   2.313   3.677 -2.5751 -1.3883  0.2933
18127TIP3   OH275871   3.543   0.505   4.331  0.6464 -0.6324 -0.5959
18127TIP3    H175872   3.533   0.412   4.312  0.7174 -0.3396 -2.1203
18127TIP3    H275873   3.603   0.537   4.264  0.4534  0.5499 -0.2161
18128TIP3   OH275874   0.440   2.524   5.599 -0.1244 -0.2248 -0.0958
18128TIP3    H175875   0.506   2.520   5.530  0.2208  0.9916  0.1443
18128TIP3    H275876   0.360   2.551   5.556  0.0136  0.2223 -0.0713
18129TIP3   OH275877   6.738   0.407   5.512  0.2578  0.7602 -0.6279
18129TIP3    H175878   6.811   0.440   5.459 -0.3020  0.1041 -1.8111
18129TIP3    H275879   6.706   0.330   5.465 -0.3585  0.2629  0.5732
18130TIP3   OH275880   5.749   3.403   2.632  0.5895  0.2129  0.8188
18130TIP3    H175881   5.685   3.336   2.608  0.0992  0.1290  2.3539
18130TIP3    H275882   5.834   3.360   2.620  0.3003 -0.4055  0.9758
18131TIP3   OH275883   1.924   5.708   2.858 -0.1086  0.3757  0.5913
18131TIP3    H175884   1.943   5.615   2.875 -0.9546  0.0070 -0.4648
18131TIP3    H275885   1.844   5.725   2.906 -1.1189 -0.0095 -0.9161
18132TIP3   OH275886   2.916   2.843  17.267 -0.5523  0.4757 -0.3304
18132TIP3    H175887   2.885   2.933  17.278 -0.7198  0.5608 -1.4489
18132TIP3    H275888   2.902   2.824  17.174 -1.2819 -0.9828  0.0572
18133TIP3   OH275889   6.329   6.467  12.297 -0.2724  0.0803 -0.1735
18133TIP3    H175890   6.410   6.437  12.338 -1.2266 -1.5351  0.5672
18133TIP3    H275891   6.265   6.471  12.369 -0.6762  2.0217 -0.6174
18134TIP3   OH275892   0.630   4.403  16.627  0.3901  0.3752 -0.1635
18134TIP3    H175893   0.687   4.466  16.583 -0.6551  2.0695  0.8834
18134TIP3    H275894   0.586   4.453  16.696  1.2360 -2.0065  2.1823
18135TIP3   OH275895   4.331   5.108   2.515 -0.1860 -0.1254 -0.7611
18135TIP3    H175896   4.280   5.172   2.565  0.7225 -0.7459  1.0113
18135TIP3    H275897   4.270   5.035   2.503 -0.4294  0.0524 -0.6257
18136TIP3   OH275898   3.310   0.008   5.560 -0.2926  0.1671  0.1798
18136TIP3    H175899   3.258   0.065   5.617  1.3511  0.6070  1.2586
18136TIP3    H275900   3.366   0.068   5.510  0.5722 -0.4194  0.4338
18137TIP3   OH275901   5.839   5.145   0.244 -0.3409 -0.3818 -0.2480
18137TIP3    H175902   5.748   5.164   0.223 -0.1331  0.5516 -0.3713
18137TIP3    H275903   5.868   5.086   0.175 -1.2266 -1.7746  0.5503
18138TIP3   OH275904   3.577   1.739  12.298  0.0838  0.2610  0.2265
18138TIP3    H175905   3.546   1.649  12.302  0.7337 -0.0076 -0.5111
18138TIP3    H275906   3.528   1.785  12.366 -2.5382  0.0581 -1.4499
18139TIP3   OH275907   0.213   0.428  16.311  0.0818  0.1762 -0.3640
18139TIP3    H175908   0.280   0.386  16.364 -0.7823 -0.3479  0.3351
18139TIP3    H275909   0.259   0.460  16.233  1.5248  1.7398  1.1037
18140TIP3   OH275910   5.903   6.407  16.743  0.0379  0.8958 -0.0123
18140TIP3    H175911   5.891   6.492  16.786  1.4053  0.7494  0.6733
18140TIP3    H275912   5.897   6.343  16.814  1.1413  0.5707 -0.2045
18141TIP3   OH275913   1.286   6.002  12.844  0.3903 -0.4653 -0.1927
18141TIP3    H175914   1.217   5.960  12.896 -0.3581 -0.5858 -1.2486
18141TIP3    H275915   1.341   5.930  12.815 -0.2391 -0.6060 -1.0609
18142TIP3   OH275916   6.094   4.225  11.696  0.3899 -0.0035 -0.0375
18142TIP3    H175917   6.041   4.259  11.623 -0.2397 -2.8718 -0.9862
18142TIP3    H275918   6.033   4.219  11.769  0.8196  2.0581  0.5387
18143TIP3   OH275919   4.359   2.663  11.646 -0.2956  0.0527 -0.2220
18143TIP3    H175920   4.450   2.648  11.672 -0.2861  0.1568 -0.1955
18143TIP3    H275921   4.330   2.736  11.701  0.7093  2.4051 -2.7423
18144TIP3   OH275922   0.063   4.070  15.690 -0.3150  0.4546  0.6812
18144TIP3    H175923  -0.021   4.116  15.684 -1.0381 -1.0346 -1.1140
18144TIP3    H275924   0.121   4.132  15.734 -1.9152  2.1250  0.5135
18145TIP3   OH275925   4.986   1.765   3.579  0.5269 -0.6317 -0.5420
18145TIP3    H175926   4.990   1.756   3.675 -2.1221 -0.6296 -0.3850
18145TIP3    H275927   5.000   1.677   3.546  0.7884 -0.7559 -0.1056
18146TIP3   OH275928   6.108   0.318   5.709  0.0315  0.1752  0.2051
18146TIP3    H175929   6.017   0.346   5.720  0.0469  0.2559  0.1280
18146TIP3    H275930   6.119   0.248   5.774 -0.2008 -0.1096 -0.0614
18147TIP3   OH275931   3.825   6.490   3.669 -0.7048  0.1654 -0.4326
18147TIP3    H175932   3.896   6.448   3.619 -1.1540  0.8266 -1.6431
18147TIP3    H275933   3.756   6.504   3.604 -0.7576  2.3276  0.0598
18148TIP3   OH275934   0.082   4.628  11.465  0.0172  0.5367 -0.6783
18148TIP3    H175935   0.018   4.633  11.537 -0.8005  0.6199 -1.4030
18148TIP3    H275936   0.149   4.568  11.498 -1.7706 -1.7060 -0.8991
18149TIP3   OH275937   5.819   5.045  12.604 -0.0127  0.1541 -0.2729
18149TIP3    H175938   5.800   4.956  12.574  2.1112 -1.1067  2.0221
18149TIP3    H275939   5.891   5.074  12.548  0.8995 -0.4809  0.5689
18150TIP3   OH275940   1.333   1.630  14.146  0.0131 -0.2598 -0.5820
18150TIP3    H175941   1.391   1.621  14.222 -1.5495  0.2697  0.7019
18150TIP3    H275942   1.249   1.593  14.175 -0.1447 -1.6283 -2.6307
18151TIP3   OH275943   4.120   3.977  14.291  0.1309  0.2626 -0.3847
18151TIP3    H175944   4.170   3.985  14.210 -0.0706  0.9823 -0.4364
18151TIP3    H275945   4.170   4.025  14.356  1.1990 -1.7864  0.3458
18152TIP3   OH275946   2.818   5.470   1.671  0.1582 -0.7745  0.0575
18152TIP3    H175947   2.887   5.435   1.615 -0.7793 -0.6295 -1.2239
18152TIP3    H275948   2.762   5.519   1.611 -1.2095 -1.1298  1.0306
18153TIP3   OH275949   3.372   2.042   4.050 -0.2493  0.4206 -0.4202
18153TIP3    H175950   3.375   2.138   4.061  1.0741  0.3811 -0.3906
18153TIP3    H275951   3.338   2.010   4.134  3.2259  0.6070  1.1189
18154TIP3   OH275952   0.950   4.363  16.956 -0.0118 -0.0745 -0.0127
18154TIP3    H175953   0.950   4.300  16.885 -1.1460 -1.2583  1.0259
18154TIP3    H275954   1.038   4.401  16.954  0.4880 -1.2511 -1.0151
18155TIP3   OH275955   5.125   2.277  14.290  0.4813 -0.1009  0.4533
18155TIP3    H175956   5.195   2.222  14.325  0.7030  0.1505  0.4073
18155TIP3    H275957   5.151   2.293  14.199  0.7272  0.5848  0.6461
18156TIP3   OH275958   0.255   5.508  12.346 -0.3696 -0.1152 -0.7965
18156TIP3    H175959   0.207   5.575  12.395  0.6801 -0.0182  0.1192
18156TIP3    H275960   0.198   5.487  12.272 -1.3161  0.8037 -0.3412
18157TIP3   OH275961   0.594   5.700   5.918  0.1246  0.1709 -0.4100
18157TIP3    H175962   0.645   5.636   5.869 -0.7041 -0.6517 -0.2062
18157TIP3    H275963   0.658   5.764   5.949  1.0732 -1.0009  0.0775
18158TIP3   OH275964   3.133   1.601  17.218  0.2364  0.0792  0.0224
18158TIP3    H175965   3.076   1.597  17.140  0.9403 -0.2617 -0.4849
18158TIP3    H275966   3.176   1.515  17.220  1.2279  0.5682  0.0216
18159TIP3   OH275967   3.767   3.165  12.324  0.6452 -0.0508  0.6806
18159TIP3    H175968   3.848   3.121  12.296  1.3546 -0.9611  3.9158
18159TIP3    H275969   3.797   3.228  12.391 -1.3289 -0.4541  1.9627
18160TIP3   OH275970   2.965   0.783   2.278 -0.1714  0.0777 -0.3671
18160TIP3    H175971   3.006   0.811   2.359 -1.0958  2.8365 -0.7660
18160TIP3    H275972   3.030   0.802   2.210 -0.2544 -0.0775 -0.4910
18161TIP3   OH275973   4.189   6.151   2.845 -0.1824 -0.2151 -0.2676
18161TIP3    H175974   4.285   6.155   2.838  0.0068 -0.6720  1.6883
18161TIP3    H275975   4.169   6.058   2.852 -0.7789 -0.1210 -0.6665
18162TIP3   OH275976   2.353   6.155   4.079  0.0435  0.0057 -0.0538
18162TIP3    H175977   2.434   6.103   4.086  0.7159  1.2256  1.3964
18162TIP3    H275978   2.290   6.108   4.133  0.6241  0.6259  1.1802
18163TIP3   OH275979   2.232   4.391  12.517 -0.1008  0.2887  0.0656
18163TIP3    H175980   2.165   4.457  12.496  1.3773  1.7305 -0.2560
18163TIP3    H275981   2.289   4.435  12.579 -0.1324 -1.3595  1.2795
18164TIP3   OH275982   4.294   0.202   0.552  0.5056 -0.0187 -0.0479
18164TIP3    H175983   4.379   0.206   0.508  0.5146  0.5839  0.0193
18164TIP3    H275984   4.264   0.293   0.555 -0.6849 -0.3782 -1.1144
18165TIP3   OH275985   1.057   2.056  12.953 -0.2389 -0.2395 -0.1568
18165TIP3    H175986   1.143   2.075  12.991 -0.6699  3.2485 -0.6845
18165TIP3    H275987   1.004   2.027  13.027  0.9333 -0.7586  0.4936
18166TIP3   OH275988   0.150   4.809  16.441 -0.0699 -0.2201  0.5862
18166TIP3    H175989   0.138   4.762  16.358  0.6504 -0.1103  0.4113
18166TIP3    H275990   0.088   4.769  16.501 -0.3990 -0.4922  0.0641
18167TIP3   OH275991   1.137   2.698  13.704 -0.2050  0.2513 -0.7022
18167TIP3    H175992   1.120   2.606  13.681  0.4699 -0.0338 -0.0972
18167TIP3    H275993   1.060   2.726  13.752  0.5900 -0.7409  1.2172
18168TIP3   OH275994   3.383   4.030  14.527 -0.2298 -0.4848  0.8069
18168TIP3    H175995   3.351   4.119  14.542 -1.0280 -1.0062  2.3684
18168TIP3    H275996   3.474   4.041  14.500  0.1260  0.7462  2.4244
18169TIP3   OH275997   3.413   2.970  14.611 -0.3860  0.3942  0.5113
18169TIP3    H175998   3.438   2.960  14.519 -0.1156  3.1842  0.2203
18169TIP3    H275999   3.323   2.939  14.615  0.0426 -1.0357 -0.3838
18170TIP3   OH276000   0.627   5.765   4.179 -0.0592  0.1516 -0.0157
18170TIP3    H176001   0.691   5.835   4.191 -0.1737  0.3908 -0.7655
18170TIP3    H276002   0.673   5.686   4.208 -0.1618  0.6225  1.4737
18171TIP3   OH276003   2.474   4.945  16.838 -0.3310  0.7123  0.1643
18171TIP3    H176004   2.396   4.991  16.869 -1.2192 -1.4538  1.2220
18171TIP3    H276005   2.442   4.889  16.767  0.5641  0.9653 -0.4520
18172TIP3   OH276006   1.775   6.223   3.680 -0.3926 -0.4510  0.3864
18172TIP3    H176007   1.714   6.203   3.609 -1.5361 -0.6598  1.4077
18172TIP3    H276008   1.784   6.140   3.727 -1.3518  0.2211  1.7730
18173TIP3   OH276009   2.705   3.707  10.913 -0.0063 -0.0939 -0.0478
18173TIP3    H176010   2.623   3.672  10.948  0.6975  0.0409  1.8183
18173TIP3    H276011   2.751   3.632  10.877  0.1423 -0.6161  1.1831
18174TIP3   OH276012   4.618   2.006  15.319 -0.0684  0.2894 -0.1731
18174TIP3    H176013   4.575   2.063  15.255 -0.7000 -0.5248 -0.4990
18174TIP3    H276014   4.704   1.988  15.281  0.0089  0.7736 -0.2221
18175TIP3   OH276015   0.962   0.028  15.468 -0.5631  0.0307 -0.5340
18175TIP3    H176016   1.004   0.101  15.513  1.2071 -1.0664 -0.3350
18175TIP3    H276017   0.872   0.056  15.454 -0.3440  1.5735  1.0275
18176TIP3   OH276018   4.625   2.763   4.367  0.1811 -0.5676 -0.2050
18176TIP3    H176019   4.582   2.818   4.302  0.9349  0.8441  0.4845
18176TIP3    H276020   4.552   2.719   4.412 -0.3356 -1.9331 -2.2880
18177TIP3   OH276021   2.434   2.045   1.864 -0.2994  0.3349  0.6457
18177TIP3    H176022   2.521   2.019   1.835 -0.6228  0.0102 -0.0550
18177TIP3    H276023   2.438   2.141   1.869  0.1373  0.3112  0.7481
18178TIP3   OH276024   3.861   1.851   0.686  0.0848 -0.8179 -0.8880
18178TIP3    H176025   3.790   1.913   0.705  1.1625  0.0843  0.3118
18178TIP3    H276026   3.876   1.859   0.592  0.6485  1.2655 -0.6488
18179TIP3   OH276027   3.341   2.360  16.943  0.4517  0.6200 -0.0073
18179TIP3    H176028   3.292   2.343  17.023  0.2858 -0.2014 -0.2843
18179TIP3    H276029   3.286   2.325  16.873  0.8588  0.8248 -0.4338
18180TIP3   OH276030   1.067   2.100  12.374 -0.4221 -0.9735 -0.4016
18180TIP3    H176031   0.979   2.071  12.398 -0.6541 -1.3975 -1.7203
18180TIP3    H276032   1.124   2.063  12.441 -1.5905  2.1666  2.4833
18181TIP3   OH276033   0.060   3.366   2.368 -0.7266 -0.5651 -0.1463
18181TIP3    H176034   0.012   3.445   2.348  1.4057  0.8742  0.2253
18181TIP3    H276035   0.115   3.389   2.443  1.1146 -1.8772 -1.0442
18182TIP3   OH276036   6.537   2.665  12.970 -0.0611  0.0593  0.4463
18182TIP3    H176037   6.445   2.670  12.944 -0.5452 -1.6360  1.7702
18182TIP3    H276038   6.563   2.756  12.984 -0.9438  0.7049 -1.8981
18183TIP3   OH276039   5.714   2.789  10.900  0.1049  0.2442  0.1597
18183TIP3    H176040   5.651   2.861  10.898 -0.8142 -0.5302  0.8945
18183TIP3    H276041   5.660   2.710  10.890  0.7832 -0.5253  2.4051
18184TIP3   OH276042   4.054   5.297   4.083  0.8169  0.5695  0.7031
18184TIP3    H176043   4.144   5.330   4.083  1.4425 -1.0186 -0.5973
18184TIP3    H276044   4.063   5.206   4.111  0.1765 -0.8179 -3.2513
18185TIP3   OH276045   1.489   1.671   2.758  0.3544 -0.1252 -0.2748
18185TIP3    H176046   1.530   1.654   2.673 -0.1060 -1.5875 -0.2306
18185TIP3    H276047   1.402   1.632   2.750  1.0616 -2.2260  1.5782
18186TIP3   OH276048   2.414   4.626  13.118  0.4533  0.0331 -0.6367
18186TIP3    H176049   2.324   4.609  13.090  0.1000 -0.2345  0.6505
18186TIP3    H276050   2.442   4.545  13.160  0.4617  0.9475  1.1355
18187TIP3   OH276051   0.329   6.785   1.931 -0.1199 -0.2484  0.1163
18187TIP3    H176052   0.412   6.785   1.883  0.3667  1.3972  0.9402
18187TIP3    H276053   0.354   6.797   2.022 -1.2118 -0.8174  0.4986
18188TIP3   OH276054   2.980   6.174  11.408  0.0060 -0.0285  0.3617
18188TIP3    H176055   3.053   6.178  11.346 -1.3275 -2.6857 -1.4723
18188TIP3    H276056   2.916   6.237  11.374  0.6245  0.9009  0.8977
18189TIP3   OH276057   4.322   3.881  13.629  0.5935  0.3514 -0.1192
18189TIP3    H176058   4.249   3.922  13.581  0.6269  0.0206 -0.4569
18189TIP3    H276059   4.367   3.828  13.563  0.1867 -0.7113  0.4469
18190TIP3   OH276060   1.497   4.972   0.693 -0.2446 -0.2936 -0.2067
18190TIP3    H176061   1.465   4.900   0.747  0.2686  0.3488  0.9748
18190TIP3    H276062   1.435   5.043   0.710  0.6631  0.3264  0.5768
18191TIP3   OH276063   2.606   2.036   2.985  0.1671  0.5090  0.3071
18191TIP3    H176064   2.619   2.050   3.079  0.1801 -1.1273  0.5626
18191TIP3    H276065   2.550   1.959   2.980  0.4838  0.3556 -1.0422
18192TIP3   OH276066   6.465   1.112   2.133 -0.0407 -0.1206 -0.8223
18192TIP3    H176067   6.526   1.105   2.060  2.2193 -2.5864  1.1810
18192TIP3    H276068   6.499   1.050   2.198 -1.5040  2.5615  2.6493
18193TIP3   OH276069   6.784   2.432   2.915 -0.0950 -0.4435 -0.1415
18193TIP3    H176070   6.771   2.462   3.005  0.0639 -0.3683 -0.1438
18193TIP3    H276071   6.715   2.367   2.901 -0.1391 -0.4319  0.0240
18194TIP3   OH276072   0.103   3.124   2.969  0.8380  0.2326  0.3274
18194TIP3    H176073   0.014   3.114   3.006  1.1630  2.1181  1.7012
18194TIP3    H276074   0.088   3.160   2.882  0.2220  0.0583  0.3525
18195TIP3   OH276075   3.785   4.189  14.821  0.4958 -0.5460  0.3816
18195TIP3    H176076   3.826   4.141  14.893  1.5193  1.3330  1.0694
18195TIP3    H276077   3.855   4.205  14.759 -0.3136 -1.8476 -0.9145
18196TIP3   OH276078   2.097   6.181  12.046  0.0783  0.0579  0.3071
18196TIP3    H176079   2.106   6.231  12.127  1.8136  0.7914 -0.3136
18196TIP3    H276080   2.158   6.108  12.054 -1.8335 -1.5219  0.8473
18197TIP3   OH276081   6.446   3.403   0.168 -0.2395  0.2772 -0.1998
18197TIP3    H176082   6.540   3.391   0.164 -0.1472  1.4238 -1.5395
18197TIP3    H276083   6.414   3.323   0.211  1.2451 -0.4591 -0.4263
18198TIP3   OH276084   3.332   6.198  11.739  0.5514  1.0717 -0.2037
18198TIP3    H176085   3.251   6.161  11.772  1.3916 -0.8635 -0.2270
18198TIP3    H276086   3.372   6.240  11.815  0.5871  0.0760  0.3351
18199TIP3   OH276087   0.296   2.850   6.163 -0.0314  0.2781 -0.2609
18199TIP3    H176088   0.292   2.833   6.257 -0.5519 -1.1407 -0.5183
18199TIP3    H276089   0.293   2.763   6.123  1.6330  0.7800 -1.5552
18200TIP3   OH276090   3.141   2.136  16.489  0.2026 -0.0113  0.4670
18200TIP3    H176091   3.168   2.087  16.412  1.1668  0.5731  0.4288
18200TIP3    H276092   3.053   2.103  16.509 -0.3357  0.3301 -1.2924
18201TIP3   OH276093   4.285   4.248   3.144 -0.2139  0.1711 -0.7155
18201TIP3    H176094   4.208   4.282   3.100 -0.6662 -0.1227 -0.1567
18201TIP3    H276095   4.353   4.314   3.130 -1.2222  1.5772  0.8375
18202TIP3   OH276096   5.749   1.691  12.327  0.5800  0.1284 -0.6129
18202TIP3    H176097   5.821   1.741  12.366  0.6592 -1.3554  1.2083
18202TIP3    H276098   5.791   1.642  12.256  1.4812 -1.1118  0.7584
18203TIP3   OH276099   6.742   2.444  15.570  0.1075  0.0660  0.4180
18203TIP3    H176100   6.660   2.398  15.583  0.0950  0.5302  2.0784
18203TIP3    H276101   6.790   2.391  15.506 -0.9520 -0.8684  0.3959
18204TIP3   OH276102   6.103   0.929   1.395 -0.4480 -0.1715  0.6624
18204TIP3    H176103   6.072   0.945   1.306  0.6443  0.4474  0.3873
18204TIP3    H276104   6.024   0.933   1.449 -1.0340  0.0160 -0.1997
18205TIP3   OH276105   4.091   5.812   1.845 -0.1107  0.4324  0.1494
18205TIP3    H176106   4.114   5.745   1.910  0.5016  1.2652  0.7919
18205TIP3    H276107   4.070   5.890   1.897  0.2833  1.0741 -0.6486
18206TIP3   OH276108   5.563   0.238   6.293  0.0322 -0.0776  0.2537
18206TIP3    H176109   5.510   0.263   6.218  0.2433  0.7670  0.3695
18206TIP3    H276110   5.557   0.313   6.353  1.9575  0.3800 -0.0730
18207TIP3   OH276111   0.743   0.628   0.550  0.0720  0.2623 -0.0380
18207TIP3    H176112   0.740   0.616   0.645 -0.8066  0.2697 -0.0591
18207TIP3    H276113   0.806   0.698   0.537 -2.0817  2.4441  0.7802
18208TIP3   OH276114   3.435   6.222  11.442 -0.0685 -0.2431  0.2927
18208TIP3    H176115   3.371   6.169  11.488 -0.7998  1.4890  1.3276
18208TIP3    H276116   3.389   6.303  11.420  1.6614  0.9081  0.7844
18209TIP3   OH276117   1.981   6.713   2.694 -0.4540 -0.1897  0.0929
18209TIP3    H176118   1.963   6.644   2.630 -1.4698  1.1775 -1.1326
18209TIP3    H276119   2.066   6.690   2.731 -0.3368 -1.5714 -0.9963
18210TIP3   OH276120   3.822   5.063   0.632 -0.6309 -0.1465 -0.5198
18210TIP3    H176121   3.809   4.995   0.699  0.2893  1.3298  1.1856
18210TIP3    H276122   3.830   5.014   0.550  1.9681 -2.2704  0.9028
18211TIP3   OH276123   0.160   0.485  12.108 -0.0135 -0.5718 -0.1132
18211TIP3    H176124   0.178   0.579  12.105  2.2788 -0.9741  0.2146
18211TIP3    H276125   0.094   0.476  12.177 -0.9031  0.8788 -0.7497
18212TIP3   OH276126   4.279   4.582   2.434  0.7131 -0.3607 -0.5292
18212TIP3    H176127   4.365   4.622   2.448  1.1485 -1.0989 -1.0566
18212TIP3    H276128   4.224   4.655   2.404  1.5266 -0.1565 -1.5988
18213TIP3   OH276129   0.413   0.122   4.165  0.5169 -0.6962 -0.2541
18213TIP3    H176130   0.332   0.133   4.215 -0.9224 -1.2057 -2.4010
18213TIP3    H276131   0.415   0.029   4.144  1.4211 -0.5920 -0.6393
18214TIP3   OH276132   4.909   0.262   0.598  0.1652 -0.1535  0.3441
18214TIP3    H176133   4.922   0.337   0.656 -0.0656  0.4957 -0.4323
18214TIP3    H276134   4.995   0.221   0.591  0.3160  0.1052  0.6921
18215TIP3   OH276135   2.051   1.352  14.102 -0.3760  0.1489  0.4718
18215TIP3    H176136   2.121   1.367  14.166 -0.7706 -0.6676  1.1102
18215TIP3    H276137   2.066   1.263  14.072 -0.8093  0.1717  0.1918
18216TIP3   OH276138   2.664   2.747  14.607 -0.3506 -0.2393  0.0510
18216TIP3    H176139   2.579   2.788  14.588 -0.0468 -0.6876 -2.4908
18216TIP3    H276140   2.645   2.685  14.677 -1.7478  0.9242  0.7381
18217TIP3   OH276141   2.811   0.481  11.676  0.4584  0.2880  0.0122
18217TIP3    H176142   2.781   0.562  11.717 -0.8148  0.2942 -0.9273
18217TIP3    H276143   2.809   0.499  11.582  0.3338 -0.7725 -0.1948
18218TIP3   OH276144   2.488   1.341   4.130  0.4626 -0.1781  0.1867
18218TIP3    H176145   2.459   1.257   4.166  1.6162 -0.2668  0.9406
18218TIP3    H276146   2.470   1.404   4.200  0.2812  0.0835 -0.0951
18219TIP3   OH276147   6.169   4.100   3.537 -0.4771  0.1315 -0.0612
18219TIP3    H176148   6.191   4.105   3.630  0.7525 -0.4715 -0.3114
18219TIP3    H276149   6.216   4.022   3.506  0.7891  1.4940 -1.6388
18220TIP3   OH276150   6.418   2.742  15.555  0.0567  0.2620 -0.2263
18220TIP3    H176151   6.340   2.796  15.569 -0.7276 -1.3634  1.9806
18220TIP3    H276152   6.416   2.721  15.461 -1.1009  1.7904 -0.5631
18221TIP3   OH276153   1.725   1.736   6.137 -0.3031  0.3080  0.1009
18221TIP3    H176154   1.788   1.754   6.207 -0.5345  0.4026  0.2867
18221TIP3    H276155   1.763   1.662   6.090 -0.9622 -0.8584  1.3541
18222TIP3   OH276156   3.627   0.787  15.623  0.3048 -0.5585  0.0033
18222TIP3    H176157   3.702   0.735  15.651  0.6464 -0.1671 -0.1622
18222TIP3    H276158   3.642   0.873  15.663 -0.2723 -0.5972  0.3094
18223TIP3   OH276159   4.689   2.097   6.884 -0.1624 -0.3825 -0.2274
18223TIP3    H176160   4.636   2.086   6.962 -0.0845  0.3228 -0.0723
18223TIP3    H276161   4.724   2.009   6.866  1.0338 -0.2496  1.3895
18224TIP3   OH276162   5.064   5.997   5.558  0.4640  0.0448  0.4105
18224TIP3    H176163   5.030   5.937   5.492  1.0276 -1.4213  1.4267
18224TIP3    H276164   5.151   6.021   5.527 -0.2933  1.4413 -0.6859
18225TIP3   OH276165   6.341   3.606   2.710  0.1128  0.9495 -0.0199
18225TIP3    H176166   6.421   3.560   2.684  0.2240  0.0752  1.7861
18225TIP3    H276167   6.270   3.548   2.683  0.1241  1.2179 -0.6337
18226TIP3   OH276168   1.266   0.471  12.670 -0.1781 -0.3242  0.0837
18226TIP3    H176169   1.182   0.430  12.687 -1.7442  2.3779 -0.8848
18226TIP3    H276170   1.255   0.561  12.699  2.5710 -0.0658  0.4419
18227TIP3   OH276171   0.570   2.626  13.090 -0.3985  0.8472  0.7008
18227TIP3    H176172   0.527   2.698  13.045 -1.9445  0.5995  1.7412
18227TIP3    H276173   0.511   2.604  13.162  0.2635 -1.1663  0.6633
18228TIP3   OH276174   2.886   1.026   0.412 -0.3441  0.1387  0.1558
18228TIP3    H176175   2.842   1.103   0.447 -3.0327 -1.4795  0.4830
18228TIP3    H276176   2.848   1.013   0.326  1.5027  0.2736 -0.7035
18229TIP3   OH276177   2.481   3.392   4.616 -0.5201  0.2104  0.2966
18229TIP3    H176178   2.495   3.355   4.703 -0.3851 -2.1535 -0.7000
18229TIP3    H276179   2.395   3.434   4.622 -1.1249 -1.1023  1.2094
18230TIP3   OH276180   1.308   2.290   3.363  0.3689  0.2766 -0.2235
18230TIP3    H176181   1.360   2.364   3.393  0.8473  0.5702 -1.7261
18230TIP3    H276182   1.223   2.301   3.406  0.7443  1.1736  0.2946
18231TIP3   OH276183   3.495   3.152  15.258  0.3054 -0.0120  0.0220
18231TIP3    H176184   3.586   3.151  15.227  0.3543  0.4455  0.1424
18231TIP3    H276185   3.500   3.118  15.347  0.5532  1.3098  0.5211
18232TIP3   OH276186   0.719   2.187   1.214  0.1975  0.4582  0.7826
18232TIP3    H176187   0.665   2.139   1.151 -0.2751 -1.7594  2.7963
18232TIP3    H276188   0.716   2.278   1.184 -1.4527 -0.2720 -1.3716
18233TIP3   OH276189   5.491   1.639   0.974 -0.6414  0.1776 -0.2382
18233TIP3    H176190   5.498   1.665   0.882 -0.2976 -0.1379 -0.3031
18233TIP3    H276191   5.400   1.658   0.997 -0.7594  0.1580 -0.6742
18234TIP3   OH276192   4.399   6.700   1.146  0.1402 -0.4302  0.1573
18234TIP3    H176193   4.455   6.751   1.088  1.5251 -2.5775 -0.4392
18234TIP3    H276194   4.456   6.633   1.182 -1.0217  0.0260  3.0012
18235TIP3   OH276195   6.760   2.121   1.478 -1.0566 -0.4826 -0.3914
18235TIP3    H176196   6.704   2.169   1.539  0.2043  0.5772 -0.0411
18235TIP3    H276197   6.825   2.078   1.534  1.1550  1.8752 -1.0428
18236TIP3   OH276198   5.219   3.614  16.079  0.5946 -0.6027 -0.2216
18236TIP3    H176199   5.300   3.630  16.030  0.7566 -1.0475 -0.1047
18236TIP3    H276200   5.188   3.529  16.047  0.8066 -0.9862  0.5835
18237TIP3   OH276201   1.532   0.992  14.138 -0.6559 -0.4667 -0.3963
18237TIP3    H176202   1.491   0.966  14.220  1.2896 -4.1205 -0.5054
18237TIP3    H276203   1.459   1.003  14.077 -1.9678  0.4331  1.3001
18238TIP3   OH276204   6.045   2.415  11.180  0.2266 -0.8706  0.0952
18238TIP3    H176205   6.075   2.465  11.256  2.0350 -2.1920  0.2977
18238TIP3    H276206   5.956   2.447  11.163  1.0617  1.8493  0.6383
18239TIP3   OH276207   1.085   4.126   5.230  0.5785  0.2991 -0.3042
18239TIP3    H176208   1.140   4.047   5.229  0.8273  0.4539  0.5308
18239TIP3    H276209   1.029   4.115   5.307 -0.2796  0.3342 -0.9272
18240TIP3   OH276210   5.279   2.609  14.646  0.0250  0.3473  0.2200
18240TIP3    H176211   5.307   2.583  14.733 -1.2478  0.1077  0.5531
18240TIP3    H276212   5.230   2.535  14.612  0.3651  0.5033 -0.6395
18241TIP3   OH276213   5.677   5.413   1.121  0.8014  0.1949 -0.3948
18241TIP3    H176214   5.705   5.500   1.092 -0.0872  0.4982 -0.3445
18241TIP3    H276215   5.583   5.411   1.104  0.5886 -0.2908  0.7894
18242TIP3   OH276216   4.121   2.331  13.392 -0.7609 -0.0680  0.0589
18242TIP3    H176217   4.109   2.270  13.319  1.1844 -1.4645  0.8720
18242TIP3    H276218   4.103   2.280  13.470 -1.8582  1.1678  0.6282
18243TIP3   OH276219   4.998   5.479  15.690  0.2694  0.5488 -0.2237
18243TIP3    H176220   4.956   5.550  15.738  1.1247 -0.1517  1.6065
18243TIP3    H276221   4.992   5.403  15.748 -0.6177 -0.8887 -2.1526
18244TIP3   OH276222   0.423   1.854  15.732  1.0280 -0.0914  0.2474
18244TIP3    H176223   0.466   1.769  15.717  1.4175 -0.0068  0.8652
18244TIP3    H276224   0.457   1.910  15.662 -1.8388 -1.3490 -2.2853
18245TIP3   OH276225   2.247   4.467  14.463  0.1145 -0.0296 -0.2009
18245TIP3    H176226   2.170   4.520  14.440 -0.8249 -0.2165  2.3826
18245TIP3    H276227   2.213   4.377  14.468  0.3627 -0.0468  1.4648
18246TIP3   OH276228   1.354   6.588  16.938 -0.1353 -0.3963 -0.4974
18246TIP3    H176229   1.435   6.541  16.957 -0.9656 -2.0258 -0.9339
18246TIP3    H276230   1.359   6.609  16.845  1.4487  2.8042  0.2303
18247TIP3   OH276231   1.036   3.905  13.724  0.9332  0.2038  0.1730
18247TIP3    H176232   0.942   3.894  13.732  1.1503 -1.6911  0.3307
18247TIP3    H276233   1.049   3.935  13.634  0.2022  0.2734  0.0932
18248TIP3   OH276234   6.613   6.052   5.020  0.0652 -0.4452 -0.2168
18248TIP3    H176235   6.554   5.977   5.032  0.6173 -1.1549 -1.7286
18248TIP3    H276236   6.692   6.014   4.980  1.0505  0.6813  0.6055
18249TIP3   OH276237   5.693   2.288   3.199  0.4590 -0.3719  0.6677
18249TIP3    H176238   5.624   2.282   3.266 -0.3331  1.9798  0.1287
18249TIP3    H276239   5.766   2.330   3.245  0.2744  0.3236  0.3263
18250TIP3   OH276240   2.861   6.719  11.881  0.6872  0.3309 -0.1317
18250TIP3    H176241   2.812   6.649  11.839  1.4730 -0.5167  0.3464
18250TIP3    H276242   2.953   6.694  11.872  0.9561  1.0520  0.4695
18251TIP3   OH276243   1.781   1.209   2.183 -0.9258  0.2081  0.7538
18251TIP3    H176244   1.868   1.181   2.209 -1.0247 -1.7646 -0.9487
18251TIP3    H276245   1.723   1.174   2.251 -0.5987 -0.1982  0.8264
18252TIP3   OH276246   4.665   0.926   2.870 -0.5660  0.5967  0.1789
18252TIP3    H176247   4.682   0.958   2.782  0.7984  1.3025  0.6758
18252TIP3    H276248   4.751   0.898   2.902 -1.3008 -1.1355  0.7140
18253TIP3   OH276249   6.539   5.969   0.740  0.0282  0.1925 -0.0011
18253TIP3    H176250   6.573   5.948   0.826  1.0856 -1.1431 -0.7258
18253TIP3    H276251   6.537   6.065   0.738  0.1837  0.2357  1.4173
18254TIP3   OH276252   5.093   2.615   2.885  1.1208 -0.0122 -0.3386
18254TIP3    H176253   5.011   2.656   2.912  0.7946  0.9339 -2.5811
18254TIP3    H276254   5.082   2.523   2.907  1.0525  0.7155  2.9569
18255TIP3   OH276255   2.073   1.547  12.351  0.2161 -0.7020 -0.0462
18255TIP3    H176256   2.054   1.457  12.379  1.5787 -1.5051 -1.6283
18255TIP3    H276257   2.006   1.566  12.284  0.4469 -0.8553 -0.3218
18256TIP3   OH276258   2.316   2.343   2.932  0.4352  0.0971 -0.1934
18256TIP3    H176259   2.357   2.410   2.987  1.4683  0.7905 -1.7624
18256TIP3    H276260   2.222   2.356   2.944  0.6439  0.3493  1.2525
18257TIP3   OH276261   0.796   1.079  11.675 -0.6229  0.5733  0.7987
18257TIP3    H176262   0.779   1.173  11.664  0.9728  0.8921  0.8115
18257TIP3    H276263   0.841   1.073  11.759 -1.3562 -0.2956  1.1282
18258TIP3   OH276264   3.692   3.458  15.318 -0.0902  0.4025 -0.1441
18258TIP3    H176265   3.683   3.533  15.377  2.4221  0.9544 -0.4282
18258TIP3    H276266   3.766   3.480  15.262  0.1325 -1.9214 -0.8060
18259TIP3   OH276267   1.305   2.604  16.358  0.1592 -0.0708  0.2910
18259TIP3    H176268   1.280   2.588  16.267 -2.7293  0.0763  0.9895
18259TIP3    H276269   1.316   2.698  16.364 -0.3683 -0.0019  0.2384
18260TIP3   OH276270   1.404   4.646  13.177 -0.6459 -0.2570 -0.3963
18260TIP3    H176271   1.314   4.630  13.206 -0.9528  0.5670 -0.8871
18260TIP3    H276272   1.404   4.737  13.147 -0.0443 -0.7248 -1.8591
18261TIP3   OH276273   2.590   1.474   1.172 -0.4255  0.3152 -0.4143
18261TIP3    H176274   2.558   1.422   1.246  1.0014  0.0618  0.0466
18261TIP3    H276275   2.554   1.561   1.187 -0.5440  0.1438  0.3358
18262TIP3   OH276276   3.720   6.517   2.407 -0.1281  0.7070  0.0506
18262TIP3    H176277   3.659   6.532   2.335 -0.0419 -1.1884 -0.4556
18262TIP3    H276278   3.668   6.531   2.486 -1.3097 -1.0966 -0.3747
18263TIP3   OH276279   3.944   2.924  10.808 -0.3032  0.0499 -0.3926
18263TIP3    H176280   3.890   3.003  10.811 -0.2394  0.0539  0.7656
18263TIP3    H276281   4.030   2.955  10.779 -1.1009 -0.0770 -3.1021
18264TIP3   OH276282   6.781   4.164  11.361 -0.2669 -0.4842  0.1758
18264TIP3    H176283   6.718   4.095  11.344 -0.2928 -0.1707 -1.0272
18264TIP3    H276284   6.734   4.228  11.416 -0.8976 -0.3930 -0.4685
18265TIP3   OH276285   5.640   4.664   5.960  0.1304 -0.0949 -0.6762
18265TIP3    H176286   5.575   4.604   5.923  0.9803 -0.5349 -1.4808
18265TIP3    H276287   5.669   4.620   6.040 -1.3374  0.6153  0.2650
18266TIP3   OH276288   6.404   0.153  11.772  0.0041  0.4191 -0.2159
18266TIP3    H176289   6.442   0.193  11.693 -1.9446  1.4495 -0.6777
18266TIP3    H276290   6.391   0.061  11.749  0.1805  0.5425 -0.8128
18267TIP3   OH276291   2.388   6.482  14.138 -0.0511  0.0569 -0.2969
18267TIP3    H176292   2.310   6.490  14.084 -0.5124 -2.0843  0.0196
18267TIP3    H276293   2.448   6.548  14.104 -1.7770  1.3429 -0.8983
18268TIP3   OH276294   6.713   5.738   1.606 -0.3204 -0.2542 -0.0173
18268TIP3    H176295   6.626   5.773   1.625 -0.3106  0.3789 -1.0560
18268TIP3    H276296   6.764   5.815   1.581  0.0831 -0.8333 -0.9947
18269TIP3   OH276297   2.512   5.784   4.507 -0.3191  0.4390 -0.3013
18269TIP3    H176298   2.572   5.841   4.555  0.5218 -0.0480 -0.7588
18269TIP3    H276299   2.559   5.701   4.498 -0.8996  0.1758 -1.0173
18270TIP3   OH276300   5.914   2.666   0.497  0.8098 -0.5677 -0.1964
18270TIP3    H176301   5.958   2.584   0.472  0.8148 -0.3969 -0.7579
18270TIP3    H276302   5.822   2.651   0.476  0.9055 -0.2027 -0.9009
18271TIP3   OH276303   4.314   2.911  10.740 -0.0508 -0.2708 -0.1873
18271TIP3    H176304   4.247   2.978  10.753  0.6435  0.3494  0.1792
18271TIP3    H276305   4.326   2.872  10.827  0.6377  0.1562 -0.0913
18272TIP3   OH276306   5.000   2.384   3.250  0.1799  0.1871  0.4266
18272TIP3    H176307   5.039   2.369   3.163  0.4032  0.2454  0.5160
18272TIP3    H276308   5.054   2.453   3.289  0.0693  0.1725  0.6061
18273TIP3   OH276309   3.089   6.246   1.603  0.1948 -0.1337 -0.0816
18273TIP3    H176310   3.171   6.203   1.580  0.4427 -0.1592  0.8083
18273TIP3    H276311   3.069   6.303   1.528 -0.1549 -1.7987 -1.2737
18274TIP3   OH276312   0.103   2.464   1.584 -0.8134  0.3650 -0.4258
18274TIP3    H176313   0.008   2.474   1.580 -0.8817 -0.3782 -0.8786
18274TIP3    H276314   0.118   2.401   1.654 -0.6778  0.2178 -0.5855
18275TIP3   OH276315   3.778   6.017   1.800  0.4543 -0.3243  0.2036
18275TIP3    H176316   3.709   5.951   1.796  0.2011  0.0135 -2.1626
18275TIP3    H276317   3.791   6.044   1.709  0.5764  2.8726  1.0874
18276TIP3   OH276318   2.048   1.440  13.323  0.1229 -0.3565 -0.4990
18276TIP3    H176319   2.055   1.441  13.228 -2.3374 -0.6107 -0.7041
18276TIP3    H276320   1.975   1.382  13.341 -0.0533  0.4529  1.5251
18277TIP3   OH276321   5.055   5.291  13.417  0.7080  0.2299  0.0632
18277TIP3    H176322   4.991   5.353  13.383  0.9113 -0.0606 -0.8469
18277TIP3    H276323   5.060   5.222  13.351  0.8051 -0.5412  0.8609
18278TIP3   OH276324   1.568   0.654  15.801  0.4072 -0.0994  0.6169
18278TIP3    H176325   1.639   0.592  15.785 -0.0451 -0.2950 -0.7159
18278TIP3    H276326   1.535   0.631  15.887 -0.3867 -2.3683 -0.2512
18279TIP3   OH276327   2.140   1.986   0.807 -0.1391  0.4990  0.1536
18279TIP3    H176328   2.114   1.932   0.732 -2.3767  1.0116  0.5295
18279TIP3    H276329   2.193   2.056   0.769  2.5261 -1.6957 -0.3927
18280TIP3   OH276330   1.615   4.564   4.115  0.0505  0.1989 -0.1649
18280TIP3    H176331   1.634   4.570   4.208 -1.3607 -0.9195  0.2031
18280TIP3    H276332   1.684   4.507   4.080  0.4307  0.4159  0.2361
18281TIP3   OH276333   1.611   1.999  14.444  0.0118 -0.6160  0.6376
18281TIP3    H176334   1.561   1.921  14.422 -1.4986  0.3431  0.5935
18281TIP3    H276335   1.623   1.994  14.539 -0.1865 -0.8289  0.6509
18282TIP3   OH276336   2.076   4.764   1.265  0.2252  0.2624 -0.2538
18282TIP3    H176337   2.160   4.803   1.288  0.4426  0.2064 -0.9265
18282TIP3    H276338   2.095   4.671   1.251 -0.2585 -0.0641  1.1881
18283TIP3   OH276339   3.201   6.720  14.853  0.8157  0.4266  0.1341
18283TIP3    H176340   3.123   6.762  14.817  1.6863  1.4089 -0.6679
18283TIP3    H276341   3.198   6.631  14.819  0.1821  0.5402 -0.1211
18284TIP3   OH276342   6.768   5.718   6.049  0.3393 -0.3734  0.1241
18284TIP3    H176343   6.698   5.720   6.114  1.6589 -0.9986  1.6049
18284TIP3    H276344   6.835   5.662   6.088  1.8391  0.5422 -1.0824
18285TIP3   OH276345   1.970   0.534  11.866  0.6254 -0.4084 -0.1879
18285TIP3    H176346   2.050   0.545  11.815  0.6630 -0.8934 -0.2312
18285TIP3    H276347   1.902   0.515  11.802  0.5248 -0.2622 -0.1261
18286TIP3   OH276348   0.032   4.587   3.898  0.0332 -0.0878 -0.3602
18286TIP3    H176349   0.123   4.560   3.904 -0.0588 -0.6096 -1.2571
18286TIP3    H276350   0.037   4.682   3.882  0.3960  0.0004  0.2440
18287TIP3   OH276351   2.301   4.525  11.463 -0.1730  0.0006  0.1431
18287TIP3    H176352   2.381   4.577  11.462  1.4814 -2.4528  0.1484
18287TIP3    H276353   2.266   4.532  11.375  0.8456 -0.0471 -0.2731
18288TIP3   OH276354   3.170   4.157   0.394  1.0133  0.2586 -0.1297
18288TIP3    H176355   3.137   4.068   0.397 -0.8183  0.8962 -0.7839
18288TIP3    H276356   3.265   4.148   0.406  0.8985 -1.7985 -0.6287
18289TIP3   OH276357   6.394   3.779  16.439 -0.3388  0.6180 -0.2521
18289TIP3    H176358   6.310   3.824  16.449  0.1233  1.8726 -1.7622
18289TIP3    H276359   6.431   3.778  16.527 -0.9982  1.9662  0.0585
18290TIP3   OH276360   4.017   6.003  13.676 -0.4050  0.0166  0.2126
18290TIP3    H176361   3.965   6.022  13.597  0.8877  1.7383 -0.2408
18290TIP3    H276362   3.989   6.069  13.739  1.2522  0.9891 -0.0488
18291TIP3   OH276363   4.925   0.046   5.347  0.3619 -0.1348 -0.1447
18291TIP3    H176364   4.963   0.076   5.265 -0.7576 -0.4240 -0.7869
18291TIP3    H276365   4.834   0.076   5.344  0.1488 -0.6663  0.7120
18292TIP3   OH276366   0.995   5.361  13.321  0.1039  0.7357  0.7109
18292TIP3    H176367   0.912   5.314  13.332  0.0902  0.2584 -1.2052
18292TIP3    H276368   1.023   5.382  13.410 -0.5292 -1.8023  1.5510
18293TIP3   OH276369   5.052   2.485   2.271 -0.6944  0.0772  0.5634
18293TIP3    H176370   5.054   2.579   2.285 -1.4824  0.5196 -1.9851
18293TIP3    H276371   4.959   2.463   2.267 -0.5179 -0.5614 -0.2187
18294TIP3   OH276372   5.878   4.514   3.261 -0.1956  1.1455  0.3195
18294TIP3    H176373   5.817   4.457   3.308  0.0681  0.9616  0.4433
18294TIP3    H276374   5.957   4.515   3.316  0.6830 -0.2939 -0.8565
18295TIP3   OH276375   1.658   3.701   4.115 -0.3222  0.1378  0.4927
18295TIP3    H176376   1.723   3.700   4.185  0.2587 -0.6869 -0.0543
18295TIP3    H276377   1.709   3.694   4.034 -1.1893 -2.9660  0.1560
18296TIP3   OH276378   4.861   1.068   1.791 -0.3817  0.6232  0.2338
18296TIP3    H176379   4.862   0.989   1.844  1.3726 -0.2353 -0.9985
18296TIP3    H276380   4.795   1.124   1.831 -1.6766 -1.4737  1.1048
18297TIP3   OH276381   4.319   5.472   1.735  0.2562 -0.4096 -0.4536
18297TIP3    H176382   4.355   5.441   1.818  1.7841  1.0498 -0.5607
18297TIP3    H276383   4.378   5.436   1.669  0.8861  1.0665 -0.7006
18298TIP3   OH276384   1.557   0.516   3.966  0.2700 -0.1259 -0.1259
18298TIP3    H176385   1.644   0.556   3.966 -0.3475  1.3107 -1.7607
18298TIP3    H276386   1.561   0.448   4.033  2.1567  0.9815  0.9121
18299TIP3   OH276387   2.047   0.711  13.075  0.3348  0.0330 -0.1801
18299TIP3    H176388   2.027   0.636  13.132 -0.9986  1.9168  1.9523
18299TIP3    H276389   2.141   0.726  13.088  0.6913 -1.4931 -0.9238
18300TIP3   OH276390   4.463   6.622   2.925  0.3345 -0.4287  0.1275
18300TIP3    H176391   4.382   6.625   2.873  0.8556  0.9591 -0.6445
18300TIP3    H276392   4.505   6.707   2.908  1.5526 -0.8094  1.1688
18301TIP3   OH276393   0.044   2.136   1.061 -0.3117 -0.4806  0.1424
18301TIP3    H176394  -0.027   2.178   1.110  0.5970  0.9533  0.2838
18301TIP3    H276395   0.124   2.162   1.108  0.3386 -1.7808 -0.2176
18302TIP3   OH276396   4.243   5.539  13.580 -0.9429 -0.2964  0.6289
18302TIP3    H176397   4.311   5.549  13.514 -1.2798  4.1377  0.7972
18302TIP3    H276398   4.165   5.512  13.531 -0.0539 -1.7187 -0.0544
18303TIP3   OH276399   2.816   1.145  11.825 -0.1142 -0.0836 -0.0352
18303TIP3    H176400   2.851   1.187  11.747  0.4027 -1.1154 -0.3702
18303TIP3    H276401   2.866   1.183  11.897 -1.7888  2.1648 -0.0060
18304TIP3   OH276402   5.055   4.484   4.162  0.6175  0.0643  0.2756
18304TIP3    H176403   5.106   4.443   4.093  0.0631  2.7273 -1.7830
18304TIP3    H276404   4.965   4.457   4.145  0.7970 -1.5095  1.6424
18305TIP3   OH276405   4.961   2.298  16.027  0.2427  0.0597 -0.3619
18305TIP3    H176406   4.965   2.342  15.942  0.6116  0.5809 -0.0756
18305TIP3    H276407   4.986   2.365  16.090  1.7334 -0.7975 -0.0113
18306TIP3   OH276408   6.347   4.932  14.566  0.0525 -0.1488 -0.0013
18306TIP3    H176409   6.363   5.025  14.582 -0.2182 -0.3534  1.5755
18306TIP3    H276410   6.433   4.897  14.542  0.2630  0.3997 -0.0658
18307TIP3   OH276411   6.415   1.310   5.673  0.3891 -0.3678 -0.0035
18307TIP3    H176412   6.384   1.357   5.596 -1.7299  1.0717  1.6903
18307TIP3    H276413   6.398   1.218   5.653 -1.1360  0.0710 -0.8119
18308TIP3   OH276414   4.734   3.506   2.063 -0.2938  0.0343  0.2935
18308TIP3    H176415   4.723   3.583   2.119  0.2267  0.2241  0.1338
18308TIP3    H276416   4.756   3.435   2.123  1.4156  0.4836  0.2229
18309TIP3   OH276417   5.972   5.795  14.905  0.0081 -0.1341 -0.2660
18309TIP3    H176418   6.004   5.876  14.866 -1.2201  1.7364  2.3804
18309TIP3    H276419   6.041   5.769  14.965 -0.9649  0.8529  1.3421
18310TIP3   OH276420   1.321   2.245   2.133  0.2263  0.7454 -0.0145
18310TIP3    H176421   1.260   2.176   2.159  1.3478 -0.3238 -0.1503
18310TIP3    H276422   1.327   2.303   2.209 -1.3604  1.1508 -0.1969
18311TIP3   OH276423   5.942   2.566   1.387 -0.2537  0.5580  0.3186
18311TIP3    H176424   5.971   2.584   1.477  0.6851  0.7244 -0.0207
18311TIP3    H276425   5.912   2.475   1.390  0.6773  0.2616  0.5658
18312TIP3   OH276426   0.110   6.684  17.170 -0.2422 -0.8834 -0.5787
18312TIP3    H176427   0.143   6.609  17.121 -2.4836 -1.4500 -1.2890
18312TIP3    H276428   0.025   6.704  17.130 -0.7860  0.5003  1.1589
18313TIP3   OH276429   5.886   4.457  16.312 -0.0822  0.0707  0.7013
18313TIP3    H176430   5.959   4.443  16.373 -0.6934 -2.0447  0.9767
18313TIP3    H276431   5.825   4.513  16.360  0.3136 -0.0197  1.3196
18314TIP3   OH276432   5.171   2.185  13.570  0.0866  0.4563  0.2110
18314TIP3    H176433   5.155   2.091  13.569 -2.3338  0.8097  1.5285
18314TIP3    H276434   5.260   2.195  13.605  0.9887 -1.3597 -1.4535
18315TIP3   OH276435   2.648   1.595  12.303  0.0398  0.7992 -0.3528
18315TIP3    H176436   2.617   1.681  12.333 -0.3915  0.6228 -0.2990
18315TIP3    H276437   2.694   1.615  12.221 -0.4853  1.0212 -0.5991
18316TIP3   OH276438   1.402   4.485   1.574 -0.4819 -0.4911 -0.1305
18316TIP3    H176439   1.391   4.557   1.513  0.2101 -0.7926 -0.6236
18316TIP3    H276440   1.345   4.506   1.648 -0.2618  0.5694 -0.2644
18317TIP3   OH276441   2.380   4.334  15.144  0.3299 -0.6569 -0.1000
18317TIP3    H176442   2.381   4.412  15.199 -1.5194 -0.8780  0.2878
18317TIP3    H276443   2.438   4.272  15.189  0.2292 -0.2048  0.6591
18318TIP3   OH276444   3.301   3.707  10.698 -0.5067  0.4033  0.0986
18318TIP3    H176445   3.233   3.662  10.748 -1.2312  0.2221 -1.0223
18318TIP3    H276446   3.254   3.744  10.622  0.5654  0.6269 -0.4609
18319TIP3   OH276447   4.058   6.155  11.782 -0.0234 -0.1062  0.1161
18319TIP3    H176448   4.112   6.230  11.805  0.1352 -0.3762  0.6281
18319TIP3    H276449   4.024   6.123  11.865 -1.2615  0.2701 -0.2296
18320TIP3   OH276450   2.710   1.261  16.741  0.2931  0.6264 -0.0124
18320TIP3    H176451   2.644   1.303  16.687 -1.2646 -1.7336 -0.0384
18320TIP3    H276452   2.780   1.238  16.680 -0.0613  0.7568 -0.4670
18321TIP3   OH276453   3.542   4.455   5.566 -0.2229  0.0507 -0.6364
18321TIP3    H176454   3.507   4.539   5.536 -0.5173 -0.1682 -0.9075
18321TIP3    H276455   3.616   4.438   5.506 -2.0993 -1.4021 -2.6055
18322TIP3   OH276456   1.181   6.336   0.813 -0.0299 -0.6469  0.0387
18322TIP3    H176457   1.148   6.416   0.855 -2.9957 -1.7327 -0.1641
18322TIP3    H276458   1.129   6.328   0.733 -1.3675 -4.0074  1.1828
18323TIP3   OH276459   1.435   5.679  13.450  0.0612 -0.2832  0.1975
18323TIP3    H176460   1.444   5.739  13.376 -0.9765 -3.1587 -2.3402
18323TIP3    H276461   1.354   5.706  13.493 -1.5240 -1.0755 -2.1562
18324TIP3   OH276462   2.543   6.107   5.741 -0.4812  0.5077 -0.0428
18324TIP3    H176463   2.502   6.102   5.654  1.6720  0.3824 -1.0894
18324TIP3    H276464   2.545   6.201   5.761  0.8257  0.7122 -1.0511
18325TIP3   OH276465   4.021   6.801   2.170  0.0525 -0.8760  0.4430
18325TIP3    H176466   4.090   6.831   2.112 -1.5032  1.6495 -0.1837
18325TIP3    H276467   3.964   6.748   2.115 -0.8214  0.6122 -0.1230
18326TIP3   OH276468   4.495   0.922  12.039 -0.0316 -0.4368 -0.4986
18326TIP3    H176469   4.537   0.872  11.970 -0.8791 -1.1171 -0.5284
18326TIP3    H276470   4.454   0.857  12.096 -0.0775  0.1560  0.1598
18327TIP3   OH276471   5.644   0.145  13.179  0.2775  0.8559 -0.5354
18327TIP3    H176472   5.581   0.112  13.244 -0.9912  3.2990 -0.4768
18327TIP3    H276473   5.595   0.147  13.097  1.1202  0.1921 -1.0605
18328TIP3   OH276474   2.840   6.640  13.198  0.5515  0.1747 -0.2216
18328TIP3    H176475   2.920   6.671  13.242 -0.0910  0.7655  0.5422
18328TIP3    H276476   2.777   6.628  13.269 -0.2466  0.3491 -0.8995
18329TIP3   OH276477   6.323   0.848   0.401 -0.2974  0.1223 -0.4032
18329TIP3    H176478   6.322   0.752   0.409 -2.2139  0.0424 -1.2475
18329TIP3    H276479   6.307   0.879   0.490  1.0698 -0.3128  0.0116
18330TIP3   OH276480   3.848   2.729  17.220  0.3964  0.4856  0.4094
18330TIP3    H176481   3.790   2.803  17.204  0.5803  0.1486 -1.8867
18330TIP3    H276482   3.811   2.657  17.168  2.5832  0.1438 -0.7339
18331TIP3   OH276483   2.173   4.639   4.098  0.1547  0.4584 -0.2311
18331TIP3    H176484   2.226   4.709   4.137  3.4328 -1.9763 -0.0991
18331TIP3    H276485   2.226   4.607   4.025 -0.8675 -2.4414  0.2343
18332TIP3   OH276486   0.633   4.768   3.843 -0.3304  0.1013  0.5081
18332TIP3    H176487   0.582   4.688   3.829 -0.6509  0.1607  1.3487
18332TIP3    H276488   0.724   4.738   3.846 -0.5561 -0.4274  2.3286
18333TIP3   OH276489   3.244   0.138  13.229 -0.2984 -0.1707 -0.4839
18333TIP3    H176490   3.330   0.119  13.265 -0.7246 -2.1550 -0.4737
18333TIP3    H276491   3.207   0.204  13.288 -0.3163 -2.1295  1.7801
18334TIP3   OH276492   3.778   4.425  12.408 -0.3422  0.8381 -0.3500
18334TIP3    H176493   3.855   4.377  12.378 -0.2569  0.8714 -0.1839
18334TIP3    H276494   3.732   4.449  12.328 -0.9749 -0.4938 -0.4039
18335TIP3   OH276495   0.749   3.825   5.387  0.4382 -0.5729  0.0830
18335TIP3    H176496   0.677   3.846   5.446  0.8861 -1.9719  1.1442
18335TIP3    H276497   0.750   3.730   5.382  2.1062 -0.5666 -0.0387
18336TIP3   OH276498   6.104   4.704  12.046  0.4820  0.4592 -0.2379
18336TIP3    H176499   6.161   4.634  12.077  0.2967 -0.3269 -1.6085
18336TIP3    H276500   6.018   4.664  12.040  0.0428  1.2718  0.5476
18337TIP3   OH276501   6.417   5.794  16.724  0.0604  0.4334  0.1145
18337TIP3    H176502   6.509   5.769  16.733  0.3136  1.0550 -0.7463
18337TIP3    H276503   6.419   5.878  16.679 -0.9600  0.1513 -0.4664
18338TIP3   OH276504   4.287   1.936  11.363 -0.1767 -0.0838 -0.5771
18338TIP3    H176505   4.289   2.004  11.296 -1.1600  1.5017  0.9554
18338TIP3    H276506   4.228   1.870  11.328  0.4847  0.0220 -1.9232
18339TIP3   OH276507   6.401   4.877  17.177 -0.8624  0.1891 -0.0115
18339TIP3    H176508   6.392   4.907  17.086 -1.4790 -0.5329 -0.2006
18339TIP3    H276509   6.379   4.954  17.230 -1.0725  0.4537 -0.4798
18340TIP3   OH276510   3.710   4.655   0.420 -0.1349 -0.6501  0.4112
18340TIP3    H176511   3.740   4.649   0.510  1.3926 -2.5652 -0.1857
18340TIP3    H276512   3.788   4.641   0.367 -0.8220  1.4366 -1.2499
18341TIP3   OH276513   5.378   3.678  15.781  0.2619 -0.0833 -0.0929
18341TIP3    H176514   5.435   3.614  15.739  0.1935 -0.5868  0.5818
18341TIP3    H276515   5.438   3.747  15.811  0.3981 -0.1141 -0.2924
18342TIP3   OH276516   1.662   5.139   2.876 -0.2564 -0.4477  0.2776
18342TIP3    H176517   1.612   5.198   2.820  0.3546 -0.6806 -0.5258
18342TIP3    H276518   1.662   5.182   2.962  0.2976  0.7903 -0.3280
18343TIP3   OH276519   4.099   4.193   4.593 -0.4881  0.4276 -0.6638
18343TIP3    H176520   4.137   4.277   4.567  1.5603  0.1017  1.1679
18343TIP3    H276521   4.076   4.204   4.685  3.2743 -2.1387  0.7070
18344TIP3   OH276522   4.308   3.761  13.886 -0.6800  0.0100 -0.4138
18344TIP3    H176523   4.389   3.723  13.919 -1.1405 -1.4259 -0.8534
18344TIP3    H276524   4.330   3.793  13.799 -1.0019 -2.0669 -1.2922
18345TIP3   OH276525   6.609   5.584   4.379 -0.2409 -0.1707 -0.2426
18345TIP3    H176526   6.516   5.606   4.370 -0.5267 -1.7946 -1.4194
18345TIP3    H276527   6.619   5.558   4.470 -0.9609 -0.0750 -0.1343
18346TIP3   OH276528   4.551   3.115  11.609  0.2475  0.3880 -0.3387
18346TIP3    H176529   4.532   3.202  11.572  0.8230  0.1900 -1.1069
18346TIP3    H276530   4.465   3.073  11.616  0.2121  0.0511 -2.4202
18347TIP3   OH276531   0.295   1.533  12.732  0.2037 -0.8213 -0.0149
18347TIP3    H176532   0.381   1.565  12.759 -0.4405  1.2736 -0.3715
18347TIP3    H276533   0.269   1.472  12.800  1.0595  0.1475  1.1910
18348TIP3   OH276534   1.128   2.895   5.740  0.0594 -0.5229 -0.3273
18348TIP3    H176535   1.151   2.945   5.819 -1.8988  0.1861 -0.1820
18348TIP3    H276536   1.151   2.805   5.762  0.8976 -0.1170  0.5105
18349TIP3   OH276537   1.061   2.967   2.995 -0.2078  0.9232  0.0626
18349TIP3    H176538   1.087   3.044   3.046  2.2457 -0.0483  0.3237
18349TIP3    H276539   1.079   2.893   3.053  0.0080 -0.0264 -1.2029
18350TIP3   OH276540   1.776   0.861  15.087  0.3045 -0.0747  0.2434
18350TIP3    H176541   1.859   0.904  15.068 -0.3488  1.3202  0.4699
18350TIP3    H276542   1.721   0.880  15.012 -0.0609 -0.3461  0.4379
18351TIP3   OH276543   3.863   0.604  12.276  0.5312 -0.0499  0.0210
18351TIP3    H176544   3.834   0.513  12.271  0.0737  0.0932  0.1060
18351TIP3    H276545   3.953   0.601  12.243 -0.1134 -0.2303 -1.7725
18352TIP3   OH276546   3.505   5.125   0.298  0.1828 -0.1833 -0.2254
18352TIP3    H176547   3.427   5.092   0.343  0.3916 -0.7439 -0.2632
18352TIP3    H276548   3.527   5.056   0.235  0.9617 -0.2325  0.0914
18353TIP3   OH276549   4.778   2.029   5.916  0.1845 -0.1624  0.3934
18353TIP3    H176550   4.715   2.054   5.849 -0.2606  0.7211  1.1402
18353TIP3    H276551   4.735   2.049   5.999  0.9286 -0.7857  0.9414
18354TIP3   OH276552   1.960   1.482  15.935 -0.6342  0.2012 -0.4562
18354TIP3    H176553   1.928   1.547  15.998 -0.1348 -1.5157  1.6210
18354TIP3    H276554   1.915   1.401  15.959  0.8463 -0.8734 -1.2196
18355TIP3   OH276555   3.524   3.397   2.740  0.0578  0.3618  0.2021
18355TIP3    H176556   3.522   3.302   2.748  2.0182  0.2046 -0.6904
18355TIP3    H276557   3.434   3.425   2.754 -0.5827 -1.6497  0.2189
18356TIP3   OH276558   5.781   4.530   3.877  0.0924 -0.0091 -0.0156
18356TIP3    H176559   5.805   4.439   3.892  0.6444  0.2521  0.7193
18356TIP3    H276560   5.729   4.528   3.796  2.6796 -0.5727 -1.7338
18357TIP3   OH276561   3.195   4.356  12.705  0.2951  0.0068 -0.1772
18357TIP3    H176562   3.166   4.440  12.740 -1.2812  0.0349 -1.4869
18357TIP3    H276563   3.283   4.373  12.671  0.7605  0.6283  1.3063
18358TIP3   OH276564   0.524   1.816   2.316  0.1989  0.5726  0.0525
18358TIP3    H176565   0.553   1.799   2.226  0.3086  1.3395 -0.0612
18358TIP3    H276566   0.605   1.826   2.366  0.1388 -0.2242  0.3103
18359TIP3   OH276567   2.997   5.644  10.746 -0.3951  0.0166 -0.2620
18359TIP3    H176568   3.013   5.641  10.652 -1.3180 -1.0722 -0.3910
18359TIP3    H276569   2.939   5.570  10.763 -0.4044  0.3306  1.1312
18360TIP3   OH276570   6.292   6.556   2.985  0.1761 -0.0705  0.4419
18360TIP3    H176571   6.376   6.601   2.979  0.7441 -1.1976 -0.0822
18360TIP3    H276572   6.270   6.558   3.078 -0.9193  3.2866  0.1729
18361TIP3   OH276573   1.058   1.084  16.303  0.1637 -0.0118  0.1128
18361TIP3    H176574   1.132   1.089  16.243  0.2805 -0.8499  0.1802
18361TIP3    H276575   0.992   1.033  16.256 -0.8706  1.8307 -0.4568
18362TIP3   OH276576   2.301   1.658  16.132  0.1159 -0.5214  0.1740
18362TIP3    H176577   2.248   1.674  16.053  0.4791  1.6839  0.3266
18362TIP3    H276578   2.380   1.709  16.118  0.7026 -1.0589  1.4651
18363TIP3   OH276579   6.449   6.618   4.563 -0.1875  0.0849  0.7191
18363TIP3    H176580   6.464   6.705   4.602 -0.9489  0.5732 -0.0528
18363TIP3    H276581   6.427   6.562   4.637 -2.6006  1.2410  0.9060
18364TIP3   OH276582   5.219   5.014  11.920  0.0612  0.2909 -0.5180
18364TIP3    H176583   5.201   5.012  11.826 -0.9820 -0.7803 -0.2987
18364TIP3    H276584   5.149   4.962  11.960  1.0011 -0.0233  0.7758
18365TIP3   OH276585   1.608   2.390   4.508  0.0694  0.4155  0.1718
18365TIP3    H176586   1.587   2.347   4.590 -2.0213  0.8108 -0.1325
18365TIP3    H276587   1.553   2.468   4.506  0.2189  0.5096 -1.5177
18366TIP3   OH276588   6.480   2.851  16.934 -0.3844 -0.0174 -0.1214
18366TIP3    H176589   6.391   2.818  16.951 -0.7350  1.0272  0.1085
18366TIP3    H276590   6.529   2.829  17.012 -0.6047 -0.0292  0.0131
18367TIP3   OH276591   5.753   1.126   4.490  0.0872 -0.3074  0.6530
18367TIP3    H176592   5.795   1.118   4.576 -2.0659 -0.9376  1.6829
18367TIP3    H276593   5.758   1.038   4.453 -0.5599 -0.4591  0.9115
18368TIP3   OH276594   3.670   0.832   6.578  0.0376  0.5091 -0.0637
18368TIP3    H176595   3.746   0.882   6.607 -0.7616  1.4606  0.4415
18368TIP3    H276596   3.595   0.886   6.603 -0.7815 -0.0638 -1.2095
18369TIP3   OH276597   6.738   4.166   3.556 -0.0396  0.5612 -0.1743
18369TIP3    H176598   6.759   4.226   3.484  0.2118  0.5130 -0.1410
18369TIP3    H276599   6.679   4.216   3.612  0.1991  0.7901 -0.1263
18370TIP3   OH276600   4.507   5.751  13.120  0.6366 -0.8033  0.0532
18370TIP3    H176601   4.515   5.824  13.181 -0.0718 -1.2379  0.6866
18370TIP3    H276602   4.468   5.789  13.042 -0.4402 -0.6305  0.6543
18371TIP3   OH276603   3.061   0.688   6.335  0.3726 -0.2875  0.2897
18371TIP3    H176604   3.037   0.697   6.427 -0.8388 -0.6545  0.0295
18371TIP3    H276605   3.111   0.767   6.315  0.3530 -0.0439  1.1678
18372TIP3   OH276606   5.552   3.065   3.727  0.0246 -0.3918  0.2445
18372TIP3    H176607   5.623   3.050   3.666  1.1891 -1.3327  1.7774
18372TIP3    H276608   5.588   3.125   3.792 -0.7971 -0.3442  0.6641
18373TIP3   OH276609   3.993   3.486  13.314 -0.1521 -0.3682  0.4299
18373TIP3    H176610   4.042   3.527  13.242 -0.2413  3.2752  2.3435
18373TIP3    H276611   4.057   3.479  13.385 -1.4190  1.0492  1.7353
18374TIP3   OH276612   4.003   0.393  12.856 -0.6608 -0.1321 -0.2332
18374TIP3    H176613   4.075   0.350  12.902 -1.4386 -0.8269  0.3526
18374TIP3    H276614   4.046   0.455  12.797  0.3219  1.8033  2.4204
18375TIP3   OH276615   3.800   4.395   2.138  0.2603  0.4897 -0.5545
18375TIP3    H176616   3.808   4.352   2.053  1.6529  1.5796 -1.0075
18375TIP3    H276617   3.786   4.324   2.200 -2.0462 -0.2106 -1.8362
18376TIP3   OH276618   1.027   5.395   4.667 -0.0026 -0.2216  0.2753
18376TIP3    H176619   0.961   5.438   4.721 -1.5086 -2.3818  0.2699
18376TIP3    H276620   1.011   5.301   4.680  0.7922 -0.8059 -2.4436
18377TIP3   OH276621   1.625   6.341   1.561 -0.2986  0.3975 -0.1531
18377TIP3    H176622   1.717   6.346   1.587 -0.0911 -0.4796 -0.6896
18377TIP3    H276623   1.580   6.303   1.636  0.2589 -1.9080 -0.9565
18378TIP3   OH276624   1.676   1.076   5.405  0.3232  0.2716 -0.3694
18378TIP3    H176625   1.594   1.035   5.379  0.9865 -1.0536 -0.4626
18378TIP3    H276626   1.694   1.041   5.492  1.4236 -0.4550 -0.8736
18379TIP3   OH276627   2.248   6.322  15.064 -0.2214  0.6296  0.4924
18379TIP3    H176628   2.177   6.346  15.005  2.4234 -0.7449 -3.4477
18379TIP3    H276629   2.256   6.227  15.055  2.4598  0.8262  0.3960
18380TIP3   OH276630   2.710   1.468   1.909 -0.0815 -0.9236  0.2810
18380TIP3    H176631   2.765   1.517   1.970 -1.1947 -0.2809  0.7780
18380TIP3    H276632   2.624   1.465   1.951 -0.8180 -0.6193 -1.1695
18381TIP3   OH276633   4.683   5.290   3.090 -0.2389 -0.1010 -0.1467
18381TIP3    H176634   4.605   5.345   3.079 -0.0682  0.1451 -0.1282
18381TIP3    H276635   4.672   5.220   3.026 -0.2825  0.1529 -0.4181
18382TIP3   OH276636   6.792   3.576   3.515 -0.3520  0.4491 -0.0017
18382TIP3    H176637   6.846   3.651   3.489 -0.2093 -0.0111 -1.0654
18382TIP3    H276638   6.752   3.546   3.433  1.2541 -1.9313  0.0346
18383TIP3   OH276639   6.442   1.877  17.213  0.2412 -0.0321 -0.4088
18383TIP3    H176640   6.358   1.882  17.167  0.3629 -1.7884 -0.8725
18383TIP3    H276641   6.505   1.919  17.153 -0.1026  0.2416 -0.5781
18384TIP3   OH276642   6.266   2.967   2.768 -0.3530 -0.1761 -0.3558
18384TIP3    H176643   6.351   2.947   2.807  0.0498 -1.6714 -1.9470
18384TIP3    H276644   6.202   2.940   2.834  0.3893  1.7407  1.2066
18385TIP3   OH276645   2.743   6.433   2.016  0.0438  0.4426  0.4971
18385TIP3    H176646   2.760   6.377   1.940 -1.5807  2.6446 -1.6096
18385TIP3    H276647   2.724   6.373   2.087 -2.8964 -1.7608 -1.9751
18386TIP3   OH276648   1.969   5.811   5.504  0.2483  0.3390  0.4237
18386TIP3    H176649   1.926   5.802   5.419  1.3254 -1.1791  0.0216
18386TIP3    H276650   1.998   5.902   5.507  0.8101  0.2135 -1.1217
18387TIP3   OH276651   1.329   3.725   4.715  0.4101 -0.5520  0.3274
18387TIP3    H176652   1.276   3.727   4.636 -0.3019  1.1806  0.8237
18387TIP3    H276653   1.276   3.675   4.778 -0.6599  1.1314  0.8088
18388TIP3   OH276654   3.823   4.095   3.512  0.1284 -0.2506 -0.1186
18388TIP3    H176655   3.835   4.174   3.458  0.5715  0.3493  0.8338
18388TIP3    H276656   3.767   4.124   3.584 -0.4752 -1.0508 -0.2648
18389TIP3   OH276657   1.445   2.905   2.221 -0.5045  0.3744 -0.2301
18389TIP3    H176658   1.395   2.969   2.171 -3.1203 -0.0264  1.7382
18389TIP3    H276659   1.426   2.821   2.179  0.2648  0.4794 -0.7943
18390TIP3   OH276660   0.429   3.262   5.885  0.2450  0.1651  0.2930
18390TIP3    H176661   0.477   3.220   5.813  0.1184  0.2056  0.1843
18390TIP3    H276662   0.339   3.233   5.874  0.1831  0.3480  0.3025
18391TIP3   OH276663   0.246   6.285  13.351  0.5857 -1.1102 -0.1440
18391TIP3    H176664   0.195   6.232  13.412  0.6294 -0.4961  0.4331
18391TIP3    H276665   0.192   6.363  13.336  0.7226 -1.1055 -0.6328
18392TIP3   OH276666   4.701   3.513  14.849 -0.2588  0.1286 -0.1363
18392TIP3    H176667   4.645   3.588  14.865 -0.7348  0.2551 -2.2136
18392TIP3    H276668   4.726   3.481  14.936 -1.1763  1.8349  0.7555
18393TIP3   OH276669   4.668   3.036  10.444 -0.1375 -0.3958  0.1993
18393TIP3    H176670   4.736   3.074  10.499  0.8026  0.1105 -1.2582
18393TIP3    H276671   4.710   3.026  10.358 -0.7889 -3.4996  0.2024
18394TIP3   OH276672   3.518   0.015   1.436 -0.4958 -0.4069 -0.4963
18394TIP3    H176673   3.473   0.081   1.488  1.2412 -0.6018  1.3115
18394TIP3    H276674   3.534  -0.057   1.498  0.4819 -1.1684 -1.6243
18395TIP3   OH276675   1.516   5.544   2.879  0.1207 -0.7503  0.8815
18395TIP3    H176676   1.430   5.580   2.858  0.7221  0.3657  0.2663
18395TIP3    H276677   1.550   5.602   2.948  1.1452 -0.0595 -0.1916
18396TIP3   OH276678   2.494   3.954  12.393  0.6719  0.0939  0.1238
18396TIP3    H176679   2.448   4.035  12.370  0.6556 -0.2389 -1.0225
18396TIP3    H276680   2.485   3.948  12.488 -0.6811  0.6290  0.0437
18397TIP3   OH276681   1.867   4.358   5.439  0.6378  0.4129  0.1743
18397TIP3    H176682   1.775   4.381   5.426  0.3191  0.3141  2.0704
18397TIP3    H276683   1.896   4.415   5.511  2.3640  1.2064 -1.1233
18398TIP3   OH276684   3.374   2.246  16.378 -0.6324 -0.0740  0.4472
18398TIP3    H176685   3.351   2.327  16.332 -3.8493 -1.6880 -0.9470
18398TIP3    H276686   3.301   2.232  16.439  1.2139 -0.5543  2.6144
18399TIP3   OH276687   3.264   0.978  16.426 -0.2656  0.8274  0.1360
18399TIP3    H176688   3.324   1.026  16.483  1.9566 -0.8827 -0.6895
18399TIP3    H276689   3.320   0.923  16.372 -2.5611 -0.5446 -0.9593
18400TIP3   OH276690   0.681   1.263   5.245  0.1886 -0.1410 -0.4460
18400TIP3    H176691   0.622   1.294   5.177 -1.0151 -0.2301  0.5402
18400TIP3    H276692   0.700   1.172   5.222  1.0144  0.2907 -1.4901
18401TIP3   OH276693   4.661   2.560   3.166  0.4071  0.0647 -0.9766
18401TIP3    H176694   4.592   2.506   3.128 -1.4942  2.2581 -0.7347
18401TIP3    H276695   4.665   2.533   3.257 -0.4392  0.2296 -0.8875
18402TIP3   OH276696   2.656   5.147  13.277 -0.3002  0.5932  0.4152
18402TIP3    H176697   2.722   5.191  13.223 -1.1999  0.6218 -0.6684
18402TIP3    H276698   2.685   5.056  13.280 -0.2425  0.5970 -0.0945
18403TIP3   OH276699   2.418   1.654  16.778  0.2895 -0.3978 -0.4463
18403TIP3    H176700   2.442   1.636  16.687  0.3886 -1.0633 -0.2896
18403TIP3    H276701   2.441   1.746  16.791 -0.8561  0.0390 -1.4547
18404TIP3   OH276702   3.723   6.296  13.341 -0.0744  0.0735  0.2985
18404TIP3    H176703   3.672   6.365  13.298  1.8653  2.7778  2.1545
18404TIP3    H276704   3.813   6.310  13.311  0.6651 -0.3817  2.2594
18405TIP3   OH276705   1.195   0.182  16.007 -0.0141  0.4226 -0.0871
18405TIP3    H176706   1.250   0.111  16.038 -2.7335 -1.0898  1.5078
18405TIP3    H276707   1.107   0.143  16.000 -1.0865  2.9695 -1.6097
18406TIP3   OH276708   1.109   2.386  15.161 -0.2702 -0.7029  0.3372
18406TIP3    H176709   1.054   2.353  15.232  1.8724 -0.5326  2.1481
18406TIP3    H276710   1.125   2.478  15.183  2.0370 -1.1593  0.7789
18407TIP3   OH276711   4.138   3.624  13.109 -0.1336  0.0150 -0.0167
18407TIP3    H176712   4.212   3.568  13.133 -0.5916 -0.0608  1.2160
18407TIP3    H276713   4.162   3.659  13.023  1.1968 -0.2645  0.2298
18408TIP3   OH276714   1.933   0.908   4.957  0.1253 -0.2513 -0.4696
18408TIP3    H176715   1.931   0.957   5.040  2.3476 -0.9576  0.0395
18408TIP3    H276716   1.848   0.925   4.917 -0.7253  0.6616  1.6460
18409TIP3   OH276717   4.728   0.970   4.700 -0.3164  0.2418 -0.6141
18409TIP3    H176718   4.764   0.910   4.634 -0.6045 -0.2278 -0.3415
18409TIP3    H276719   4.633   0.956   4.696 -0.2011 -1.4793  1.5068
18410TIP3   OH276720   4.330   3.539  11.592 -0.1470 -0.2171  0.0026
18410TIP3    H176721   4.402   3.483  11.563 -1.0443 -1.0490 -0.6545
18410TIP3    H276722   4.253   3.505  11.546 -1.2572 -0.3643  1.9165
18411TIP3   OH276723   1.465   4.786  15.937 -0.2803  0.0304  0.3161
18411TIP3    H176724   1.427   4.802  16.024  0.0995  0.1153  0.4692
18411TIP3    H276725   1.538   4.727  15.954  0.7424  1.2612  0.2565
18412TIP3   OH276726   4.443   3.390   6.498  0.2186 -0.3770 -0.5941
18412TIP3    H176727   4.535   3.364   6.506 -0.4688 -2.5706  0.8773
18412TIP3    H276728   4.412   3.344   6.420  0.0574 -0.7245 -0.3311
18413TIP3   OH276729   0.289   4.111  13.381 -0.1481 -0.5032  0.0046
18413TIP3    H176730   0.254   4.027  13.411 -0.1042 -0.4206  0.2895
18413TIP3    H276731   0.288   4.105  13.286 -1.0204 -0.4732  0.0071
18414TIP3   OH276732   6.450   1.601  12.909  0.3477 -0.1729 -0.1992
18414TIP3    H176733   6.537   1.592  12.948  0.1612  0.0046  0.2593
18414TIP3    H276734   6.467   1.635  12.821  0.8451 -1.7059 -0.7162
18415TIP3   OH276735   2.525   2.107   0.178  0.3329  0.2585  0.1047
18415TIP3    H176736   2.575   2.188   0.167 -0.5296  0.7097 -0.5048
18415TIP3    H276737   2.566   2.045   0.117 -0.2553  0.8161 -0.8671
18416TIP3   OH276738   6.511   3.351   6.173 -0.2700 -0.1380 -0.1763
18416TIP3    H176739   6.505   3.279   6.235  1.9637 -0.0911  0.1343
18416TIP3    H276740   6.443   3.332   6.108 -0.0154 -2.2795  0.1416
18417TIP3   OH276741   0.955   2.766   3.182  0.0649 -0.4061  0.2362
18417TIP3    H176742   0.876   2.724   3.215 -0.0572 -0.5058 -0.1791
18417TIP3    H276743   0.996   2.700   3.127 -0.2304  0.0837 -0.5722
18418TIP3   OH276744   4.624   4.741   1.497 -0.2343 -0.2187 -0.6019
18418TIP3    H176745   4.670   4.812   1.453 -2.9165  0.0948 -3.0546
18418TIP3    H276746   4.538   4.739   1.455 -1.5591 -2.4084  2.1038
18419TIP3   OH276747   3.671   3.043   3.689  0.4404  0.3057  0.1713
18419TIP3    H176748   3.753   3.055   3.642 -0.8208  1.3379 -1.8339
18419TIP3    H276749   3.652   3.130   3.726  0.1142  0.1470  0.3795
18420TIP3   OH276750   6.507   5.813  13.176 -0.0719  0.2650 -0.3683
18420TIP3    H176751   6.552   5.805  13.092 -0.2571  1.4952 -0.5853
18420TIP3    H276752   6.482   5.723  13.197  0.9672 -0.2100 -1.0748
18421TIP3   OH276753   0.981   5.510   4.419  1.1106  0.3739  0.2426
18421TIP3    H176754   1.019   5.463   4.493  0.2844 -1.1195 -0.2425
18421TIP3    H276755   0.994   5.602   4.439 -1.1099  0.0899  3.3484
18422TIP3   OH276756   5.215   5.385  12.599  0.0081 -0.2364  0.2106
18422TIP3    H176757   5.148   5.319  12.615  0.6484 -0.6909  1.0372
18422TIP3    H276758   5.260   5.395  12.683  2.7728 -1.9501 -0.9818
18423TIP3   OH276759   5.187   6.112   3.162  1.4108  0.5059  0.2871
18423TIP3    H176760   5.181   6.202   3.130  1.3664  0.6435  0.6805
18423TIP3    H276761   5.181   6.120   3.258  0.2679  0.0041  0.2753
18424TIP3   OH276762   5.218   0.035   0.214 -0.1539 -0.2745 -0.4685
18424TIP3    H176763   5.289   0.090   0.181 -1.1082  1.7752  0.7811
18424TIP3    H276764   5.162   0.019   0.138  0.7040 -0.4113 -1.0714
18425TIP3   OH276765   4.239   5.563   0.008  0.2925 -0.0247 -0.3833
18425TIP3    H176766   4.250   5.562  -0.087 -0.1200  0.4040 -0.4358
18425TIP3    H276767   4.226   5.655   0.030  0.4810 -0.1102  0.1018
18426TIP3   OH276768   5.598   1.400   2.973 -0.2057  0.2992  0.1684
18426TIP3    H176769   5.662   1.445   2.918 -0.1833  0.4095  0.2847
18426TIP3    H276770   5.549   1.345   2.912  0.9106 -0.8430  0.2806
18427TIP3   OH276771   4.612   3.055   5.480 -0.9246 -0.4744  0.4263
18427TIP3    H176772   4.573   3.135   5.515  0.3686  0.0504  0.7042
18427TIP3    H276773   4.676   3.028   5.546  1.0199  0.1226 -1.1367
18428TIP3   OH276774   5.876   4.137   6.443  0.3980 -0.2372  0.8054
18428TIP3    H176775   5.922   4.183   6.513  1.3617 -0.6066  0.4378
18428TIP3    H276776   5.921   4.165   6.363 -0.5213 -0.0192  0.3622
18429TIP3   OH276777   4.651   3.804  16.268  0.3386 -0.0738 -0.1251
18429TIP3    H176778   4.714   3.768  16.206 -0.4911 -0.1653 -0.9252
18429TIP3    H276779   4.623   3.887  16.229  1.1200  0.7239  0.9872
18430TIP3   OH276780   1.525   2.717  12.195  0.0665  0.4663  0.5125
18430TIP3    H176781   1.528   2.793  12.252 -1.8493 -0.1518  1.4850
18430TIP3    H276782   1.508   2.643  12.254 -1.1465 -0.2826 -0.7356
18431TIP3   OH276783   2.256   1.406  14.669 -0.3462 -0.1503  0.6544
18431TIP3    H176784   2.183   1.417  14.608 -1.4470  1.2211  2.1769
18431TIP3    H276785   2.263   1.311  14.680 -0.8709 -0.3578 -0.7322
18432TIP3   OH276786   6.533   1.266  13.488  0.1289  0.2704  0.0961
18432TIP3    H176787   6.438   1.255  13.491  0.1223  0.1929 -0.3998
18432TIP3    H276788   6.552   1.293  13.398  0.4653  1.3455  0.4820
18433TIP3   OH276789   5.623   0.724   2.884 -0.1571  0.5002  0.0380
18433TIP3    H176790   5.713   0.698   2.867 -0.1994  0.2582  0.1826
18433TIP3    H276791   5.574   0.695   2.807 -0.0027  1.2136 -0.3409
18434TIP3   OH276792   5.010   2.463  13.000  0.0724  0.7414 -1.0283
18434TIP3    H176793   5.089   2.468  13.055  0.5201 -0.9771 -1.4784
18434TIP3    H276794   4.940   2.440  13.061  0.3091  0.1900 -0.9680
18435TIP3   OH276795   5.020   0.683  13.328  0.7328 -0.2298 -0.1219
18435TIP3    H176796   4.998   0.657  13.418  2.3502 -1.8444 -0.1742
18435TIP3    H276797   4.992   0.609  13.274  0.6693  0.3250 -0.8579
18436TIP3   OH276798   4.472   6.062  11.371  0.0508  0.3555  0.0067
18436TIP3    H176799   4.417   6.125  11.417  0.9643 -0.0512  1.6847
18436TIP3    H276800   4.459   6.083  11.278 -0.4793  2.3148  0.4905
18437TIP3   OH276801   3.048   6.104  12.914 -0.4392  0.2488 -0.7318
18437TIP3    H176802   3.095   6.187  12.923 -0.9324  0.6696 -1.9156
18437TIP3    H276803   3.098   6.054  12.850 -0.1002 -0.4064  0.0349
18438TIP3   OH276804   4.941   5.006   4.364 -0.2020 -0.3646  0.5767
18438TIP3    H176805   4.909   4.943   4.300 -0.8379 -0.2618  0.7868
18438TIP3    H276806   5.009   4.959   4.412  2.8833  0.6870 -2.5436
18439TIP3   OH276807   5.682   0.404  12.518 -0.0915  0.0643 -0.4798
18439TIP3    H176808   5.700   0.366  12.603  1.7905  2.5705  0.2878
18439TIP3    H276809   5.608   0.353  12.484 -0.1092 -1.7081  2.1096
18440TIP3   OH276810   1.097   1.075   0.708 -0.3168  0.2105 -0.2358
18440TIP3    H176811   1.167   1.136   0.687 -0.8039  0.5426 -0.9446
18440TIP3    H276812   1.042   1.074   0.629 -0.6206 -0.7184 -0.0269
18441TIP3   OH276813   1.055   3.005   4.645  0.0797 -0.3033  0.0561
18441TIP3    H176814   1.146   3.000   4.615  0.5037  0.3326  1.2128
18441TIP3    H276815   1.011   2.933   4.599  1.3030 -1.0102 -0.0393
18442TIP3   OH276816   0.570   6.197   1.298  0.5723  0.8569 -0.5722
18442TIP3    H176817   0.588   6.118   1.246  0.6663  1.4112 -1.3914
18442TIP3    H276818   0.614   6.181   1.381  1.1932  0.3391 -0.9939
18443TIP3   OH276819   6.526   2.250   3.848  0.0194  0.0326  0.3334
18443TIP3    H176820   6.588   2.308   3.891 -0.1843 -0.9310  1.9633
18443TIP3    H276821   6.530   2.169   3.899 -2.5502 -0.0374  0.4822
18444TIP3   OH276822   5.410   4.100   1.081 -0.2573 -0.2068 -0.2656
18444TIP3    H176823   5.493   4.053   1.096  0.5678  1.0731 -0.7402
18444TIP3    H276824   5.370   4.055   1.007  0.6531 -0.0243 -0.8820
18445TIP3   OH276825   2.603   0.530  12.609  0.0837 -0.0377 -0.9969
18445TIP3    H176826   2.653   0.610  12.624 -0.3904  0.3034 -1.2243
18445TIP3    H276827   2.606   0.517  12.514 -0.8045  0.3384 -1.0785
18446TIP3   OH276828   2.236   2.652   0.342  0.2031 -0.2964 -0.2906
18446TIP3    H176829   2.286   2.714   0.394 -0.5301 -0.0415  0.1248
18446TIP3    H276830   2.202   2.704   0.269 -0.1243 -0.2900 -0.1324
18447TIP3   OH276831   2.373   2.944   2.163 -0.1210  0.2322  0.2995
18447TIP3    H176832   2.324   2.930   2.244  0.9598 -0.1786  0.8919
18447TIP3    H276833   2.306   2.943   2.094 -1.1921  1.7218  1.2833
18448TIP3   OH276834   5.581   4.937   0.880 -0.0553 -0.2427  0.1543
18448TIP3    H176835   5.576   4.864   0.818 -0.7067 -2.3287  2.5834
18448TIP3    H276836   5.674   4.959   0.884  0.0167 -0.1394 -1.4344
18449TIP3   OH276837   2.915   5.988   2.452  0.2231 -0.6810 -0.0762
18449TIP3    H176838   2.996   5.959   2.493 -1.4060 -0.9945  3.0871
18449TIP3    H276839   2.867   5.907   2.434 -0.2537 -0.4187  0.0003
18450TIP3   OH276840   5.360   0.819  15.050  0.8014  0.2466 -0.6007
18450TIP3    H176841   5.342   0.834  14.957  1.2140 -1.9118 -1.0592
18450TIP3    H276842   5.279   0.783  15.085  0.5103  1.4464 -0.0110
18451TIP3   OH276843   4.800   4.779   3.341  0.0712 -0.5523  0.5295
18451TIP3    H176844   4.751   4.774   3.259  2.1575  0.6652 -0.8368
18451TIP3    H276845   4.762   4.854   3.387 -0.1728 -0.3727  0.0407
18452TIP3   OH276846   4.561   3.436  11.138 -0.2819 -0.6160  0.0881
18452TIP3    H176847   4.564   3.505  11.072  0.3640  0.1867  0.9382
18452TIP3    H276848   4.643   3.388  11.127  0.7440  0.7443  1.5812
18453TIP3   OH276849   4.342   6.383  13.328  0.1600  0.0229  0.2909
18453TIP3    H176850   4.410   6.383  13.395  1.0857  1.3867 -0.5991
18453TIP3    H276851   4.315   6.475  13.321  1.3504  0.2150 -2.4151
18454TIP3   OH276852   1.240   1.438  11.303  0.1579 -0.4717  1.0835
18454TIP3    H176853   1.251   1.515  11.247  0.3091 -0.0821  1.6359
18454TIP3    H276854   1.281   1.367  11.255  1.1971  0.0735  1.1472
18455TIP3   OH276855   0.076   5.400  17.146  0.3183  0.1785 -0.9261
18455TIP3    H176856   0.144   5.340  17.176 -0.5728 -1.3026 -1.7983
18455TIP3    H276857   0.014   5.344  17.100 -2.4808  1.2228  1.4616
18456TIP3   OH276858   0.136   4.588  15.790 -0.4810  0.3937 -0.2569
18456TIP3    H176859   0.218   4.633  15.808 -0.6673  0.7752 -0.3668
18456TIP3    H276860   0.081   4.653  15.747 -0.0870 -0.4488 -2.1051
18457TIP3   OH276861   5.920   3.951  14.549  0.3614 -0.2629 -0.0761
18457TIP3    H176862   5.870   3.982  14.473  0.0161  1.5513  0.8684
18457TIP3    H276863   5.870   3.876  14.581 -0.7182  0.3431 -0.3030
18458TIP3   OH276864   2.857   3.609   1.699  0.6989 -0.2389 -0.0212
18458TIP3    H176865   2.833   3.653   1.780 -1.1536 -2.4930  0.7137
18458TIP3    H276866   2.837   3.517   1.715  3.3521 -1.2160 -1.9185
18459TIP3   OH276867   3.367   3.140   1.430 -0.0335 -0.1321  0.1579
18459TIP3    H176868   3.355   3.221   1.380  0.9655 -1.2627 -1.9767
18459TIP3    H276869   3.280   3.099   1.429 -0.8182  1.3777  2.1742
18460TIP3   OH276870   5.942   3.048   1.046  0.4533 -0.0468  0.2746
18460TIP3    H176871   6.022   3.017   1.004 -0.0104 -1.3407  0.3076
18460TIP3    H276872   5.887   3.079   0.973  0.2916 -0.7888  0.0764
18461TIP3   OH276873   6.221   3.053  13.991 -0.0804 -0.2311  0.5551
18461TIP3    H176874   6.273   3.013  14.060  1.6620  2.1076  0.6638
18461TIP3    H276875   6.161   2.984  13.962  0.9565 -2.0162  2.5877
18462TIP3   OH276876   2.210   4.738  11.575 -0.2725  0.0099  0.1996
18462TIP3    H176877   2.219   4.726  11.670 -1.1770 -1.6076  0.0956
18462TIP3    H276878   2.223   4.650  11.538  0.4580  0.6884 -1.2140
18463TIP3   OH276879   2.700   2.161  16.838  0.1782 -0.0494  0.1667
18463TIP3    H176880   2.724   2.212  16.916  1.0633  1.4560 -1.0720
18463TIP3    H276881   2.637   2.216  16.791  0.2912 -0.5904 -0.6240
18464TIP3   OH276882   2.503   3.992  12.694 -0.1739 -0.8048  0.5379
18464TIP3    H176883   2.483   3.906  12.731 -0.8282 -1.2107 -0.7233
18464TIP3    H276884   2.524   4.047  12.770  1.8964 -2.4966  1.2424
18465TIP3   OH276885   1.520   2.994   6.204  0.5700  0.0281 -0.2169
18465TIP3    H176886   1.432   3.020   6.232 -0.0896 -0.7709 -1.5272
18465TIP3    H276887   1.507   2.951   6.120  2.4833  1.8798 -1.5105
18466TIP3   OH276888   1.409   5.546   1.274 -0.4000 -0.2354  0.1831
18466TIP3    H176889   1.341   5.609   1.249 -0.2202 -0.0759  0.0970
18466TIP3    H276890   1.419   5.557   1.368 -0.3396 -0.1045  0.1620
18467TIP3   OH276891   3.999   1.522   2.494  0.1296  0.1847  0.4522
18467TIP3    H176892   3.915   1.502   2.452 -0.4009 -0.0652  1.6161
18467TIP3    H276893   3.980   1.521   2.588  1.3036  0.7461  0.7055
18468TIP3   OH276894   6.188   6.529  14.872 -0.2573 -0.0466 -0.1878
18468TIP3    H176895   6.166   6.609  14.919 -1.2804  1.4285 -3.0387
18468TIP3    H276896   6.277   6.508  14.900  0.2692  2.4691  0.1017
18469TIP3   OH276897   2.339   2.234  16.966 -0.3466 -0.4474 -0.0244
18469TIP3    H176898   2.392   2.293  16.912 -2.9900  0.6887 -1.4799
18469TIP3    H276899   2.343   2.150  16.919  0.2622 -0.4065 -0.0551
18470TIP3   OH276900   4.482   0.204  15.919  0.0156 -0.2648 -0.0757
18470TIP3    H176901   4.439   0.281  15.957 -2.1919 -1.0440 -0.9282
18470TIP3    H276902   4.548   0.241  15.860  0.2135  0.9617  0.8823
18471TIP3   OH276903   4.835   5.933  15.197 -0.0490 -0.2731  0.1018
18471TIP3    H176904   4.814   5.982  15.117  0.7997  0.4375  0.2989
18471TIP3    H276905   4.896   5.865  15.167 -1.1173 -1.1247 -0.1488
18472TIP3   OH276906   5.121   5.155  16.402 -0.1402  0.2647  0.3680
18472TIP3    H176907   5.160   5.203  16.329 -0.6904  0.5699  0.2726
18472TIP3    H276908   5.158   5.196  16.480  2.8215 -2.0298  0.2586
18473TIP3   OH276909   3.283   1.127   3.343 -0.1867 -0.0602  0.1540
18473TIP3    H176910   3.209   1.167   3.299 -0.2767 -0.2499  0.1321
18473TIP3    H276911   3.339   1.095   3.272 -0.2198 -0.1636  0.1750
18474TIP3   OH276912   5.033   0.871   1.241  0.5108 -0.3134  0.4402
18474TIP3    H176913   5.114   0.874   1.190  0.5247 -1.5335  0.3609
18474TIP3    H276914   5.055   0.818   1.318  0.1096  0.3653  1.0283
18475TIP3   OH276915   3.376   0.690  15.673  0.4513  0.2409 -0.4576
18475TIP3    H176916   3.468   0.715  15.663 -0.2514  2.8382 -0.7496
18475TIP3    H276917   3.342   0.686  15.584  0.7058 -2.6456 -0.4885
18476TIP3   OH276918   4.713   2.932  15.555  0.0388  0.1467 -0.1639
18476TIP3    H176919   4.752   2.922  15.642 -0.1825 -0.5388 -0.1449
18476TIP3    H276920   4.785   2.912  15.495  0.1704  0.5451 -0.1412
18477TIP3   OH276921   0.493   1.562   5.998  0.4414  0.2661 -0.4122
18477TIP3    H176922   0.451   1.477   6.011  0.8114 -0.0488 -1.2011
18477TIP3    H276923   0.582   1.550   6.033 -0.3452  1.1738  1.9906
18478TIP3   OH276924   0.316   1.229   4.762  0.1069 -0.3280  0.3879
18478TIP3    H176925   0.344   1.144   4.796  1.7549  0.4560  1.0377
18478TIP3    H276926   0.374   1.246   4.688  0.4281  0.6765  0.8608
18479TIP3   OH276927   2.488   6.676  13.584  0.4562 -0.1359  0.3377
18479TIP3    H176928   2.405   6.629  13.593  0.2683 -0.1284 -1.2764
18479TIP3    H276929   2.469   6.765  13.613  0.2182 -0.4378  1.1323
18480TIP3   OH276930   5.487   4.344  11.218 -0.3170  0.7025 -0.2876
18480TIP3    H176931   5.582   4.342  11.230 -0.2858  3.1210  0.1700
18480TIP3    H276932   5.460   4.428  11.257 -2.8466 -0.6846  1.0957
18481TIP3   OH276933   5.316   4.770   0.870 -0.0870 -0.0507 -0.3045
18481TIP3    H176934   5.361   4.834   0.814  0.5344 -0.7646 -0.6312
18481TIP3    H276935   5.350   4.686   0.841  0.5566 -0.4103  1.4251
18482TIP3   OH276936   1.365   6.443   5.876  0.4545  0.5010  0.0963
18482TIP3    H176937   1.364   6.354   5.840  1.0486  0.6965 -0.4174
18482TIP3    H276938   1.298   6.442   5.944 -0.0587 -0.1353 -0.4046
18483TIP3   OH276939   0.103   3.947   3.554  0.0865  0.4586  0.7714
18483TIP3    H176940   0.063   3.889   3.619 -0.0625  1.9619  2.0336
18483TIP3    H276941   0.075   4.035   3.579 -1.1802  0.9656 -2.1822
18484TIP3   OH276942   0.859   0.602   1.709 -0.2495  0.2715  0.6175
18484TIP3    H176943   0.938   0.570   1.665  0.3048  1.6654  0.5802
18484TIP3    H276944   0.880   0.599   1.802  0.2878  1.7343  0.5586
18485TIP3   OH276945   4.750   3.647  14.620 -0.3024 -0.1792  0.0470
18485TIP3    H176946   4.698   3.725  14.642 -0.7176 -0.3453 -0.3298
18485TIP3    H276947   4.762   3.602  14.703 -0.4653  0.0468  0.1944
18486TIP3   OH276948   2.207   4.217   6.500  0.0012 -0.4477 -0.5983
18486TIP3    H176949   2.252   4.295   6.534 -1.0615  0.0809 -0.3696
18486TIP3    H276950   2.133   4.253   6.450 -1.8916 -1.3527  1.4793
18487TIP3   OH276951   0.122   6.128  14.131 -0.0964  0.1126 -0.5922
18487TIP3    H176952   0.044   6.126  14.075 -0.7382  0.2708  0.2892
18487TIP3    H276953   0.118   6.046  14.180 -0.2813  0.6049  0.2218
18488TIP3   OH276954   1.829   1.233   0.144  0.1801  0.2708  0.6873
18488TIP3    H176955   1.894   1.243   0.074 -0.4754 -0.2802  0.0079
18488TIP3    H276956   1.865   1.285   0.216  0.5203  1.4117 -0.2869
18489TIP3   OH276957   2.859   6.449  14.048  0.2644  0.2467 -0.4585
18489TIP3    H176958   2.792   6.436  14.114 -0.9982 -0.2835 -1.8155
18489TIP3    H276959   2.873   6.363  14.009  0.3875  0.7005 -1.4515
18490TIP3   OH276960   0.442   2.537   2.127 -0.1720 -0.4846 -0.4635
18490TIP3    H176961   0.504   2.499   2.065  1.1110 -0.5975  0.8478
18490TIP3    H276962   0.387   2.464   2.155  0.7116 -0.9116  0.2076
18491TIP3   OH276963   0.259   3.695  14.741 -0.5659 -0.2555  0.2798
18491TIP3    H176964   0.202   3.771  14.755 -0.2017  0.2693 -0.9760
18491TIP3    H276965   0.205   3.620  14.765 -0.8924  0.4060  1.6354
18492TIP3   OH276966   6.778   0.054  13.490 -0.3197 -0.9184  0.1589
18492TIP3    H176967   6.750   0.122  13.430  1.4877  0.0977  0.4275
18492TIP3    H276968   6.787   0.098  13.574  2.9916 -0.9377 -0.1206
18493TIP3   OH276969   0.117   0.200   0.001 -0.1353  0.7903 -0.1563
18493TIP3    H176970   0.024   0.206   0.024 -0.4674 -0.5347 -1.0857
18493TIP3    H276971   0.164   0.209   0.084 -1.1722 -0.4399  0.5778
18494TIP3   OH276972   0.976   0.390  17.091  0.1009 -0.5631 -0.1245
18494TIP3    H176973   1.019   0.386  17.177  1.7982  2.1044 -0.7587
18494TIP3    H276974   1.047   0.375  17.028 -0.4629  0.7488 -1.1090
18495TIP3   OH276975   1.319   5.191  14.062  0.2325 -0.3296 -0.3863
18495TIP3    H176976   1.251   5.206  13.997  2.2935 -1.6085 -2.9389
18495TIP3    H276977   1.365   5.275  14.068 -0.2401 -0.0798 -0.2670
18496TIP3   OH276978   6.327   5.213   2.541  0.9837  0.2193 -0.1321
18496TIP3    H176979   6.414   5.193   2.574  0.8231  2.2420  1.6312
18496TIP3    H276980   6.309   5.302   2.572 -1.6250 -0.1005 -0.5854
18497TIP3   OH276981   5.328   2.259   3.121  0.1607  0.6959  0.2605
18497TIP3    H176982   5.291   2.242   3.207 -1.1763 -0.8313 -0.5872
18497TIP3    H276983   5.378   2.179   3.100 -0.3392  0.6363 -0.7732
18498TIP3   OH276984   6.793   3.942   3.092 -0.0309 -0.0469  0.0873
18498TIP3    H176985   6.837   3.904   3.016 -0.6233 -0.3375 -0.1095
18498TIP3    H276986   6.863   3.953   3.156  0.1123 -1.6998  0.2414
18499TIP3   OH276987   3.947   0.444  11.673 -0.0198 -0.0771 -0.4261
18499TIP3    H176988   3.912   0.363  11.636 -0.9637 -0.0866  0.4657
18499TIP3    H276989   3.935   0.434  11.768  2.4018 -0.0763 -0.0918
18500TIP3   OH276990   4.764   4.692   0.420  0.4354  0.4947  0.6221
18500TIP3    H176991   4.707   4.752   0.373 -0.4418  0.3277  1.4371
18500TIP3    H276992   4.796   4.743   0.495  1.7168  0.7248 -0.0738
18501TIP3   OH276993   1.166   4.358   4.840 -0.0296  0.0436  0.0080
18501TIP3    H176994   1.155   4.349   4.935 -1.2936  0.8012 -0.0451
18501TIP3    H276995   1.154   4.269   4.806  1.4955 -0.4112  0.6479
18502TIP3   OH276996   5.006   3.571  14.759  0.6466  0.0530 -0.6318
18502TIP3    H176997   4.951   3.584  14.682  0.8101  1.9440 -0.4547
18502TIP3    H276998   5.018   3.659  14.795  1.5797 -0.6588  0.8590
18503TIP3   OH276999   4.467   6.568   4.985  0.0900 -0.1429  0.0412
18503TIP3    H177000   4.453   6.588   4.892 -0.4531 -1.0384 -0.0674
18503TIP3    H277001   4.474   6.654   5.026  2.1380  0.2868 -1.0816
18504TIP3   OH277002   2.369   5.519   1.959  0.6233 -0.3066  0.1630
18504TIP3    H177003   2.278   5.546   1.943  1.1999  0.9435 -1.1240
18504TIP3    H277004   2.369   5.426   1.938 -0.3051 -0.2530 -0.1315
18505TIP3   OH277005   5.612   6.395  14.059 -0.5973  0.3192  0.2494
18505TIP3    H177006   5.696   6.437  14.039 -1.0968  0.1370 -2.4012
18505TIP3    H277007   5.636   6.309  14.093  0.2969  0.0898 -0.9374
18506TIP3   OH277008   5.650   1.934  14.785  0.5151 -0.5664 -0.2395
18506TIP3    H177009   5.699   1.910  14.863  2.0216 -1.1438 -1.3331
18506TIP3    H277010   5.689   1.881  14.715  0.4797  1.3010 -1.7287
18507TIP3   OH277011   2.040   0.188   2.671  0.3055 -0.1580 -0.1387
18507TIP3    H177012   2.005   0.100   2.684 -0.5614  0.1376 -0.4206
18507TIP3    H277013   1.980   0.245   2.719  0.8341  0.2863  0.0009
18508TIP3   OH277014   2.835   5.833  16.700 -0.0924  0.6271 -0.1946
18508TIP3    H177015   2.854   5.871  16.785  1.1279 -0.0137 -0.1683
18508TIP3    H277016   2.826   5.739  16.717 -0.0433  0.5196 -0.7355
18509TIP3   OH277017   4.035   4.083   5.519 -0.2024  0.2189  0.1128
18509TIP3    H177018   4.116   4.106   5.474  0.4199 -0.7169  0.7403
18509TIP3    H277019   4.050   3.994   5.553 -1.2179  0.3111  0.8400
18510TIP3   OH277020   0.487   2.244  14.944 -0.2144 -0.5723  0.1083
18510TIP3    H177021   0.575   2.264  14.913 -0.1990 -0.1380  0.4269
18510TIP3    H277022   0.484   2.278  15.033  0.0851 -2.8075  0.9994
18511TIP3   OH277023   5.652   3.432  12.517 -0.3030 -0.3155 -0.2369
18511TIP3    H177024   5.600   3.404  12.593 -0.2147 -0.2319 -0.1466
18511TIP3    H277025   5.685   3.350  12.479  0.6660 -0.2826  0.5300
18512TIP3   OH277026   1.683   1.182   5.879  0.3972 -0.1599  0.0537
18512TIP3    H177027   1.697   1.247   5.809  0.7881 -0.8726 -0.5323
18512TIP3    H277028   1.769   1.141   5.890  0.3526 -0.0017  1.0093
18513TIP3   OH277029   4.965   0.810   6.049 -0.7711 -0.5804 -0.0355
18513TIP3    H177030   4.991   0.723   6.081 -1.7851 -1.0980 -0.5892
18513TIP3    H277031   4.991   0.870   6.119 -0.8890 -1.4404  0.7605
18514TIP3   OH277032   1.905   4.529  11.812 -0.1336  0.5953  0.7784
18514TIP3    H177033   1.915   4.433  11.812  0.5347  0.6355 -1.2650
18514TIP3    H277034   1.968   4.559  11.747 -1.4812  2.2882  0.2210
18515TIP3   OH277035   6.453   4.375   3.399  0.2681 -0.6592 -0.2087
18515TIP3    H177036   6.411   4.297   3.436  1.1777 -0.6561  0.8671
18515TIP3    H277037   6.415   4.384   3.311  1.2151 -3.1554 -0.9142
18516TIP3   OH277038   0.380   3.497   0.073 -0.2529 -0.3207 -0.2976
18516TIP3    H177039   0.405   3.424   0.129 -1.7966 -1.2733 -0.8233
18516TIP3    H277040   0.463   3.531   0.039  0.6602 -0.1267  2.0364
18517TIP3   OH277041   0.034   3.085  11.748  0.1721  0.2617  0.2502
18517TIP3    H177042   0.104   3.132  11.703 -0.4651  0.6258 -0.3629
18517TIP3    H277043   0.034   3.122  11.837 -0.1901  1.2660 -0.1661
18518TIP3   OH277044   6.259   3.109  15.496 -0.5266 -0.0682  0.2395
18518TIP3    H177045   6.233   3.045  15.563  0.1578 -0.6085 -0.0051
18518TIP3    H277046   6.198   3.093  15.423 -0.6906 -0.0894  0.3804
18519TIP3   OH277047   5.678   0.948   6.272  0.1447  0.1774 -0.5167
18519TIP3    H177048   5.725   0.980   6.194 -1.8682  1.2645 -1.3161
18519TIP3    H277049   5.658   1.027   6.322  0.6399 -0.4421  0.6773
18520TIP3   OH277050   4.393   3.803   0.158  0.1809 -0.1826  0.3684
18520TIP3    H177051   4.354   3.889   0.143  1.4931  0.2375 -0.7484
18520TIP3    H277052   4.430   3.808   0.246  3.0796  1.5275 -0.8792
18521TIP3   OH277053   0.647   2.058  14.627 -0.2124 -0.5656 -0.0253
18521TIP3    H177054   0.682   1.969  14.637  0.3372 -0.3267  0.1882
18521TIP3    H277055   0.563   2.056  14.673  1.1602 -0.1558  2.5724
18522TIP3   OH277056   1.820   2.771  14.226 -0.1482  0.4525 -0.5833
18522TIP3    H177057   1.834   2.785  14.320 -0.6885  0.2657 -0.4779
18522TIP3    H277058   1.830   2.858  14.187 -1.5062  0.8103 -0.1633
18523TIP3   OH277059   1.326   0.359   3.778  0.4592 -0.5717  0.0192
18523TIP3    H177060   1.418   0.370   3.804  0.0994 -2.2240  2.0390
18523TIP3    H277061   1.276   0.382   3.856 -0.7979 -1.4292 -0.5222
18524TIP3   OH277062   2.340   1.028   3.812  0.1397  0.3172  0.0815
18524TIP3    H177063   2.389   1.006   3.733 -0.2467  0.3379 -0.1640
18524TIP3    H277064   2.258   0.978   3.804 -0.0384  0.5741  0.3105
18525TIP3   OH277065   6.207   3.727  13.964 -0.2527 -0.2296 -0.3584
18525TIP3    H177066   6.278   3.769  13.915 -0.5195  0.7117  0.0683
18525TIP3    H277067   6.226   3.746  14.056 -1.1181  0.1126 -0.2469
18526TIP3   OH277068   1.367   0.795  16.873  0.0193 -0.3230 -0.3106
18526TIP3    H177069   1.278   0.827  16.888  0.7392  2.3930 -1.6432
18526TIP3    H277070   1.384   0.814  16.780  2.0208 -0.7410 -0.0478
18527TIP3   OH277071   5.578   5.929   1.893 -0.1413 -0.9606  0.2819
18527TIP3    H177072   5.576   5.881   1.976 -0.1383  0.7595  1.3181
18527TIP3    H277073   5.488   5.924   1.860 -0.0018 -2.1678  0.0736
18528TIP3   OH277074   2.762   4.055   1.373  0.5673 -0.0576  0.4756
18528TIP3    H177075   2.805   4.113   1.435  0.5414  0.4440  0.0234
18528TIP3    H277076   2.727   4.113   1.306 -1.4444 -0.3815  1.2093
18529TIP3   OH277077   1.588   0.352  13.451  0.1271 -0.2521 -0.7015
18529TIP3    H177078   1.656   0.420  13.451 -2.3188  2.3576  2.0651
18529TIP3    H277079   1.593   0.313  13.538 -2.3410  0.4479 -0.2137
18530TIP3   OH277080   0.584   3.137   2.514 -0.4092  0.9071  0.0529
18530TIP3    H177081   0.658   3.117   2.457  0.2107  1.4914  0.6432
18530TIP3    H277082   0.528   3.059   2.509  0.8839 -0.0721  0.6122
18531TIP3   OH277083   5.306   6.472   5.429  0.0201 -0.0517 -0.3436
18531TIP3    H177084   5.317   6.561   5.395  1.9615  0.2309  0.9152
18531TIP3    H277085   5.383   6.425   5.398 -0.2719 -0.8957  0.2131
18532TIP3   OH277086   6.212   0.815  14.423 -0.1372  0.0328  0.4974
18532TIP3    H177087   6.292   0.764  14.413  0.6908  1.5430 -0.9232
18532TIP3    H277088   6.241   0.906  14.414 -1.9289  0.6234  0.5267
18533TIP3   OH277089   4.652   0.712   5.729  0.4331  0.5668 -0.4602
18533TIP3    H177090   4.598   0.658   5.672  0.7461  0.7260 -0.9031
18533TIP3    H277091   4.724   0.655   5.755  1.4777  1.1743 -1.9824
18534TIP3   OH277092   0.267   4.000   3.852  0.0816 -0.4864 -0.2326
18534TIP3    H177093   0.323   3.985   3.775  2.4176  1.5230  1.0234
18534TIP3    H277094   0.252   4.095   3.853 -2.0643 -0.8067  0.3650
18535TIP3   OH277095   4.808   4.305  12.289  0.1277 -0.3627  0.1159
18535TIP3    H177096   4.780   4.218  12.260 -0.3000 -0.3065  0.3490
18535TIP3    H277097   4.903   4.305  12.278 -0.0125 -0.3784 -1.1754
18536TIP3   OH277098   3.760   3.150  12.717 -0.2636 -0.0529 -0.0438
18536TIP3    H177099   3.730   3.060  12.706 -0.6706  0.2131 -1.1922
18536TIP3    H277100   3.764   3.185  12.628 -1.4327  1.4918  0.4868
18537TIP3   OH277101   6.693   6.138   2.161  0.5127 -0.6118 -0.3756
18537TIP3    H177102   6.766   6.187   2.125  1.1050 -0.9811  0.3194
18537TIP3    H277103   6.641   6.113   2.085  1.1473 -0.4110 -0.8752
18538TIP3   OH277104   0.238   3.462   4.781  0.5194  0.0920 -0.0362
18538TIP3    H177105   0.316   3.513   4.804  0.8563  0.6754 -2.3139
18538TIP3    H277106   0.247   3.447   4.687 -2.5275  0.9111 -0.5040
18539TIP3   OH277107   0.944   2.361  15.822 -0.0764  0.1322  0.0528
18539TIP3    H177108   0.912   2.394  15.737 -1.8605  1.3136  1.1563
18539TIP3    H277109   0.872   2.308  15.855 -0.0702  1.0646  1.5915
18540TIP3   OH277110   4.844   1.876   1.526 -0.3490  0.4564  0.2419
18540TIP3    H177111   4.893   1.913   1.453 -2.6516  2.0688 -0.5454
18540TIP3    H277112   4.817   1.789   1.496  1.1859 -0.0504  0.3164
18541TIP3   OH277113   4.980   5.556  14.177 -0.0872 -0.5670  0.1625
18541TIP3    H177114   4.964   5.644  14.213  1.2769  0.8410 -2.5307
18541TIP3    H277115   5.034   5.572  14.099  0.3009 -3.8284 -0.2737
18542TIP3   OH277116   4.911   4.329   0.378 -0.3941 -0.3623  0.0147
18542TIP3    H177117   4.985   4.283   0.418 -0.1645 -1.6414 -1.8120
18542TIP3    H277118   4.930   4.422   0.392  1.3767 -0.6863 -0.0761
18543TIP3   OH277119   6.247   5.633   2.677 -0.4458 -0.1199  0.3033
18543TIP3    H177120   6.201   5.654   2.596 -0.3076 -0.1505  0.2180
18543TIP3    H277121   6.300   5.556   2.656 -0.3577 -0.0867  0.4038
18544TIP3   OH277122   0.281   0.174   1.635  0.1953  0.5387 -0.1487
18544TIP3    H177123   0.278   0.121   1.555 -0.4446  0.7405 -0.2630
18544TIP3    H277124   0.347   0.240   1.616 -1.3647  1.8229 -1.3095
18545TIP3   OH277125   3.144   0.391   2.128 -0.5894  0.2489 -0.2579
18545TIP3    H177126   3.123   0.438   2.208  1.2401 -0.0789  0.4422
18545TIP3    H277127   3.107   0.445   2.058 -3.3258 -0.1247  0.8526
18546TIP3   OH277128   0.002   0.699   4.648 -1.0221 -0.3219 -0.6832
18546TIP3    H177129   0.078   0.731   4.698 -0.2659 -0.1212 -1.9442
18546TIP3    H277130  -0.060   0.772   4.651 -2.0560 -1.2517  2.1258
18547TIP3   OH277131   2.270   4.967   6.376 -0.1024 -0.4050  0.7257
18547TIP3    H177132   2.192   4.911   6.376  0.7808 -1.6572  0.0448
18547TIP3    H277133   2.341   4.909   6.404  0.7814  0.4344  0.2377
18548TIP3   OH277134   1.414   4.920   2.103  0.4806 -0.2264  0.0322
18548TIP3    H177135   1.494   4.919   2.050  0.7882 -1.0029  0.5013
18548TIP3    H277136   1.418   5.002   2.151  0.9987 -0.2577  0.0490
18549TIP3   OH277137   1.386   2.470   4.105 -0.4524  0.6384  0.0905
18549TIP3    H177138   1.338   2.387   4.107 -1.0804  1.0215  0.6860
18549TIP3    H277139   1.415   2.477   4.014 -3.4450  1.4948 -0.8545
18550TIP3   OH277140   4.597   6.584   4.555  0.5686 -0.2165  0.1234
18550TIP3    H177141   4.564   6.633   4.479  1.2863 -1.8482 -1.2667
18550TIP3    H277142   4.691   6.599   4.555  0.5962 -0.3764  0.5805
18551TIP3   OH277143   1.768   6.702   5.342 -0.0213 -0.0469 -0.2829
18551TIP3    H177144   1.845   6.659   5.303  0.6892 -0.1983  1.2389
18551TIP3    H277145   1.792   6.714   5.434 -1.0100  1.8041 -0.2503
18552TIP3   OH277146   6.281   2.343  16.740 -0.7168 -0.0971  0.4176
18552TIP3    H177147   6.267   2.377  16.652 -0.0498  1.4375  0.8781
18552TIP3    H277148   6.319   2.256  16.727  0.0180  0.4002 -0.8044
18553TIP3   OH277149   2.891   1.652  10.994  0.2360 -0.6446  0.2322
18553TIP3    H177150   2.819   1.712  10.973 -1.6194 -2.4720  1.1570
18553TIP3    H277151   2.930   1.630  10.910  0.8593  1.7283 -0.1302
18554TIP3   OH277152   5.852   0.587  11.814 -0.4784  0.1111 -0.3511
18554TIP3    H177153   5.915   0.566  11.883 -2.7469 -1.4152  1.3233
18554TIP3    H277154   5.847   0.508  11.761  0.0574  0.7294 -1.3458
18555TIP3   OH277155   5.911   4.068  14.848 -0.5234 -0.5030 -0.4591
18555TIP3    H177156   5.822   4.053  14.817 -0.3728  0.3522 -1.2982
18555TIP3    H277157   5.967   4.020  14.786 -0.3121  0.0910 -0.7311
18556TIP3   OH277158   1.419   4.048   4.642  0.1374 -0.3722 -0.1579
18556TIP3    H177159   1.339   4.087   4.677  0.7749  0.4804  0.3858
18556TIP3    H277160   1.389   3.980   4.583 -1.0011  0.7412 -0.8902
18557TIP3   OH277161   6.549   6.495  12.652 -0.4746  0.2551 -0.0708
18557TIP3    H177162   6.537   6.589  12.658 -0.7576  0.3496 -1.8375
18557TIP3    H277163   6.614   6.483  12.583 -0.3597 -0.8312  0.2099
18558TIP3   OH277164   3.170   5.478  16.674  0.3471  0.5302  0.0119
18558TIP3    H177165   3.257   5.440  16.667 -0.2636 -1.2879  1.6809
18558TIP3    H277166   3.110   5.403  16.662 -0.9308  1.3297  1.2722
18559TIP3   OH277167   4.605   0.156   4.947 -0.1760  0.2155 -0.3893
18559TIP3    H177168   4.615   0.246   4.919  0.6465  0.7564  1.5234
18559TIP3    H277169   4.569   0.110   4.871  0.6507  1.8672 -1.8100
18560TIP3   OH277170   4.928   0.707  14.301  0.4828 -0.2422  0.1706
18560TIP3    H177171   4.992   0.663  14.245  0.4953 -0.1699  0.1269
18560TIP3    H277172   4.846   0.702  14.252  0.5080 -0.1194  0.1155
18561TIP3   OH277173   6.229   4.458  12.996  0.0342 -0.8283 -0.0902
18561TIP3    H177174   6.255   4.413  12.916  2.1506 -3.1460  1.7954
18561TIP3    H277175   6.195   4.388  13.053 -1.2358  0.7320  1.1322
18562TIP3   OH277176   3.050   6.732  15.273 -0.2106 -0.4497 -0.4081
18562TIP3    H177177   3.131   6.686  15.254  0.4346  0.1244  0.9005
18562TIP3    H277178   2.982   6.681  15.228  0.9301 -0.5997 -1.9754
18563TIP3   OH277179   0.196   5.684  11.877 -0.3630  0.2122 -0.8961
18563TIP3    H177180   0.153   5.765  11.904 -0.4624  0.1733 -0.9365
18563TIP3    H277181   0.286   5.692  11.909 -0.3799  0.3265 -0.8779
18564TIP3   OH277182   3.280   0.194  11.678 -0.6656 -0.4141  0.2869
18564TIP3    H177183   3.188   0.198  11.703 -1.0983 -2.6858 -0.7797
18564TIP3    H277184   3.304   0.285  11.659 -1.6406  0.7029  4.0740
18565TIP3   OH277185   2.906   2.786  15.080  0.0474 -0.0308 -0.0001
18565TIP3    H177186   2.974   2.799  15.146 -0.1539 -0.7069  0.3507
18565TIP3    H277187   2.882   2.874  15.052 -0.5516  0.3010  1.5219
18566TIP3   OH277188   2.019   4.539   0.023  0.3058 -0.2088 -0.2863
18566TIP3    H177189   2.018   4.500  -0.064  0.6310 -1.3255  0.1997
18566TIP3    H277190   1.972   4.476   0.078  1.1184 -0.0815  0.5720
18567TIP3   OH277191   1.339   5.239  11.116 -0.6793  0.2439  0.7907
18567TIP3    H177192   1.271   5.293  11.074 -0.8028 -1.0676 -0.7558
18567TIP3    H277193   1.409   5.301  11.137 -0.6390  0.9905 -1.3595
18568TIP3   OH277194   4.103   6.055   4.256  0.2727  0.4373 -0.4422
18568TIP3    H177195   4.137   6.122   4.196 -0.9128  0.7091 -0.8398
18568TIP3    H277196   4.016   6.034   4.220  0.3850 -0.8580  0.0411
18569TIP3   OH277197   3.804   3.242  10.441  0.6802 -0.6607 -0.0270
18569TIP3    H177198   3.887   3.264  10.398  1.0089 -0.4937  0.6921
18569TIP3    H277199   3.743   3.311  10.412  1.5951  0.9919  1.8878
18570TIP3   OH277200   5.501   0.905  16.286  0.5060 -0.3479 -0.2346
18570TIP3    H177201   5.412   0.927  16.257  1.1031  2.5126 -0.0517
18570TIP3    H277202   5.492   0.891  16.380  0.1189 -0.8710 -0.3457
18571TIP3   OH277203   5.020   3.973  15.955 -0.4913 -0.2984 -0.0463
18571TIP3    H177204   5.042   3.957  16.046  0.2441 -0.0291 -0.1706
18571TIP3    H277205   5.004   4.067  15.951  1.6455  0.0698 -0.6251
18572TIP3   OH277206   4.004   2.996   0.154 -0.5153  0.3638 -0.1700
18572TIP3    H177207   3.912   2.971   0.159 -0.4422  0.1315  0.0526
18572TIP3    H277208   4.016   3.026   0.064  0.0491 -3.1071 -1.3217
18573TIP3   OH277209   2.351   3.131   1.779  0.8406 -0.7248  0.2121
18573TIP3    H177210   2.291   3.063   1.808  0.7953 -0.9177 -0.3273
18573TIP3    H277211   2.336   3.204   1.840 -0.2631 -0.6012 -0.2004
18574TIP3   OH277212   2.143   4.282   0.836  0.6637 -0.1495  0.1891
18574TIP3    H177213   2.121   4.226   0.762  1.1480  0.0928 -0.1337
18574TIP3    H277214   2.106   4.367   0.814 -0.1390 -0.3555  0.7141
18575TIP3   OH277215   5.948   6.305   4.032 -0.5972 -0.1822  0.2521
18575TIP3    H177216   5.877   6.338   4.086  0.1853 -0.1104  1.2630
18575TIP3    H277217   5.992   6.384   4.000  1.2238 -0.1930  2.6011
18576TIP3   OH277218   5.619   5.887   2.711  0.3697  0.2760  0.2687
18576TIP3    H177219   5.611   5.797   2.742 -1.5541  0.0600 -0.7376
18576TIP3    H277220   5.607   5.941   2.789 -2.0683 -0.3005  0.3436
18577TIP3   OH277221   3.619   3.467  11.062 -0.3891  0.1584 -0.0291
18577TIP3    H177222   3.675   3.409  11.010  0.3716  0.4741  0.4175
18577TIP3    H277223   3.562   3.509  10.998 -0.7755 -0.8819 -0.3870
18578TIP3   OH277224   1.777   3.408  13.645  0.5684 -0.6329  0.2787
18578TIP3    H177225   1.849   3.446  13.595 -1.0065  1.4739 -0.4524
18578TIP3    H277226   1.794   3.433  13.736  0.7232 -0.0833  0.0964
18579TIP3   OH277227   3.706   6.527  11.589  0.0426  0.3103 -0.0835
18579TIP3    H177228   3.723   6.436  11.612 -1.6494 -0.4544 -1.7008
18579TIP3    H277229   3.619   6.525  11.549  0.7876  2.3168 -1.8934
18580TIP3   OH277230   2.698   2.848  13.503  0.2431  0.3473 -0.8869
18580TIP3    H177231   2.628   2.783  13.505  1.3030 -0.7823 -0.0313
18580TIP3    H277232   2.658   2.925  13.462 -1.6740 -0.0687  0.1435
18581TIP3   OH277233   0.685   0.672  12.960  0.3036 -0.3141  0.1231
18581TIP3    H177234   0.639   0.636  13.036 -1.6289  0.2885 -0.7389
18581TIP3    H277235   0.717   0.595  12.913  1.4955 -0.6950  1.4981
18582TIP3   OH277236   0.629   3.961  15.764  0.2582  0.0097  0.2069
18582TIP3    H177237   0.610   3.899  15.694  3.5815 -2.4890  1.3697
18582TIP3    H277238   0.554   3.956  15.823 -1.1802 -0.1075 -1.5975
18583TIP3   OH277239   4.570   5.803  11.355  0.4322  0.6970 -0.2842
18583TIP3    H177240   4.541   5.884  11.396  0.4934  0.8041 -0.4511
18583TIP3    H277241   4.660   5.792  11.385  0.6827  1.0943 -0.8621
18584TIP3   OH277242   6.241   1.093  17.130 -0.8280 -0.2733 -0.4316
18584TIP3    H177243   6.243   0.997  17.131 -2.3112 -0.3109 -0.0347
18584TIP3    H277244   6.325   1.118  17.169  0.2568 -1.3850 -1.9627
18585TIP3   OH277245   4.276   4.624  11.028  0.0643 -0.0996 -0.4672
18585TIP3    H177246   4.231   4.704  11.054  0.3750  0.3809 -1.4031
18585TIP3    H277247   4.331   4.649  10.954 -1.0905 -1.5182 -1.8448
18586TIP3   OH277248   1.186   1.041   2.547 -0.3577  0.2994  0.2193
18586TIP3    H177249   1.229   1.034   2.633 -0.5280  0.7946  0.3459
18586TIP3    H277250   1.144   1.127   2.548  0.1415  0.5545 -0.5966
18587TIP3   OH277251   3.891   2.664  12.982 -0.0038 -0.7742  0.1117
18587TIP3    H177252   3.827   2.679  13.050 -1.2439 -0.0323 -1.1947
18587TIP3    H277253   3.915   2.752  12.952  1.4200 -1.0517  0.3951
18588TIP3   OH277254   3.924   4.854   3.725  0.2505  0.1232  0.7747
18588TIP3    H177255   3.891   4.830   3.811  2.2625  0.4537  1.6631
18588TIP3    H277256   3.873   4.932   3.702 -1.8239 -1.2108  0.6661
18589TIP3   OH277257   6.222   3.342   1.852  0.1244 -0.0892 -0.1552
18589TIP3    H177258   6.305   3.297   1.841  1.0333  1.7134 -0.9840
18589TIP3    H277259   6.161   3.296   1.794  0.6874 -1.0485  0.0088
18590TIP3   OH277260   0.047   2.807   1.895  0.1384 -0.0341  0.3938
18590TIP3    H177261   0.030   2.787   1.987 -0.4776  0.1310  0.3171
18590TIP3    H277262   0.118   2.871   1.897 -1.0149  1.2406  0.8273
18591TIP3   OH277263   0.436   1.079  15.655 -0.4673 -0.5363  0.1903
18591TIP3    H177264   0.526   1.110  15.659 -0.9654  1.0424 -0.3590
18591TIP3    H277265   0.440   0.989  15.686  0.9631  0.2038  2.2996
18592TIP3   OH277266   4.281   0.374   4.848 -0.3917 -0.5791 -0.0945
18592TIP3    H177267   4.298   0.406   4.937 -1.4407  0.4248 -0.2489
18592TIP3    H277268   4.288   0.278   4.855 -1.5143 -0.5638  1.2850
18593TIP3   OH277269   5.519   1.195  12.298  0.5292  0.1269 -0.4464
18593TIP3    H177270   5.528   1.141  12.220  0.9812 -0.5592  0.0805
18593TIP3    H277271   5.608   1.223  12.319  0.4047  0.3456 -0.1954
18594TIP3   OH277272   5.106   1.051  15.213 -0.1303  0.3042  0.5538
18594TIP3    H177273   5.042   1.049  15.141  0.9676  0.1694 -0.4463
18594TIP3    H277274   5.138   0.961  15.217  1.8358  0.9172 -0.6698
18595TIP3   OH277275   0.794   6.451   4.332  0.1718 -0.3771  0.3197
18595TIP3    H177276   0.876   6.425   4.375  1.5749  0.1273 -1.9496
18595TIP3    H277277   0.747   6.369   4.318  1.5469 -0.9824 -0.8172
18596TIP3   OH277278   4.611   0.290   1.191 -0.7784  0.1216  0.0751
18596TIP3    H177279   4.617   0.235   1.114  0.0170  1.9779 -1.2340
18596TIP3    H277280   4.523   0.328   1.187 -0.3854  0.9844 -0.4671
18597TIP3   OH277281   4.865   0.038   4.794  0.7647  0.0062  0.0147
18597TIP3    H177282   4.868   0.073   4.705  0.5335 -0.9263 -0.3640
18597TIP3    H277283   4.773   0.040   4.817  0.5213 -2.0185 -0.6895
18598TIP3   OH277284   1.485   2.973   5.897  0.0862 -0.2943 -0.0131
18598TIP3    H177285   1.449   2.888   5.873  1.1936 -0.4612 -1.1493
18598TIP3    H277286   1.573   2.973   5.859 -0.8977  2.4602 -2.5090
18599TIP3   OH277287   2.043   0.792  16.834  0.0926  0.0081 -0.0152
18599TIP3    H177288   2.075   0.760  16.919  0.5662  0.1454 -0.1365
18599TIP3    H277289   1.966   0.844  16.856 -0.3424 -0.7431  0.2398
18600TIP3   OH277290   1.601   4.059   3.126  0.2484 -0.4581 -0.3529
18600TIP3    H177291   1.626   4.062   3.218 -2.9298  0.4844  0.5688
18600TIP3    H277292   1.681   4.036   3.079  1.9392 -0.8619  2.6285
18601TIP3   OH277293   0.118   0.930   3.285  0.1133  0.4174 -0.1461
18601TIP3    H177294   0.210   0.948   3.264 -0.8999  2.3701 -3.1418
18601TIP3    H277295   0.104   0.975   3.369  2.1320 -0.7854  0.8796
18602TIP3   OH277296   1.453   3.211  17.248 -0.3042 -0.3733 -0.4122
18602TIP3    H177297   1.362   3.236  17.231  0.0794  0.4242 -1.3501
18602TIP3    H277298   1.447   3.128  17.296 -1.5269 -0.1945 -0.2477
18603TIP3   OH277299   6.602   6.414   1.346 -0.1632  0.5279  0.2664
18603TIP3    H177300   6.537   6.344   1.341 -0.2984  0.6338  0.5387
18603TIP3    H277301   6.633   6.412   1.437  1.8638 -1.0151 -0.4063
18604TIP3   OH277302   6.182   5.924   0.769  0.3767 -0.2484 -0.1945
18604TIP3    H177303   6.257   5.864   0.766 -1.3303 -2.4511  0.3599
18604TIP3    H277304   6.173   5.955   0.679  1.1718 -0.9590 -0.5266
18605TIP3   OH277305   5.535   4.742   4.183  0.0847  0.4405 -0.2320
18605TIP3    H177306   5.540   4.676   4.252 -0.1262 -1.4640 -1.9957
18605TIP3    H277307   5.626   4.759   4.159  0.1682  1.2546  0.6327
18606TIP3   OH277308   3.223   2.015  13.623 -0.3039 -0.0840 -0.5638
18606TIP3    H177309   3.256   1.983  13.539 -0.3331 -0.8939 -0.2699
18606TIP3    H277310   3.149   1.957  13.644  1.4556 -1.7168  1.3825
18607TIP3   OH277311   6.229   2.810  16.647 -0.0046 -0.2985  0.0366
18607TIP3    H177312   6.322   2.806  16.667 -0.3400 -3.1768  1.2996
18607TIP3    H277313   6.218   2.758  16.568 -0.6464 -0.5121  0.2608
18608TIP3   OH277314   0.744   2.715  11.597  0.0002 -0.3430 -0.7380
18608TIP3    H177315   0.672   2.677  11.548 -0.6107 -0.2925  0.1084
18608TIP3    H277316   0.763   2.650  11.665  0.6508 -0.2889 -0.8669
18609TIP3   OH277317   5.598   5.058   4.953  0.4111 -0.2093  0.4371
18609TIP3    H177318   5.650   5.076   4.874 -0.7396 -1.6710 -0.6785
18609TIP3    H277319   5.663   5.056   5.024  1.6937 -0.6125 -0.7254
18610TIP3   OH277320   1.422   4.573   0.668  0.1720  0.0394 -0.4163
18610TIP3    H177321   1.413   4.659   0.626 -0.5231  0.1259 -0.1017
18610TIP3    H277322   1.376   4.583   0.751  2.1881  0.1210  0.7435
18611TIP3   OH277323   0.932   6.263   0.664 -0.5514 -0.1508 -0.1003
18611TIP3    H177324   0.962   6.197   0.726  0.4212  1.3173  1.0329
18611TIP3    H277325   0.912   6.214   0.584  1.6482 -1.6223  0.2064
18612TIP3   OH277326   5.438   5.946   4.975 -0.0089 -0.8147 -0.3142
18612TIP3    H177327   5.509   5.963   4.913  1.1641  0.5150  1.3316
18612TIP3    H277328   5.392   6.029   4.982  2.5941  0.4582  3.8728
18613TIP3   OH277329   3.377   5.048   2.930 -0.0583  0.4452 -0.8253
18613TIP3    H177330   3.351   5.061   3.022 -0.8720  1.7671 -1.2338
18613TIP3    H277331   3.305   5.085   2.879  0.1994 -0.6519 -2.0189
18614TIP3   OH277332   0.527   0.032   2.970 -0.0141  0.2136 -0.0062
18614TIP3    H177333   0.432   0.030   2.985 -0.2166  1.9526 -0.8985
18614TIP3    H277334   0.537   0.089   2.894  1.9685  2.6396  2.0110
18615TIP3   OH277335   2.533   1.247   2.524 -0.0009 -0.1550 -0.1911
18615TIP3    H177336   2.477   1.170   2.530  0.5990 -0.6047 -0.3668
18615TIP3    H277337   2.588   1.243   2.602  0.2611 -0.0887 -0.3709
18616TIP3   OH277338   5.941   4.282  13.334  0.0116  0.3529  0.3110
18616TIP3    H177339   5.929   4.372  13.305 -2.1000  0.0558  0.1530
18616TIP3    H277340   6.033   4.276  13.359  0.3327  2.3490 -0.3543
18617TIP3   OH277341   3.473   5.874  15.645 -0.8024  0.1565  0.9655
18617TIP3    H177342   3.554   5.917  15.671 -0.5980  1.2851 -1.4283
18617TIP3    H277343   3.487   5.782  15.668  2.6399 -0.3410 -2.6784
18618TIP3   OH277344   1.009   4.249   1.773  0.0095 -0.3182 -0.2627
18618TIP3    H177345   1.026   4.314   1.841  0.8881  0.3969 -1.1507
18618TIP3    H277346   1.096   4.217   1.749 -0.0052  1.7251 -3.2564
18619TIP3   OH277347   2.691   4.845  12.367 -0.0749 -0.7201 -0.3806
18619TIP3    H177348   2.713   4.824  12.276  0.0354 -1.1985 -0.2423
18619TIP3    H277349   2.630   4.919  12.360  0.2128 -0.5203 -0.8288
18620TIP3   OH277350   6.707   5.196   5.278  0.3432 -0.1137 -0.3155
18620TIP3    H177351   6.730   5.139   5.204 -0.3772 -1.4833  0.4959
18620TIP3    H277352   6.617   5.224   5.260  0.2106 -0.3503 -0.0092
18621TIP3   OH277353   2.285   4.457   2.421  0.1344 -0.4355 -0.4138
18621TIP3    H177354   2.272   4.512   2.498  2.7021  2.0624 -1.6883
18621TIP3    H277355   2.378   4.437   2.421 -0.2234 -2.3082 -1.6790
18622TIP3   OH277356   5.867   6.094  17.056  0.4457  0.6468  0.3688
18622TIP3    H177357   5.928   6.150  17.008  0.3399  0.2355 -0.2521
18622TIP3    H277358   5.919   6.017  17.080  0.3740  0.6393  0.5046
18623TIP3   OH277359   4.096   5.197  13.539 -0.3118 -0.1201 -0.0653
18623TIP3    H177360   4.054   5.225  13.620 -0.8534  0.2845 -0.4844
18623TIP3    H277361   4.088   5.272  13.480  2.4940  0.6202  0.3834
18624TIP3   OH277362   2.501   3.276  12.987  0.4753  0.1448 -0.0650
18624TIP3    H177363   2.450   3.322  13.053 -0.1809 -0.8846  0.1488
18624TIP3    H277364   2.455   3.291  12.905  0.9423  0.8935 -0.1944
18625TIP3   OH277365   0.903   2.113  15.987 -0.3659 -0.2548  0.2680
18625TIP3    H177366   0.924   2.043  15.925 -1.3624  0.3590 -0.7780
18625TIP3    H277367   0.987   2.155  16.005 -0.0215 -0.6324 -0.4185
18626TIP3   OH277368   4.676   0.461  16.931 -0.4971  0.1043 -0.4805
18626TIP3    H177369   4.651   0.381  16.885 -1.2233 -0.4556  0.8632
18626TIP3    H277370   4.771   0.455  16.939 -0.8175 -2.2005  2.3969
18627TIP3   OH277371   6.553   3.051  14.722 -0.4906 -0.0226 -0.4689
18627TIP3    H177372   6.584   3.087  14.805 -0.3205 -2.4299  0.5610
18627TIP3    H277373   6.508   3.124  14.679  1.6254  1.9522  0.5875
18628TIP3   OH277374   0.800   3.264   3.820  0.9272  0.1940  0.4769
18628TIP3    H177375   0.818   3.280   3.913  0.4935 -1.1654  0.8046
18628TIP3    H277376   0.813   3.170   3.809  1.6067  0.4502 -0.9923
18629TIP3   OH277377   3.455   6.046  15.037 -0.0040 -0.8407 -0.1967
18629TIP3    H177378   3.543   6.082  15.047  0.2467 -1.3851 -0.4134
18629TIP3    H277379   3.407   6.081  15.112  0.3800 -0.4881 -0.1103
18630TIP3   OH277380   2.032   3.715   5.964  0.7700  0.1519 -0.1313
18630TIP3    H177381   1.973   3.652   6.006  0.6286 -0.9259 -1.9162
18630TIP3    H277382   2.080   3.754   6.037  0.8229 -1.9847  1.0243
18631TIP3   OH277383   5.426   1.147  11.400  0.1130 -0.5909  0.3908
18631TIP3    H177384   5.461   1.126  11.313  1.2189 -0.0958  0.7154
18631TIP3    H277385   5.346   1.197  11.382  1.5691  1.5590 -0.3642
18632TIP3   OH277386   6.129   6.095  12.543 -0.0331 -0.7189  0.3160
18632TIP3    H177387   6.092   6.046  12.616  0.5446  0.2985  1.3027
18632TIP3    H277388   6.223   6.098  12.561  0.0093  0.2396 -0.0357
18633TIP3   OH277389   0.666   5.330   0.979  0.3266  0.3932 -0.3163
18633TIP3    H177390   0.602   5.262   0.999 -0.7332  1.3889 -0.2407
18633TIP3    H277391   0.746   5.302   1.023 -0.5449  0.0093  1.0442
18634TIP3   OH277392   4.686   4.865   6.743  0.6843  0.1314 -0.6525
18634TIP3    H177393   4.646   4.930   6.800  0.2997 -0.1482 -0.6002
18634TIP3    H277394   4.780   4.884   6.747  0.8603 -0.9501  1.4447
18635TIP3   OH277395   5.654   3.514   3.909  0.1732  0.3619 -0.3333
18635TIP3    H177396   5.561   3.530   3.890 -0.3949  0.1190  2.1001
18635TIP3    H277397   5.697   3.597   3.888 -0.3011  0.0047 -2.9870
18636TIP3   OH277398   3.317   0.511  11.377  0.0101 -0.2896  0.0270
18636TIP3    H177399   3.265   0.436  11.348 -0.3057 -0.3080  0.6406
18636TIP3    H277400   3.261   0.556  11.440  0.3857  0.1994  0.0169
18637TIP3   OH277401   3.863   6.743  15.384  0.0276 -0.0019 -0.3061
18637TIP3    H177402   3.798   6.716  15.320  2.1736 -3.9499 -1.0204
18637TIP3    H277403   3.942   6.759  15.333  0.4165  1.9840  0.8437
18638TIP3   OH277404   4.943   3.950   5.894  0.4522 -0.2411 -0.0711
18638TIP3    H177405   4.951   4.045   5.906  0.5189 -0.2377 -0.1434
18638TIP3    H277406   4.888   3.941   5.816  0.6139 -0.2618 -0.1828
18639TIP3   OH277407   0.159   1.587  15.097 -0.5153  0.5521  0.4923
18639TIP3    H177408   0.140   1.493  15.102 -0.2374  0.5557  2.0694
18639TIP3    H277409   0.225   1.601  15.166  0.6823  1.6130 -0.8561
18640TIP3   OH277410   4.495   5.519  11.757 -0.5381 -0.0971  0.0530
18640TIP3    H177411   4.404   5.527  11.729 -0.5656  0.4947  0.2955
18640TIP3    H277412   4.531   5.607  11.746 -0.7884  0.3687  2.6556
18641TIP3   OH277413   3.510   1.151   0.389  0.3288 -0.1362 -0.2222
18641TIP3    H177414   3.538   1.185   0.475  0.9832  0.8889 -0.8294
18641TIP3    H277415   3.418   1.127   0.402 -0.0328  1.4920  0.3539
18642TIP3   OH277416   4.010   3.367  11.694 -0.2373  0.1470  0.0773
18642TIP3    H177417   3.945   3.434  11.670 -0.3665  0.9396  2.5063
18642TIP3    H277418   3.976   3.329  11.775  2.8419  1.3996  2.0733
18643TIP3   OH277419   3.845   4.402  12.878 -0.6824 -0.0388 -0.4500
18643TIP3    H177420   3.892   4.458  12.816  0.3800 -0.4995 -0.0597
18643TIP3    H277421   3.817   4.462  12.948  1.5560 -0.1887  0.6074
18644TIP3   OH277422   1.246   5.532   1.800 -0.4273 -0.0453  0.5920
18644TIP3    H177423   1.239   5.625   1.821  2.8242  0.4561 -0.1417
18644TIP3    H277424   1.308   5.529   1.727 -1.8811 -2.6778 -0.6113
18645TIP3   OH277425   4.308   0.587  11.841 -0.8394 -0.2160  0.4791
18645TIP3    H177426   4.241   0.578  11.773 -0.2828 -0.4875 -0.0357
18645TIP3    H277427   4.374   0.644  11.802 -0.2109 -0.8967  0.5575
18646TIP3   OH277428   5.268   0.146  15.463  0.0979 -0.0224 -0.0406
18646TIP3    H177429   5.345   0.099  15.495  0.0613 -1.0814 -1.4646
18646TIP3    H277430   5.299   0.236  15.450  0.7845 -0.1762  0.4630
18647TIP3   OH277431   0.598   3.398   2.245  0.6023  0.2931 -0.6643
18647TIP3    H177432   0.635   3.412   2.332 -1.0803  2.0794 -0.1755
18647TIP3    H277433   0.507   3.372   2.262  0.6378 -0.6441 -1.8728
18648TIP3   OH277434   4.633   2.893  12.515 -0.0509  0.3372 -0.0762
18648TIP3    H177435   4.573   2.962  12.488  0.2385  0.3492 -0.6903
18648TIP3    H277436   4.641   2.904  12.609  1.9194  2.6837 -0.4740
18649TIP3   OH277437   6.539   2.260  12.144  0.2947  0.7158  0.0616
18649TIP3    H177438   6.508   2.349  12.127  2.8463  1.9380  1.4114
18649TIP3    H277439   6.543   2.220  12.057 -2.4571  1.3324 -0.3948
18650TIP3   OH277440   3.438   1.486  12.384 -0.2048  0.6103 -0.2030
18650TIP3    H177441   3.526   1.460  12.412 -0.2667  1.2798  0.6214
18650TIP3    H277442   3.395   1.403  12.362  0.1581  0.1455  0.7845
18651TIP3   OH277443   5.720   0.677   6.308 -0.0279  0.0306  0.6197
18651TIP3    H177444   5.802   0.654   6.264  0.3314 -1.9274  2.2549
18651TIP3    H277445   5.699   0.764   6.274  2.2045  0.1585 -0.5640
18652TIP3   OH277446   5.588   2.561  16.683 -0.1510 -0.0312 -0.2058
18652TIP3    H177447   5.594   2.589  16.774 -0.5490  3.1865 -1.1169
18652TIP3    H277448   5.676   2.575  16.648  0.1973 -1.9566 -0.1616
18653TIP3   OH277449   1.778   0.618   4.653  0.0262 -0.8922  0.2979
18653TIP3    H177450   1.830   0.598   4.731  3.0681 -0.2356 -1.4835
18653TIP3    H277451   1.784   0.713   4.645 -2.5176 -0.6555  0.7162
18654TIP3   OH277452   2.439   2.157   3.738 -0.1967  0.3432  0.0930
18654TIP3    H177453   2.463   2.185   3.649 -0.3214  0.3663  0.0664
18654TIP3    H277454   2.352   2.193   3.752 -1.6837 -2.6041 -1.1249
18655TIP3   OH277455   4.048   3.624   1.153 -0.1769 -0.1390  0.0124
18655TIP3    H177456   4.110   3.566   1.109 -0.8206 -0.5763 -0.3301
18655TIP3    H277457   3.989   3.565   1.199  0.0234  0.2952  0.8289
18656TIP3   OH277458   4.301   4.831  13.030 -0.1359  0.3264 -0.2336
18656TIP3    H177459   4.386   4.836  12.987 -0.6753  0.0204 -1.3689
18656TIP3    H277460   4.239   4.821  12.958 -1.1302  0.5455  0.5835
18657TIP3   OH277461   0.073   0.784   0.132  0.4975  0.0197 -0.1908
18657TIP3    H177462   0.109   0.872   0.139  1.2338 -0.2601 -0.3509
18657TIP3    H277463  -0.018   0.792   0.161 -0.2280  1.3471 -2.6909
18658TIP3   OH277464   5.623   4.109  16.540  0.9106 -0.1207  0.2726
18658TIP3    H177465   5.667   4.057  16.607 -1.5419 -1.9838  0.4890
18658TIP3    H277466   5.544   4.142  16.582 -0.2227 -0.6078 -1.4185
18659TIP3   OH277467   4.081   6.436  15.120  0.3628  0.3288  0.2744
18659TIP3    H177468   4.056   6.348  15.146 -0.0392  0.5954  0.8003
18659TIP3    H277469   4.143   6.424  15.048  0.2548 -0.3776  0.3037
18660TIP3   OH277470   6.533   3.140   0.032 -0.8731  0.3689  0.0415
18660TIP3    H177471   6.533   3.066   0.094  0.5488 -1.5655 -2.1537
18660TIP3    H277472   6.626   3.157   0.016 -1.2056  0.1847 -2.2604
18661TIP3   OH277473   3.426   3.991  15.346  0.1643  0.2242  0.2766
18661TIP3    H177474   3.450   3.917  15.402 -0.1431  1.2502  1.7897
18661TIP3    H277475   3.500   4.052  15.354  0.8159 -0.2909 -1.6494
18662TIP3   OH277476   3.391   1.853  15.792 -0.2607  0.0131 -0.9168
18662TIP3    H177477   3.331   1.779  15.789  0.0476 -0.4163  2.0135
18662TIP3    H277478   3.337   1.927  15.820 -0.5383  0.9280 -3.6975
18663TIP3   OH277479   0.423   3.155   4.779  0.1865  0.1882 -0.0045
18663TIP3    H177480   0.448   3.189   4.693  1.5781 -3.1348 -0.9517
18663TIP3    H277481   0.349   3.097   4.761  0.6225 -0.6922  1.0323
18664TIP3   OH277482   0.526   4.990  10.803  0.2712  0.2540 -0.4013
18664TIP3    H177483   0.446   4.948  10.833  0.2396 -0.0257 -0.8758
18664TIP3    H277484   0.593   4.960  10.864  0.1421 -0.0447 -0.4053
18665TIP3   OH277485   0.907   1.478  14.161  0.1745  0.0879 -0.3863
18665TIP3    H177486   0.895   1.386  14.185  1.0936 -0.2443 -1.1494
18665TIP3    H277487   0.819   1.515  14.161 -0.1942 -0.7772 -0.0226
18666TIP3   OH277488   3.268   2.821  14.928  0.0709  0.1055  0.0236
18666TIP3    H177489   3.321   2.860  14.998 -0.5248  0.5852  0.2147
18666TIP3    H277490   3.207   2.763  14.973 -0.8938  1.0761 -0.0082
18667TIP3   OH277491   6.724   2.821   6.781 -0.0751  0.1485 -0.3255
18667TIP3    H177492   6.750   2.760   6.850  1.6230  0.4342 -0.6782
18667TIP3    H277493   6.660   2.773   6.729 -0.8091 -0.3421  0.9991
18668TIP3   OH277494   5.718   2.566  17.232  0.4051  0.2217  0.0659
18668TIP3    H177495   5.652   2.593  17.168  0.2249 -3.4279 -1.3915
18668TIP3    H277496   5.802   2.587  17.191  0.2501  0.6838 -0.0191
18669TIP3   OH277497   4.734   2.436  13.765 -0.0353 -0.1733 -0.5684
18669TIP3    H177498   4.760   2.346  13.747  0.9952 -0.0693  0.3228
18669TIP3    H277499   4.761   2.485  13.687  1.5306 -0.2517 -0.0968
18670TIP3   OH277500   5.031   6.251  16.349 -0.3602 -0.2160  0.1866
18670TIP3    H177501   5.028   6.257  16.254 -0.3939  1.3709  0.2744
18670TIP3    H277502   5.116   6.287  16.373 -1.5130  2.1084  0.9290
18671TIP3   OH277503   5.296   3.039   5.469  0.1652 -0.3378  0.6452
18671TIP3    H177504   5.355   3.033   5.544  2.7631  0.2587 -1.2606
18671TIP3    H277505   5.217   2.993   5.496  0.3667  1.3222  4.3569
18672TIP3   OH277506   1.004   4.311  12.908 -0.3397  0.4900 -0.8220
18672TIP3    H177507   1.077   4.295  12.848  1.0591 -1.7447  1.3852
18672TIP3    H277508   1.023   4.396  12.947  1.6260 -0.4926  0.4296
18673TIP3   OH277509   6.510   6.407   3.304 -0.5320  0.2509 -0.0361
18673TIP3    H177510   6.496   6.341   3.373 -0.4293  0.3814  0.1104
18673TIP3    H277511   6.559   6.477   3.348  0.1266  0.0257 -0.4122
18674TIP3   OH277512   6.410   1.096  16.833 -0.4218  0.0449 -0.4176
18674TIP3    H177513   6.442   1.092  16.743 -0.1400 -2.1010 -0.2458
18674TIP3    H277514   6.443   1.179  16.867 -0.2390  0.7066 -2.1724
18675TIP3   OH277515   4.341   2.959   5.428  0.2263 -0.3508 -0.1548
18675TIP3    H177516   4.423   3.008   5.434  0.5194 -1.0016  1.4399
18675TIP3    H277517   4.273   3.026   5.425  0.7540  0.1870 -0.1960
18676TIP3   OH277518   1.440   0.973  12.028 -1.0688 -0.0890 -0.0349
18676TIP3    H177519   1.531   0.970  11.997 -1.2125  1.2482 -0.5921
18676TIP3    H277520   1.438   0.909  12.100  0.5712  0.6182  0.6654
18677TIP3   OH277521   0.127   2.059  15.296 -0.3623  0.2133  0.0450
18677TIP3    H177522   0.196   1.999  15.325 -0.5955  0.1291  0.4324
18677TIP3    H277523   0.143   2.070  15.203  1.3525  1.7324  0.4944
18678TIP3   OH277524   3.658   1.066   2.923 -0.5951 -0.4343  0.0307
18678TIP3    H177525   3.701   0.980   2.921  0.5236  0.1001  0.6051
18678TIP3    H277526   3.608   1.070   2.841 -0.3712 -1.4823 -0.1628
18679TIP3   OH277527   0.922   4.358  15.805 -0.0042  0.3820 -0.0110
18679TIP3    H177528   1.003   4.308  15.802  0.8154  1.6909  0.0612
18679TIP3    H277529   0.866   4.317  15.739  0.6377 -0.6496  0.0781
18680TIP3   OH277530   5.013   0.628  14.051  0.4072 -0.0169  0.8655
18680TIP3    H177531   5.074   0.594  13.986 -0.2566 -0.0848  0.2704
18680TIP3    H277532   4.994   0.717  14.021 -1.4881 -0.7457 -0.1901
18681TIP3   OH277533   5.768   6.178  13.839  0.1499 -0.0421 -1.1425
18681TIP3    H177534   5.822   6.193  13.917 -0.7725  0.7310 -0.6374
18681TIP3    H277535   5.717   6.100  13.860  0.2728 -0.1327 -1.1786
18682TIP3   OH277536   2.853   2.666  11.958  0.0781  0.3878  0.0776
18682TIP3    H177537   2.887   2.578  11.975  0.0985  0.0768 -1.5001
18682TIP3    H277538   2.920   2.725  11.991  0.0622 -0.1922  1.1462
18683TIP3   OH277539   1.948   2.327   4.145  0.6979  0.3190  0.0157
18683TIP3    H177540   1.974   2.236   4.130  0.3575  0.0960  0.7341
18683TIP3    H277541   1.853   2.323   4.159  0.8869  0.5976  1.4680
18684TIP3   OH277542   2.541   2.094  10.843 -0.3930  0.0102 -0.2892
18684TIP3    H177543   2.616   2.149  10.866  0.3885 -0.8066 -0.8358
18684TIP3    H277544   2.542   2.092  10.747 -1.6454  0.7013 -0.3244
18685TIP3   OH277545   0.878   0.303  16.402  0.0720 -0.4362  0.2256
18685TIP3    H177546   0.966   0.265  16.408 -0.4471 -2.2611 -3.0690
18685TIP3    H277547   0.820   0.236  16.436 -0.3463 -0.5147 -0.6344
18686TIP3   OH277548   0.746   1.663  15.895  0.0639  0.1051 -0.2926
18686TIP3    H177549   0.699   1.632  15.972 -2.0432  0.9003 -1.2247
18686TIP3    H277550   0.678   1.677  15.829  1.5664  1.6167 -1.5729
18687TIP3   OH277551   2.254   6.294   1.756 -0.4195  0.3080 -0.2239
18687TIP3    H177552   2.187   6.361   1.744 -2.1221 -0.9771  1.8507
18687TIP3    H277553   2.237   6.231   1.686 -0.3241  0.8241 -0.7152
18688TIP3   OH277554   0.526   2.377   4.670 -0.0183 -0.1341  0.2356
18688TIP3    H177555   0.610   2.369   4.625  0.2113  0.4939  0.5428
18688TIP3    H277556   0.545   2.435   4.744 -0.7969  0.2488  0.1294
18689TIP3   OH277557   4.217   4.207   6.446  0.1490  0.7327 -1.3849
18689TIP3    H177558   4.136   4.171   6.482  0.1275 -0.8226 -2.9576
18689TIP3    H277559   4.256   4.136   6.396  2.2739  1.6054 -1.0444
18690TIP3   OH277560   1.765   3.300   0.394 -0.0329  0.3043  0.1379
18690TIP3    H177561   1.706   3.232   0.361  0.7237 -0.1378 -0.3226
18690TIP3    H277562   1.782   3.275   0.484 -1.2314  0.9070  0.5389
18691TIP3   OH277563   6.477   3.685   6.988 -0.1646 -0.0051 -0.5258
18691TIP3    H177564   6.458   3.602   6.942  2.4464 -0.1204 -1.4564
18691TIP3    H277565   6.561   3.714   6.952 -0.7072  2.7160  0.2983
18692TIP3   OH277566   3.550   4.224  10.455  0.3091  0.4957 -0.0382
18692TIP3    H177567   3.571   4.270  10.374 -0.9637 -0.1866 -0.7804
18692TIP3    H277568   3.534   4.294  10.519 -1.7503  1.1352 -1.1870
18693TIP3   OH277569   1.546   6.411   0.124  0.3391  0.4726  0.3296
18693TIP3    H177570   1.589   6.432   0.207  0.8149  1.7128 -0.2158
18693TIP3    H277571   1.586   6.471   0.061 -0.4131 -0.0837 -0.6866
18694TIP3   OH277572   6.007   5.857   3.790  0.3957 -0.3902  0.1079
18694TIP3    H177573   5.917   5.846   3.820 -0.0377  0.4613 -0.8523
18694TIP3    H277574   6.026   5.777   3.740  0.2639 -0.6744  0.5054
18695TIP3   OH277575   3.351   3.923   1.630  0.5425 -0.7448 -0.3040
18695TIP3    H177576   3.419   3.882   1.578 -0.4424 -1.5886 -0.9462
18695TIP3    H277577   3.273   3.918   1.575 -0.7902 -2.6714  1.7161
18696TIP3   OH277578   2.159   3.203  14.268  0.1931 -1.1868 -0.0595
18696TIP3    H177579   2.224   3.152  14.219  3.5046  1.2486  1.5966
18696TIP3    H277580   2.122   3.141  14.330 -0.7769 -3.1758 -2.5084
18697TIP3   OH277581   0.131   6.634   2.064  0.1476 -0.2083  0.2622
18697TIP3    H177582   0.211   6.656   2.016 -0.1240  1.9961  0.7754
18697TIP3    H277583   0.111   6.713   2.115 -0.6902 -1.7857  2.4482
18698TIP3   OH277584   1.782   3.462  12.236  0.4383  0.0491 -0.2199
18698TIP3    H177585   1.811   3.371  12.228  0.7009  0.0899  0.2638
18698TIP3    H277586   1.863   3.511  12.251  0.1911  0.2529  0.4420
18699TIP3   OH277587   4.748   4.089  10.884 -0.1933 -0.1529 -0.1940
18699TIP3    H177588   4.776   4.169  10.840 -0.6823  0.4365  0.5578
18699TIP3    H277589   4.667   4.114  10.930 -0.4488 -1.1198 -0.1078
18700TIP3   OH277590   4.525   2.030   5.034 -0.8052  0.4696 -0.1969
18700TIP3    H177591   4.518   2.004   5.126 -0.3251  1.1420  0.0362
18700TIP3    H277592   4.435   2.035   5.003 -0.9937  0.8540  0.4098
18701TIP3   OH277593   1.339   0.541   1.295 -0.4477  0.1185  0.0175
18701TIP3    H177594   1.370   0.606   1.232  0.3113 -0.8885 -0.6796
18701TIP3    H277595   1.420   0.502   1.330 -0.8878 -1.5130 -0.7217
18702TIP3   OH277596   0.741   0.010  11.665  0.0219 -0.2163 -0.1343
18702TIP3    H177597   0.785  -0.068  11.700 -1.6213 -1.8356 -1.5845
18702TIP3    H277598   0.758   0.007  11.571 -2.4880 -0.4249 -0.5962
18703TIP3   OH277599   5.676   4.491  14.412 -0.4713 -0.2077 -0.5463
18703TIP3    H177600   5.649   4.577  14.382  0.2474 -0.1018 -0.8900
18703TIP3    H277601   5.744   4.508  14.478  0.4206 -0.5343 -1.3699
18704TIP3   OH277602   2.489   3.505   2.283 -0.3660 -0.1951 -0.0423
18704TIP3    H177603   2.449   3.590   2.300 -0.4659 -0.1615 -0.4374
18704TIP3    H277604   2.453   3.447   2.350 -0.1136  0.1296  0.3756
18705TIP3   OH277605   5.117   1.136  17.221  0.4268  0.0107 -0.1825
18705TIP3    H177606   5.201   1.179  17.238  0.4473 -0.7579  1.8203
18705TIP3    H277607   5.139   1.060  17.168  0.6660  1.1374 -1.7679
18706TIP3   OH277608   6.528   3.220  15.623 -0.8597  0.4323  0.2978
18706TIP3    H177609   6.464   3.151  15.640  0.3068 -0.5107  0.9055
18706TIP3    H277610   6.610   3.186  15.657 -0.1941  1.9800  0.2768
18707TIP3   OH277611   1.378   3.512  15.207  0.1712 -0.1949  0.0635
18707TIP3    H177612   1.341   3.467  15.283  0.4770 -0.7815 -0.1321
18707TIP3    H277613   1.312   3.501  15.138  0.1832 -0.2235  0.0562
18708TIP3   OH277614   2.034   2.595   2.767 -0.2556  0.4466  1.3111
18708TIP3    H177615   2.064   2.681   2.736  1.3694 -1.1667 -1.7844
18708TIP3    H277616   1.939   2.598   2.756 -0.1065  1.4579  0.1211
18709TIP3   OH277617   6.589   2.872  13.840 -0.1680 -0.2698 -0.3920
18709TIP3    H177618   6.523   2.808  13.868  0.2270 -1.0946 -1.3366
18709TIP3    H277619   6.632   2.832  13.765  0.9788  0.5469 -0.1894
18710TIP3   OH277620   2.871   0.535  16.404 -0.4512  0.0550 -0.1718
18710TIP3    H177621   2.799   0.578  16.358 -0.0383  0.1189 -0.7600
18710TIP3    H277622   2.828   0.473  16.464 -1.0357  1.0767  0.4761
18711TIP3   OH277623   0.508   2.917  10.488 -0.7953 -0.5701 -0.2591
18711TIP3    H177624   0.602   2.904  10.475 -0.2476  1.2606  1.6356
18711TIP3    H277625   0.478   2.834  10.526 -0.2866 -1.7531 -2.3493
18712TIP3   OH277626   3.372   3.051   0.105 -0.3612 -0.1076  0.1685
18712TIP3    H177627   3.364   3.008   0.190 -1.2591  0.2245  0.2578
18712TIP3    H277628   3.283   3.077   0.083  0.2256  2.2350  0.4060
18713TIP3   OH277629   4.225   5.992  15.318 -0.6744 -0.5387 -0.5233
18713TIP3    H177630   4.223   5.914  15.264  1.0750  0.0347 -1.4596
18713TIP3    H277631   4.313   6.027  15.306 -0.9197  0.6965  1.1295
18714TIP3   OH277632   3.170   5.221  17.269  0.2391 -0.0497  0.3692
18714TIP3    H177633   3.214   5.186  17.191 -1.5034  0.2664 -0.7930
18714TIP3    H277634   3.149   5.312  17.246 -0.4428 -0.0109  1.1226
18715TIP3   OH277635   6.801   4.668   5.380 -0.3558 -0.3905 -0.0165
18715TIP3    H177636   6.835   4.722   5.451 -0.3990 -1.0862  0.5417
18715TIP3    H277637   6.874   4.610   5.358 -0.4708 -0.4332 -0.2808
18716TIP3   OH277638   3.837   5.915  15.260 -0.0795 -0.1656  0.1775
18716TIP3    H177639   3.827   5.828  15.222  0.2119  0.0762 -0.4680
18716TIP3    H277640   3.923   5.912  15.303 -0.4496 -0.4690  0.9021
18717TIP3   OH277641   0.570   1.482   1.249 -0.0879 -0.0888 -0.0115
18717TIP3    H177642   0.577   1.565   1.296  1.0777  0.4569 -1.1377
18717TIP3    H277643   0.638   1.427   1.288  2.5303  1.1539 -2.6032
18718TIP3   OH277644   5.577   3.134  11.586 -0.2327  0.2482  0.7641
18718TIP3    H177645   5.631   3.202  11.628 -0.3225  0.4922  0.4903
18718TIP3    H277646   5.562   3.070  11.655  1.0024 -0.1732  0.6568
18719TIP3   OH277647   5.136   0.513   0.413 -0.2821  0.4602  0.8415
18719TIP3    H177648   5.107   0.581   0.353 -1.3941 -0.7287  0.0087
18719TIP3    H277649   5.074   0.517   0.486 -1.3998 -0.7909 -0.0226
18720TIP3   OH277650   3.081   0.910  10.563 -0.0903 -0.3573 -0.2051
18720TIP3    H177651   3.144   0.982  10.565  0.0316 -0.3880 -2.0099
18720TIP3    H277652   3.135   0.831  10.554 -0.3079 -0.5017 -0.2468
18721TIP3   OH277653   4.236   0.448  15.720  0.6447 -0.0985  0.3283
18721TIP3    H177654   4.255   0.406  15.636  1.1261  0.4794  0.1423
18721TIP3    H277655   4.143   0.431  15.735  0.7575 -0.9695  0.1157
18722TIP3   OH277656   1.043   2.898  15.671  0.5284  0.5571 -0.6975
18722TIP3    H177657   1.097   2.929  15.743  0.3009  1.0802 -0.7495
18722TIP3    H277658   1.094   2.829  15.629  1.4841  1.5670 -1.2204
18723TIP3   OH277659   1.575   0.306   6.096  0.4120  0.6508 -0.0994
18723TIP3    H177660   1.661   0.337   6.067  0.3617  0.3226 -0.6118
18723TIP3    H277661   1.579   0.210   6.085 -0.2991  0.7061 -0.9110
18724TIP3   OH277662   3.800   5.786   4.177 -0.1395 -0.2003  0.1160
18724TIP3    H177663   3.852   5.848   4.126  0.3447 -0.6863  0.0179
18724TIP3    H277664   3.849   5.704   4.173  0.3117 -0.0459  2.0118
18725TIP3   OH277665   3.947   6.219   3.826  0.2040 -0.3499  0.0445
18725TIP3    H177666   3.934   6.290   3.889 -0.9467 -1.2903  0.8791
18725TIP3    H277667   3.970   6.264   3.744 -0.0481  0.9579  0.6797
18726TIP3   OH277668   1.634   2.495   4.828  0.3282 -0.5389 -0.3002
18726TIP3    H177669   1.603   2.440   4.900  0.3436 -1.2487 -0.8250
18726TIP3    H277670   1.589   2.578   4.839 -1.4923 -1.4285 -0.8472
18727TIP3   OH277671   6.780   1.492   0.340 -0.2913  0.6915  0.0425
18727TIP3    H177672   6.834   1.560   0.299  2.7625 -1.3560  0.5207
18727TIP3    H277673   6.838   1.452   0.405 -2.3975 -1.6309  0.5488
18728TIP3   OH277674   4.442   5.959   5.729 -0.0206  0.5394 -0.3379
18728TIP3    H177675   4.528   5.988   5.698  1.2505 -0.3618  2.2014
18728TIP3    H277676   4.411   5.898   5.663  2.2085 -0.6535 -0.3046
18729TIP3   OH277677   3.892   4.846  15.380  0.5436  1.0086 -0.4098
18729TIP3    H177678   3.880   4.807  15.293  2.5725  0.6077 -0.5493
18729TIP3    H277679   3.823   4.807  15.434  2.3335 -2.7245 -0.5929
18730TIP3   OH277680   3.175   6.531  13.775 -0.1010 -0.0670 -0.2290
18730TIP3    H177681   3.259   6.517  13.731 -0.2753 -0.7934 -0.3257
18730TIP3    H277682   3.199   6.560  13.863  0.2516  1.9199 -0.9417
18731TIP3   OH277683   4.406   2.072   3.109  0.3963  0.2294 -0.2522
18731TIP3    H177684   4.431   2.076   3.016  0.7773 -1.2356 -0.2321
18731TIP3    H277685   4.422   1.981   3.134 -0.6218  0.3775  1.0028
18732TIP3   OH277686   0.644   5.487  14.997 -0.1891  0.1436  0.2956
18732TIP3    H177687   0.589   5.454  15.068  1.4541 -0.0031  1.5446
18732TIP3    H277688   0.635   5.423  14.927  1.0283 -1.6955  1.7628
18733TIP3   OH277689   1.074   0.584   5.097 -0.1029 -0.3527  0.4584
18733TIP3    H177690   1.100   0.497   5.067  0.1332  0.2364 -1.0684
18733TIP3    H277691   1.038   0.627   5.020 -1.2851  0.5183  1.4617
18734TIP3   OH277692   3.298   6.333  12.610 -0.5433 -0.2973 -0.2362
18734TIP3    H177693   3.285   6.391  12.535 -0.2030 -0.9928 -0.8360
18734TIP3    H277694   3.319   6.392  12.683  0.9386  0.2553 -1.1013
18735TIP3   OH277695   5.444   3.761   2.289 -0.4446 -0.2067 -0.0732
18735TIP3    H177696   5.398   3.815   2.225  0.9544  1.1709  0.0480
18735TIP3    H277697   5.514   3.818   2.322  0.8566 -1.9933  0.2907
18736TIP3   OH277698   5.403   2.817  13.172 -0.0107  0.2474  0.8166
18736TIP3    H177699   5.433   2.883  13.110  0.5183  0.5234  1.3637
18736TIP3    H277700   5.341   2.764  13.122 -1.4177  1.9459  0.7376
18737TIP3   OH277701   2.920   0.701   4.195  0.3976  0.0790  0.3328
18737TIP3    H177702   2.935   0.783   4.147  1.1188 -0.3941 -0.2689
18737TIP3    H277703   2.923   0.727   4.287 -0.5249  0.9156  0.1340
18738TIP3   OH277704   4.153   1.117  15.400  0.2281  0.2371 -0.5242
18738TIP3    H177705   4.195   1.076  15.475 -0.5973  1.0735  0.4178
18738TIP3    H277706   4.226   1.147  15.345  0.9016  2.2096  1.3791
18739TIP3   OH277707   1.745   5.184  13.486 -0.5187  0.0744 -0.1537
18739TIP3    H177708   1.661   5.184  13.532  0.0667 -0.1990  0.9213
18739TIP3    H277709   1.761   5.276  13.466 -2.0126 -0.0607 -2.1102
18740TIP3   OH277710   3.296   4.342   2.846 -0.1452 -0.0562  0.3659
18740TIP3    H177711   3.270   4.285   2.918 -2.3923 -1.2140 -1.3130
18740TIP3    H277712   3.239   4.419   2.855 -1.3466 -0.7865 -0.9335
18741TIP3   OH277713   2.151   3.583   2.247  0.0399 -0.1799  0.0992
18741TIP3    H177714   2.157   3.638   2.325  0.4164 -0.8032  0.5192
18741TIP3    H277715   2.063   3.545   2.251  0.2032 -0.5325  0.4515
18742TIP3   OH277716   2.622   4.522   4.185 -0.2238 -0.2922  0.4198
18742TIP3    H177717   2.579   4.451   4.137  0.4373 -0.0217 -0.5776
18742TIP3    H277718   2.621   4.596   4.124 -1.1078  0.6298  1.5292
18743TIP3   OH277719   1.526   3.773   0.634 -0.1565  0.4359 -0.0081
18743TIP3    H177720   1.447   3.719   0.635 -0.4490  0.8155 -1.3244
18743TIP3    H277721   1.591   3.718   0.590 -0.4466  1.1121 -1.3279
18744TIP3   OH277722   3.311   4.619  10.756 -0.1729 -0.4874  0.2425
18744TIP3    H177723   3.375   4.579  10.697 -1.8508 -1.3051 -1.0505
18744TIP3    H277724   3.309   4.711  10.730  1.9595  0.0025  1.6642
18745TIP3   OH277725   1.994   5.874   0.906  0.0815 -0.0068  0.1030
18745TIP3    H177726   1.963   5.960   0.878  2.1870  0.8039  0.1675
18745TIP3    H277727   2.081   5.866   0.867 -0.3902 -2.4405 -0.5267
18746TIP3   OH277728   6.019   3.332   1.391  0.4707 -0.5215 -0.3125
18746TIP3    H177729   5.937   3.362   1.433  0.8796  1.0830 -0.6155
18746TIP3    H277730   5.990   3.280   1.316 -0.2697 -1.4589  0.6061
18747TIP3   OH277731   1.640   3.214   5.445 -0.3227 -0.1107  0.1957
18747TIP3    H177732   1.619   3.177   5.531 -0.6594  0.2683  0.2787
18747TIP3    H277733   1.621   3.307   5.454  0.0820  0.0042 -0.1537
18748TIP3   OH277734   6.175   1.639  13.726 -0.1060 -0.9864  0.1379
18748TIP3    H177735   6.173   1.545  13.708 -0.4078 -0.9376 -0.0946
18748TIP3    H277736   6.148   1.646  13.817  0.2612 -1.1520  0.2577
18749TIP3   OH277737   5.706   1.529   2.308 -0.3321  0.0136  0.1421
18749TIP3    H177738   5.671   1.520   2.219  0.4992 -0.8667 -0.1105
18749TIP3    H277739   5.629   1.538   2.363 -0.9154 -0.7915 -0.5238
18750TIP3   OH277740   0.896   0.603  14.646 -0.3742  0.1284  0.6139
18750TIP3    H177741   0.917   0.696  14.645 -1.5036  0.3903 -1.0913
18750TIP3    H277742   0.958   0.564  14.584  0.6865 -0.3970  1.9929
18751TIP3   OH277743   3.138   2.657   4.718  0.3199 -0.4499  0.0626
18751TIP3    H177744   3.044   2.648   4.704  0.1219  1.8953 -0.3144
18751TIP3    H277745   3.172   2.683   4.632  1.3386 -1.3401  0.1797
18752TIP3   OH277746   1.746   5.972   2.533  0.1312 -0.1996  0.0084
18752TIP3    H177747   1.839   5.953   2.540  0.7453  2.5498  0.0922
18752TIP3    H277748   1.716   5.979   2.623 -0.2510 -1.4644 -0.0165
18753TIP3   OH277749   4.738   1.755  13.306 -0.0632  0.1490  0.0334
18753TIP3    H177750   4.703   1.812  13.238 -1.7030 -0.6380  0.1845
18753TIP3    H277751   4.670   1.755  13.375  0.1691 -1.4789  0.2970
18754TIP3   OH277752   4.361   4.730   2.081 -0.0599  0.7220  0.2449
18754TIP3    H177753   4.385   4.715   1.990  1.4330  0.7636  0.6092
18754TIP3    H277754   4.269   4.755   2.078 -0.4709 -0.8526 -1.0886
18755TIP3   OH277755   0.688   6.313  15.359 -0.1520 -0.0708  0.4522
18755TIP3    H177756   0.596   6.333  15.374 -0.7448 -2.2555 -0.0521
18755TIP3    H277757   0.717   6.272  15.441  0.3903  0.6535  0.6259
18756TIP3   OH277758   3.417   3.589   0.701  0.2506  0.2352 -0.3746
18756TIP3    H177759   3.402   3.663   0.642 -0.2627 -0.4153 -1.0761
18756TIP3    H277760   3.499   3.550   0.670  1.7822  1.8781  1.4548
18757TIP3   OH277761   3.078   6.603   1.074  0.0462  0.1483  0.5683
18757TIP3    H177762   3.111   6.648   1.152 -1.3793  1.3255  0.5200
18757TIP3    H277763   3.016   6.665   1.036 -0.3793 -1.0361 -0.6762
18758TIP3   OH277764   6.290   4.855  11.525 -0.2891 -0.4283  0.0251
18758TIP3    H177765   6.299   4.886  11.615 -0.1400 -0.2487 -0.0484
18758TIP3    H277766   6.247   4.928  11.479 -0.5606 -0.6042 -0.0016
18759TIP3   OH277767   0.260   4.534  10.681  0.3905 -0.3361  0.3744
18759TIP3    H177768   0.210   4.571  10.754 -1.5270  1.5946 -1.8611
18759TIP3    H277769   0.226   4.444  10.673 -1.1040  0.2120  0.3587
18760TIP3   OH277770   6.144   2.858  12.044  0.2305  0.2907 -0.0907
18760TIP3    H177771   6.174   2.855  12.135 -0.0915 -0.1465 -0.0026
18760TIP3    H277772   6.050   2.842  12.048  0.4150 -0.9606 -0.6080
18761TIP3   OH277773   2.646   6.574  13.801  0.7883  1.0602 -0.7223
18761TIP3    H177774   2.689   6.492  13.777  0.0796  0.5248 -0.2010
18761TIP3    H277775   2.571   6.580  13.743  1.1557  1.6284 -1.1412
18762TIP3   OH277776   0.889   0.581   4.693 -0.8690 -0.2407 -0.4779
18762TIP3    H177777   0.799   0.566   4.721 -0.3120 -0.1530  1.3988
18762TIP3    H277778   0.925   0.493   4.678 -1.3464 -0.2648 -1.5714
18763TIP3   OH277779   0.609   6.359  14.651 -0.3301 -0.2180 -0.3522
18763TIP3    H177780   0.675   6.367  14.719 -1.3218 -0.8929  0.7023
18763TIP3    H277781   0.607   6.266  14.630 -2.4535 -0.5565  1.1724
18764TIP3   OH277782   5.174   2.080  13.859  0.3159  0.3710  0.0631
18764TIP3    H177783   5.246   2.140  13.880 -2.0513  2.5519  2.3977
18764TIP3    H277784   5.152   2.038  13.943 -1.3908  0.0573 -0.5090
18765TIP3   OH277785   4.511   5.380  14.631 -0.1984 -0.5363  0.3261
18765TIP3    H177786   4.508   5.296  14.586  2.5255  0.3712 -1.7024
18765TIP3    H277787   4.444   5.433  14.587 -0.3673 -0.9310  0.1040
18766TIP3   OH277788   6.367   5.817   2.475  0.4073 -0.0436  0.2850
18766TIP3    H177789   6.291   5.852   2.523 -0.0343  1.5588 -1.5415
18766TIP3    H277790   6.383   5.881   2.406  1.7237 -1.7693 -1.0455
18767TIP3   OH277791   5.813   1.832  14.579  0.1662  0.3253  0.1033
18767TIP3    H177792   5.872   1.851  14.652  1.2749 -0.0468 -0.6884
18767TIP3    H277793   5.826   1.904  14.518  0.5336 -0.2707 -0.5230
18768TIP3   OH277794   6.747   4.760   0.719  0.4406  0.2109 -0.0903
18768TIP3    H177795   6.717   4.671   0.699  1.4480  0.1983 -1.6640
18768TIP3    H277796   6.683   4.794   0.781 -0.0749 -1.5386  0.3537
18769TIP3   OH277797   3.992   2.270  16.712 -0.1337 -0.0885 -0.1107
18769TIP3    H177798   3.928   2.208  16.748 -1.5781  0.7450 -1.1784
18769TIP3    H277799   4.032   2.311  16.788 -0.3219 -1.1708  0.5853
18770TIP3   OH277800   5.887   6.108   3.196  0.1672  0.3011 -0.1246
18770TIP3    H177801   5.800   6.140   3.174  0.0037 -0.8366 -1.1851
18770TIP3    H277802   5.894   6.023   3.153  0.9448 -0.6854  1.8527
18771TIP3   OH277803   1.471   5.208  16.223  0.0974 -0.1338  0.6761
18771TIP3    H177804   1.554   5.165  16.246 -0.7433 -1.0270  2.1089
18771TIP3    H277805   1.413   5.188  16.296 -0.7643  2.2676  0.6691
18772TIP3   OH277806   5.395   6.643  11.878 -0.2608  0.2569  0.0979
18772TIP3    H177807   5.358   6.590  11.808  1.0556  0.4540 -0.7587
18772TIP3    H277808   5.474   6.596  11.906 -1.0583 -0.1065  1.8406
18773TIP3   OH277809   5.293   2.681  13.634  0.2775 -0.2136  0.9608
18773TIP3    H177810   5.343   2.652  13.558 -1.2865  0.2151 -0.2757
18773TIP3    H277811   5.259   2.767  13.609  0.4588  0.3160  2.4897
18774TIP3   OH277812   0.150   4.025  17.259 -0.1104  0.1594  0.2045
18774TIP3    H177813   0.062   4.032  17.296  0.1038 -0.0713  0.7573
18774TIP3    H277814   0.182   3.940  17.291  1.3160  1.4002  2.1725
18775TIP3   OH277815   6.014   4.027  15.512  0.3372 -0.3359  0.0222
18775TIP3    H177816   6.002   4.105  15.458 -1.4926 -0.3913  0.3316
18775TIP3    H277817   6.097   4.043  15.559  1.1498  0.3899 -1.6205
18776TIP3   OH277818   6.293   5.546   5.633  0.0192 -0.3723 -0.0102
18776TIP3    H177819   6.213   5.498   5.611  0.4467 -1.1389  0.1058
18776TIP3    H277820   6.274   5.587   5.717  0.0346 -1.2068  0.3999
18777TIP3   OH277821   6.428   3.726  14.366 -0.5301  0.0014  0.0383
18777TIP3    H177822   6.483   3.695  14.295  0.0853  0.2193  0.4129
18777TIP3    H277823   6.430   3.655  14.431 -1.7169 -0.5268 -0.4956
18778TIP3   OH277824   6.209   6.343  15.281  0.6058 -0.3631 -0.4993
18778TIP3    H177825   6.153   6.278  15.239  1.1843 -0.0654 -1.7742
18778TIP3    H277826   6.153   6.419  15.296 -0.2668 -1.4063  1.6881
18779TIP3   OH277827   2.811   0.911  10.406 -0.0103  0.0341 -0.5345
18779TIP3    H177828   2.891   0.940  10.448 -1.6509  1.3990  1.7854
18779TIP3    H277829   2.802   0.819  10.432  0.0446  0.2968  0.4177
18780TIP3   OH277830   4.071   0.801  11.645  0.1266  0.1029 -0.4102
18780TIP3    H177831   3.989   0.809  11.596  0.6725  0.8101 -1.2197
18780TIP3    H277832   4.117   0.883  11.629  1.2163 -0.4890 -0.3760
18781TIP3   OH277833   4.661   6.451   0.420  0.0074 -0.0931 -0.5622
18781TIP3    H177834   4.646   6.389   0.491  2.1682 -0.5286 -0.4637
18781TIP3    H277835   4.583   6.442   0.364 -0.8647 -1.0537  0.7679
18782TIP3   OH277836   1.138   0.518   2.237  0.2568 -0.0957 -0.4433
18782TIP3    H177837   1.087   0.500   2.158 -0.2137  2.7290 -0.8344
18782TIP3    H277838   1.223   0.478   2.219 -0.9053 -2.4299 -0.9455
18783TIP3   OH277839   6.613   2.684  11.786  0.4913  0.1195  0.0341
18783TIP3    H177840   6.693   2.732  11.762  0.4736  1.6328  2.7823
18783TIP3    H277841   6.557   2.693  11.709  1.5719  2.1955 -0.5822
18784TIP3   OH277842   1.083   6.603  11.187  0.5223 -0.0688  0.5309
18784TIP3    H177843   1.003   6.656  11.186  1.1728  0.9167  0.6348
18784TIP3    H277844   1.154   6.667  11.191  1.3381 -0.9286 -0.0441
18785TIP3   OH277845   0.729   5.786  16.181  0.2889 -0.1811 -0.1180
18785TIP3    H177846   0.671   5.835  16.122  0.0935  0.5024  0.6326
18785TIP3    H277847   0.699   5.696  16.174  0.3581 -0.1352 -1.1754
18786TIP3   OH277848   5.079   4.714  14.255 -0.0122  0.1945 -0.1962
18786TIP3    H177849   5.064   4.807  14.237  1.2763  0.8588  1.8808
18786TIP3    H277850   5.170   4.699  14.229  0.4347  0.0598  1.3628
18787TIP3   OH277851   6.296   5.346  17.011  0.6660 -0.1249 -0.0067
18787TIP3    H177852   6.354   5.289  17.061  2.5485  1.8942  0.1876
18787TIP3    H277853   6.355   5.394  16.952 -1.1275 -0.0465 -1.7936
18788TIP3   OH277854   0.390   0.050  11.980  0.0638  0.0895 -0.1146
18788TIP3    H177855   0.362  -0.038  11.955  0.6874  0.2794 -1.6075
18788TIP3    H277856   0.429   0.040  12.066  1.0635 -1.3020 -0.7122
18789TIP3   OH277857   6.210   5.149  15.007 -0.0084  0.4634 -0.3944
18789TIP3    H177858   6.212   5.072  15.063 -0.8164  0.4717 -0.3448
18789TIP3    H277859   6.218   5.223  15.068  3.1427  0.3874 -0.6300
18790TIP3   OH277860   4.475   4.845   2.478  0.0151 -0.2525 -0.0795
18790TIP3    H177861   4.458   4.890   2.561  0.4769  0.1012 -0.1735
18790TIP3    H277862   4.512   4.912   2.421 -2.3758  0.0566 -1.3144
18791TIP3   OH277863   4.704   6.735  13.076 -0.2087  0.1900 -0.1207
18791TIP3    H177864   4.690   6.663  13.014  1.6737 -0.9316  0.7212
18791TIP3    H277865   4.743   6.805  13.023  2.3879 -1.1403 -0.0601
18792TIP3   OH277866   2.368   0.246   0.121 -0.4685 -0.2733  0.7796
18792TIP3    H177867   2.403   0.301   0.191  0.1515 -1.2531  1.2430
18792TIP3    H277868   2.284   0.215   0.155 -0.0082 -1.0336  1.2506
18793TIP3   OH277869   5.024   4.366  11.402 -0.0744 -0.4248 -0.1072
18793TIP3    H177870   5.009   4.453  11.440 -0.6021 -0.6912  0.3054
18793TIP3    H277871   5.026   4.307  11.477  2.1131 -0.5482 -0.2288
18794TIP3   OH277872   4.718   6.803  13.619 -0.0511  0.3804  0.3344
18794TIP3    H177873   4.760   6.811  13.705  0.2977 -0.6360  0.2757
18794TIP3    H277874   4.774   6.742  13.571  0.7125  2.2664 -1.2308
18795TIP3   OH277875   5.621   6.167  17.141 -0.0885  0.6224 -0.4910
18795TIP3    H177876   5.653   6.232  17.203 -1.6285 -0.0284  1.0200
18795TIP3    H277877   5.700   6.120  17.113  0.6854  1.2934  0.5332
18796TIP3   OH277878   3.890   0.142   5.875 -0.1758 -0.2525  0.3622
18796TIP3    H177879   3.905   0.052   5.906 -0.4358 -0.1455  0.8014
18796TIP3    H277880   3.928   0.143   5.788 -1.0341 -1.0782 -0.0409
18797TIP3   OH277881   6.358   4.067   0.768 -0.1612  0.4396  0.0469
18797TIP3    H177882   6.320   4.052   0.855  1.1418 -0.6975  0.4349
18797TIP3    H277883   6.445   4.102   0.786 -0.6761  2.2439 -0.8389
18798TIP3   OH277884   1.470   6.762  17.223 -0.5014 -0.7666 -0.0247
18798TIP3    H177885   1.534   6.697  17.193  0.6832 -0.5908  2.0271
18798TIP3    H277886   1.523   6.831  17.264 -1.9068  0.2563  0.1148
18799TIP3   OH277887   4.460   2.089  16.349  0.1408  0.6417 -0.9922
18799TIP3    H177888   4.462   1.996  16.325 -1.2616 -0.1156  1.6046
18799TIP3    H277889   4.548   2.106  16.385  0.3620  0.2944 -1.3594
18800TIP3   OH277890   6.405   5.696  17.269 -0.4383 -0.2085 -0.0921
18800TIP3    H177891   6.431   5.710  17.178  2.0913 -2.3365  0.2289
18800TIP3    H277892   6.340   5.764  17.286  0.6972  1.6638 -2.7956
18801TIP3   OH277893   0.310   5.776  13.390  0.2074  0.5330 -0.3412
18801TIP3    H177894   0.245   5.809  13.329 -0.1605  0.0400 -0.2118
18801TIP3    H277895   0.277   5.691  13.418  0.5108  0.6290  0.3255
18802TIP3   OH277896   6.060   1.323  17.218 -0.4060  0.0224 -0.4313
18802TIP3    H177897   6.131   1.385  17.203 -0.1037  0.2985  1.8436
18802TIP3    H277898   6.097   1.238  17.194 -0.3718  0.5352 -2.2626
18803TIP3   OH277899   3.733   2.002   6.261  0.0304  0.0091 -0.5155
18803TIP3    H177900   3.705   2.016   6.352 -1.0960  1.4352 -1.0783
18803TIP3    H277901   3.669   1.941   6.225  0.5369 -0.6379 -0.3423
18804TIP3   OH277902   6.311   6.550   3.936  0.1334 -0.2940  0.0292
18804TIP3    H177903   6.222   6.546   3.902  0.1414  0.3716 -0.0783
18804TIP3    H277904   6.330   6.460   3.965 -0.8610 -0.2522  0.8283
18805TIP3   OH277905   1.424   1.225   2.317  0.3561  0.5811 -0.2763
18805TIP3    H177906   1.514   1.196   2.330 -0.0991 -0.6184  0.2117
18805TIP3    H277907   1.406   1.207   2.225  0.3140 -0.0313 -0.1506
18806TIP3   OH277908   1.379   4.517   5.017 -0.3556  0.6749  0.1548
18806TIP3    H177909   1.361   4.471   5.099  0.6736  0.8407  0.4708
18806TIP3    H277910   1.309   4.488   4.958  0.1362 -1.0817  0.4330
18807TIP3   OH277911   2.959   6.033  16.292 -0.5924 -0.8863  0.3610
18807TIP3    H177912   2.980   6.126  16.300 -1.2163 -0.6231 -1.0736
18807TIP3    H277913   3.038   5.993  16.255 -0.4569 -0.8848  0.6401
18808TIP3   OH277914   5.119   0.318   0.814  0.1558 -0.5759  0.4042
18808TIP3    H177915   5.143   0.226   0.819 -0.2518 -0.6906  0.2440
18808TIP3    H277916   5.075   0.337   0.896 -0.2837 -0.6729  0.1906
18809TIP3   OH277917   6.377   4.622  11.772 -0.0091  0.0453 -0.3571
18809TIP3    H177918   6.306   4.596  11.713  0.0972  0.1532 -0.5349
18809TIP3    H277919   6.339   4.694  11.823 -0.6069 -1.0753  0.7896
18810TIP3   OH277920   1.011   1.560   3.496 -0.1638  0.2077  0.1437
18810TIP3    H177921   0.968   1.506   3.431  0.3309 -1.1463  0.9270
18810TIP3    H277922   0.940   1.613   3.535 -0.7747 -0.4698 -0.0464
18811TIP3   OH277923   3.617   3.517  16.379  0.3567  0.3785 -0.2359
18811TIP3    H177924   3.711   3.527  16.362  0.8993 -1.6884  1.3126
18811TIP3    H277925   3.609   3.428  16.416 -2.1793  0.5994 -0.1872
18812TIP3   OH277926   6.191   4.198  13.287 -0.4092 -0.0035 -0.1510
18812TIP3    H177927   6.278   4.192  13.249 -1.1460 -0.9900 -1.7591
18812TIP3    H277928   6.133   4.212  13.213 -1.7470 -0.5669  0.7509
18813TIP3   OH277929   4.665   0.339   4.539 -0.6009 -0.2172 -0.3149
18813TIP3    H177930   4.678   0.381   4.624  1.0090 -2.2493  0.4664
18813TIP3    H277931   4.623   0.255   4.559 -0.0096 -0.8111 -1.5104
18814TIP3   OH277932   2.261   3.257   2.257 -0.6467 -0.6179 -0.3026
18814TIP3    H177933   2.228   3.204   2.330  2.4475 -0.3475  1.4058
18814TIP3    H277934   2.224   3.344   2.273 -0.0456 -0.5732  0.9531
18815TIP3   OH277935   5.579   4.444  15.907 -0.4106 -0.1572 -0.1893
18815TIP3    H177936   5.667   4.473  15.884 -0.2211 -1.9322 -1.8129
18815TIP3    H277937   5.592   4.362  15.953 -1.2211 -0.4089 -0.4004
18816TIP3   OH277938   3.509   6.481   5.251 -0.2498  0.0890 -0.0364
18816TIP3    H177939   3.564   6.508   5.324  0.7492  0.5793 -0.9426
18816TIP3    H277940   3.545   6.397   5.223 -1.7419 -0.9592  1.1509
18817TIP3   OH277941   5.746   5.497  12.597  0.0656  0.5621 -0.1300
18817TIP3    H177942   5.751   5.436  12.523 -0.8982 -0.1038  0.3540
18817TIP3    H277943   5.654   5.524  12.600  0.5105  2.1932 -0.4560
18818TIP3   OH277944   2.262   2.203   0.610  0.3495 -0.0051  0.6754
18818TIP3    H177945   2.290   2.286   0.571  0.6748 -0.8966 -1.0770
18818TIP3    H277946   2.197   2.169   0.548 -0.2387 -0.7547  1.6981
18819TIP3   OH277947   1.867   5.613   6.211 -0.0414 -0.2255  0.5669
18819TIP3    H177948   1.895   5.693   6.167 -0.5678 -0.4026 -0.1103
18819TIP3    H277949   1.877   5.544   6.145  1.8749 -0.9959  1.6278
18820TIP3   OH277950   0.910   2.303  12.785  0.5380 -0.3210 -0.1411
18820TIP3    H177951   0.878   2.331  12.870  1.0946  0.1198 -0.0728
18820TIP3    H277952   0.976   2.236  12.805  0.6995 -0.1877 -0.2174
18821TIP3   OH277953   3.604   2.733   2.129 -0.2116 -0.0648 -0.3771
18821TIP3    H177954   3.613   2.764   2.039  3.0420  1.4161  0.4017
18821TIP3    H277955   3.611   2.812   2.183 -1.3613 -1.0237  1.2410
18822TIP3   OH277956   5.757   4.248   1.002 -0.8230 -0.4781 -0.6408
18822TIP3    H177957   5.787   4.244   0.912 -1.0353  0.3202 -0.7573
18822TIP3    H277958   5.718   4.163   1.019  1.8705 -1.6905 -0.3438
18823TIP3   OH277959   0.897   2.173  14.523 -0.1732  0.3448  0.3143
18823TIP3    H177960   0.967   2.138  14.578  0.6630 -0.0065 -0.9484
18823TIP3    H277961   0.819   2.122  14.547  0.5658 -0.9826 -0.0462
18824TIP3   OH277962   4.661   6.564   0.757 -0.5114  0.2370  0.0186
18824TIP3    H177963   4.568   6.573   0.739 -0.2779  0.1014 -1.3485
18824TIP3    H277964   4.702   6.628   0.698  0.3883 -1.2371 -0.9981
18825TIP3   OH277965   6.509   5.169  17.129  0.4100  0.0634  0.7186
18825TIP3    H177966   6.570   5.104  17.093 -0.5852 -0.4421 -0.0658
18825TIP3    H277967   6.537   5.180  17.220  2.0242  0.2533  0.2078
18826TIP3   OH277968   5.721   3.654  14.359 -0.3765 -0.2355 -0.0991
18826TIP3    H177969   5.643   3.609  14.389  0.1947 -0.5743  0.8733
18826TIP3    H277970   5.789   3.631  14.422 -0.1386  2.2101  0.6141
18827TIP3   OH277971   4.811   2.785   2.108  0.6053  0.2320  0.9178
18827TIP3    H177972   4.729   2.766   2.153  0.5914  0.7948  1.1362
18827TIP3    H277973   4.786   2.795   2.016  0.6261 -0.8665  0.7903
18828TIP3   OH277974   0.215   5.084   0.857  0.6697  0.1792  0.0979
18828TIP3    H177975   0.225   4.996   0.893  1.7335 -0.2049 -1.0949
18828TIP3    H277976   0.161   5.072   0.779 -1.7320  1.0232  1.5649
18829TIP3   OH277977   0.191   4.825   4.599 -0.3426  0.3536  0.3536
18829TIP3    H177978   0.219   4.798   4.511  1.3154 -0.9832  1.2663
18829TIP3    H277979   0.261   4.883   4.629 -0.5966  0.2961  1.0511
18830TIP3   OH277980   0.378   6.230  15.526 -0.5995 -0.2206 -0.5730
18830TIP3    H177981   0.327   6.294  15.477 -0.4734 -0.8469 -1.5475
18830TIP3    H277982   0.385   6.266  15.614 -0.2746  1.2365 -1.1903
18831TIP3   OH277983   6.110   0.047   4.574  0.2466 -0.0964  0.5208
18831TIP3    H177984   6.163   0.071   4.651  2.1821  0.2480 -0.8700
18831TIP3    H277985   6.105   0.127   4.522  2.3952 -1.2891 -1.6501
18832TIP3   OH277986   0.265   3.711  11.585  0.2696  0.4910  0.1770
18832TIP3    H177987   0.203   3.778  11.556  1.2495  1.6366  0.6424
18832TIP3    H277988   0.328   3.705  11.513  0.4437  0.4088  0.3368
18833TIP3   OH277989   1.746   3.952  13.306 -0.5427 -0.0443  0.0082
18833TIP3    H177990   1.806   3.959  13.381  1.0837 -0.8474 -1.1807
18833TIP3    H277991   1.678   3.892  13.336  0.1911 -0.5094  0.7880
18834TIP3   OH277992   2.079   3.080  15.182  0.5166  0.3398 -0.6886
18834TIP3    H177993   2.169   3.048  15.173 -0.2263 -1.8001 -0.9827
18834TIP3    H277994   2.036   3.052  15.101 -0.9469 -0.5689  0.3687
18835TIP3   OH277995   0.553   5.050   3.808 -0.0712  0.0678 -0.2345
18835TIP3    H177996   0.562   4.962   3.845 -0.0833 -0.3497 -1.2318
18835TIP3    H277997   0.472   5.048   3.757 -1.2768  1.3161  1.5567
18836TIP3   OH277998   5.697   2.294  17.083  0.0635 -0.3431  0.1573
18836TIP3    H177999   5.718   2.341  17.163  0.0456 -1.1104  0.6178
18836TIP3    H278000   5.608   2.321  17.061  0.1793  0.0956  0.2305
18837TIP3   OH278001   1.985   4.006   2.112  1.1455 -0.1376  0.2699
18837TIP3    H178002   1.926   3.932   2.093  0.2091  0.3152  1.3283
18837TIP3    H278003   1.942   4.082   2.072  0.0247  0.5201  2.6321
18838TIP3   OH278004   1.665   2.666   0.320  0.2800  0.5144 -0.6302
18838TIP3    H178005   1.620   2.727   0.262  1.4365  0.3641 -1.7125
18838TIP3    H278006   1.630   2.580   0.297  0.6789  0.4644 -1.0592
18839TIP3   OH278007   0.690   0.692  14.232 -0.1957  0.2083 -0.3483
18839TIP3    H178008   0.662   0.602  14.218  1.1045 -0.3213  0.4324
18839TIP3    H278009   0.707   0.726  14.143  0.4042 -0.6712 -0.5796
18840TIP3   OH278010   4.129   3.131   5.480 -0.1251  0.0388  0.1258
18840TIP3    H178011   4.161   3.101   5.564 -1.0054 -3.3278 -0.6585
18840TIP3    H278012   4.039   3.098   5.476  0.2084 -0.6799 -2.4675
18841TIP3   OH278013   1.618   2.338   6.458 -0.2201 -0.3902  0.1504
18841TIP3    H178014   1.646   2.247   6.465 -0.7555 -0.7846 -2.3574
18841TIP3    H278015   1.587   2.347   6.368 -1.1802  1.9958  0.6695
18842TIP3   OH278016   0.026   1.309   6.007 -0.1127 -0.1360  0.1332
18842TIP3    H178017   0.087   1.267   6.068  1.3820  0.7400 -0.7265
18842TIP3    H278018  -0.022   1.373   6.061 -1.9058 -2.3673  1.2948
18843TIP3   OH278019   3.443   0.387  11.575 -0.0843  0.2668  0.3385
18843TIP3    H178020   3.480   0.316  11.523 -1.6210 -0.5934  0.3773
18843TIP3    H278021   3.404   0.445  11.510 -2.0721 -0.8469  0.4892
18844TIP3   OH278022   0.456   6.004   6.091 -0.3154 -0.0572  0.3553
18844TIP3    H178023   0.409   5.923   6.112  0.0549  0.1153  1.9442
18844TIP3    H278024   0.485   6.037   6.176 -0.0044  1.4722 -0.3313
18845TIP3   OH278025   3.548   0.770  15.273  0.2193  0.2822 -0.1715
18845TIP3    H178026   3.575   0.854  15.310 -1.7112  0.8497 -0.0005
18845TIP3    H278027   3.543   0.786  15.179  2.1141 -0.3017 -0.3856
18846TIP3   OH278028   5.884   5.445   0.318 -0.0123  0.3226 -0.3957
18846TIP3    H178029   5.805   5.391   0.322  0.1949  0.1396  2.0396
18846TIP3    H278030   5.931   5.412   0.242 -1.6142 -0.5100 -1.0538
18847TIP3   OH278031   4.262   4.173  14.500 -0.5704 -0.3808  0.0609
18847TIP3    H178032   4.198   4.225  14.549  0.9555 -0.6307  2.4374
18847TIP3    H278033   4.345   4.189  14.545  0.6010 -1.9624 -1.4623
18848TIP3   OH278034   6.087   1.044   2.238 -0.1362  0.3474 -0.7803
18848TIP3    H178035   6.006   1.093   2.248 -0.0734  0.2717  0.1309
18848TIP3    H278036   6.131   1.085   2.164 -2.2536 -1.3267 -3.0612
18849TIP3   OH278037   1.019   4.337  17.216  0.2180 -0.9818 -0.5738
18849TIP3    H178038   1.036   4.431  17.214  3.0646 -1.4160  0.9413
18849TIP3    H278039   0.989   4.316  17.128 -0.6372  1.3658 -0.8691
18850TIP3   OH278040   3.501   5.535  14.054  0.8511  0.1167 -0.2041
18850TIP3    H178041   3.478   5.506  14.142  1.2892  1.1571  0.2572
18850TIP3    H278042   3.426   5.587  14.025  1.1402  0.6213 -0.0488
18851TIP3   OH278043   1.511   0.596   0.390  0.8059 -0.1465 -0.0311
18851TIP3    H178044   1.497   0.513   0.434 -0.1530 -1.1445 -2.1555
18851TIP3    H278045   1.535   0.657   0.460 -0.1011 -1.8063  1.7578
18852TIP3   OH278046   6.669   1.611  15.491  0.6740  0.2390  0.7808
18852TIP3    H178047   6.687   1.639  15.401 -0.7232 -0.2548  0.3218
18852TIP3    H278048   6.643   1.691  15.537 -3.8035 -0.2171 -0.6512
18853TIP3   OH278049   6.714   1.169   1.666 -0.4349  0.1719 -0.1978
18853TIP3    H178050   6.703   1.213   1.582 -3.6874 -0.1571  0.0126
18853TIP3    H278051   6.699   1.076   1.647  0.7445 -0.1515  0.4021
18854TIP3   OH278052   3.754   3.768  14.060 -0.2550  0.3581  0.3600
18854TIP3    H178053   3.835   3.729  14.028 -1.2695  0.2237 -2.1511
18854TIP3    H278054   3.714   3.700  14.115 -1.5768 -1.9527 -3.2511
18855TIP3   OH278055   4.080   2.315  10.433  0.3540  0.6066  0.1212
18855TIP3    H178056   4.014   2.255  10.468 -1.0213  1.4284 -0.9867
18855TIP3    H278057   4.138   2.334  10.507 -0.4471 -0.4046  1.0181
18856TIP3   OH278058   1.593   1.690  15.849 -0.1039 -0.5613  0.2922
18856TIP3    H178059   1.657   1.714  15.916  0.6297 -0.0103 -0.5909
18856TIP3    H278060   1.509   1.691  15.894  0.3786 -0.1134  1.1862
18857TIP3   OH278061   1.832   2.238   5.752  0.6088  0.0176 -0.6024
18857TIP3    H178062   1.762   2.229   5.817  0.7070 -1.7828 -0.7150
18857TIP3    H278063   1.797   2.300   5.688 -1.2383 -1.4418 -1.0643
18858TIP3   OH278064   3.064   1.656  12.083 -0.6340  0.1342  0.2691
18858TIP3    H178065   3.133   1.657  12.149 -1.2957  0.0734  0.9760
18858TIP3    H278066   3.052   1.563  12.061 -1.0727  0.0657  0.7781
18859TIP3   OH278067   2.356   5.891  11.008  0.0455 -0.4072  0.2484
18859TIP3    H178068   2.287   5.864  10.946  0.5728 -1.6890  0.1921
18859TIP3    H278069   2.389   5.974  10.973 -1.0963 -0.0602 -0.0200
18860TIP3   OH278070   4.283   1.367  14.836  0.5536 -0.3962  0.0602
18860TIP3    H178071   4.302   1.378  14.930 -0.5399  2.6464  0.0014
18860TIP3    H278072   4.366   1.388  14.793  1.1367 -2.0786  0.3556
18861TIP3   OH278073   6.761   1.104   4.811  0.4728 -0.0026  0.2915
18861TIP3    H178074   6.795   1.041   4.747 -0.9088 -1.4016  0.8932
18861TIP3    H278075   6.820   1.097   4.885 -0.5175 -1.7498  0.9657
18862TIP3   OH278076   1.431   2.552   3.101  0.3356  0.0433 -0.1799
18862TIP3    H178077   1.491   2.622   3.126  0.4627 -1.1482  3.0480
18862TIP3    H278078   1.477   2.472   3.124 -1.0143 -1.0198 -1.1019
18863TIP3   OH278079   6.543   5.234   0.131  0.3601  0.6291  0.6420
18863TIP3    H178080   6.478   5.304   0.136  0.2623  0.4421  2.2124
18863TIP3    H278081   6.627   5.279   0.147  0.3734  0.5047  0.9264
18864TIP3   OH278082   2.198   1.199  10.457  0.0775  0.4943 -0.1007
18864TIP3    H178083   2.122   1.248  10.489 -0.1989  0.2992 -0.4602
18864TIP3    H278084   2.209   1.128  10.520 -0.1471  0.4189 -0.1463
18865TIP3   OH278085   4.383   2.372   2.546  0.0354  0.5164 -0.2953
18865TIP3    H178086   4.297   2.392   2.509 -2.0650  0.9771  4.4418
18865TIP3    H278087   4.409   2.291   2.502 -3.3441 -0.2702 -1.0596
18866TIP3   OH278088   4.728   1.944   3.851  0.1035  0.4730  0.0392
18866TIP3    H178089   4.701   2.035   3.839 -1.2076 -0.2162 -2.5499
18866TIP3    H278090   4.707   1.924   3.942  0.0213  2.6462  0.4999
18867TIP3   OH278091   2.758   3.333  11.885  0.3173 -0.2053 -0.6791
18867TIP3    H178092   2.672   3.299  11.861  0.2465  0.4106 -1.3131
18867TIP3    H278093   2.749   3.428  11.879  0.3250 -0.0127  1.7002
18868TIP3   OH278094   5.191   1.956  15.025  0.5669  0.2055 -0.5025
18868TIP3    H178095   5.207   1.882  15.083 -0.6252  0.2011 -0.1744
18868TIP3    H278096   5.277   1.980  14.992  1.0783 -0.6715  0.1964
18869TIP3   OH278097   6.722   5.756   3.523 -0.1287  0.0599 -0.2432
18869TIP3    H178098   6.682   5.842   3.535  1.4590  0.6214  1.2872
18869TIP3    H278099   6.772   5.742   3.604  0.1886 -1.9935 -0.7770
18870TIP3   OH278100   1.585   3.238   3.077 -0.5966 -0.6608  0.4708
18870TIP3    H178101   1.626   3.322   3.056  1.1403 -2.0210 -1.7248
18870TIP3    H278102   1.569   3.243   3.171 -0.1636  1.9719  0.4513
18871TIP3   OH278103   5.747   0.223   4.264  0.2022 -0.1378 -0.2384
18871TIP3    H178104   5.717   0.193   4.179 -0.1834 -0.1835 -0.0836
18871TIP3    H278105   5.843   0.215   4.260  0.1953  0.0742 -0.7454
18872TIP3   OH278106   1.157   2.674   4.556 -0.3232 -0.3209 -0.2524
18872TIP3    H178107   1.070   2.682   4.517 -1.6298  1.0613  2.7510
18872TIP3    H278108   1.194   2.762   4.551 -0.4109 -0.1765  1.2815
18873TIP3   OH278109   4.368   4.124   4.064  0.4612  0.1150  0.3005
18873TIP3    H178110   4.453   4.100   4.027  0.0141 -1.1029  0.0529
18873TIP3    H278111   4.310   4.051   4.040 -1.2881  2.0949 -1.7365
18874TIP3   OH278112   3.843   3.414   3.582 -0.0479  0.1703  0.0318
18874TIP3    H178113   3.896   3.334   3.584 -0.3674 -0.0371  0.3492
18874TIP3    H278114   3.799   3.411   3.498 -0.8444 -0.5096  0.4631
18875TIP3   OH278115   1.378   1.459   5.710  0.5904 -0.3724 -0.5484
18875TIP3    H178116   1.410   1.371   5.690  0.6825  0.0818 -2.5362
18875TIP3    H278117   1.289   1.461   5.676  0.0172 -0.1781  0.9160
18876TIP3   OH278118   3.929   1.197   0.366  1.1478  0.0786  0.8710
18876TIP3    H178119   3.844   1.156   0.349  1.0663  0.2106  0.9611
18876TIP3    H278120   3.913   1.291   0.358  1.6545  0.0514 -0.8008
18877TIP3   OH278121   0.194   6.151   3.810 -0.2951  0.3887 -0.3839
18877TIP3    H178122   0.105   6.119   3.823 -0.2446  0.9444  1.4183
18877TIP3    H278123   0.224   6.108   3.730 -1.6777 -0.8804 -0.2271
18878TIP3   OH278124   2.553   2.746   2.124  0.4332  0.3611 -0.4426
18878TIP3    H178125   2.494   2.820   2.108  1.9546  1.9937  1.2983
18878TIP3    H278126   2.596   2.767   2.207  1.5224 -2.0885 -0.3405
18879TIP3   OH278127   2.144   4.491   4.511 -0.3558 -0.4034 -0.6360
18879TIP3    H178128   2.119   4.465   4.422  0.8919  0.4963 -1.2646
18879TIP3    H278129   2.176   4.410   4.551  0.2197 -0.5727 -1.4186
18880TIP3   OH278130   5.495   1.926   1.539 -0.8099 -0.1352 -0.0397
18880TIP3    H178131   5.452   1.842   1.554 -0.1488 -0.0854  2.4622
18880TIP3    H278132   5.455   1.986   1.602  0.2281  0.8814 -0.3150
18881TIP3   OH278133   1.981   1.144  15.253 -0.2599  0.8616 -0.5168
18881TIP3    H178134   2.056   1.193  15.286  1.1851 -0.2298 -2.0712
18881TIP3    H278135   1.924   1.210  15.214 -0.0262  1.6758  0.5016
18882TIP3   OH278136   6.521   3.073  16.466 -0.4878 -0.3448 -0.0670
18882TIP3    H178137   6.595   3.013  16.461  0.8301  1.0153  2.1574
18882TIP3    H278138   6.483   3.072  16.378  2.6084 -0.5484 -1.4610
18883TIP3   OH278139   4.859   6.104  13.100 -0.6126 -0.1378  0.0683
18883TIP3    H178140   4.796   6.076  13.032 -1.0959  0.9176  0.0789
18883TIP3    H278141   4.808   6.160  13.158  0.0810 -0.1557  0.6995
18884TIP3   OH278142   0.021   4.436  12.289 -0.2803 -0.0190  0.4057
18884TIP3    H178143   0.000   4.527  12.265  0.2741 -0.4766 -1.9746
18884TIP3    H278144  -0.040   4.383  12.237  0.1802 -1.0431  0.8969
18885TIP3   OH278145   1.335   5.811  11.703 -0.8307 -0.7210 -0.2476
18885TIP3    H178146   1.380   5.896  11.705 -3.4291  0.6841  2.3987
18885TIP3    H278147   1.403   5.748  11.679  1.5032  1.8975 -0.7653
18886TIP3   OH278148   0.386   4.320   2.614 -0.2401  0.0412  0.6189
18886TIP3    H178149   0.464   4.282   2.655 -0.5850 -0.5817  0.6946
18886TIP3    H278150   0.402   4.312   2.520  0.4462  1.2588  0.6198
18887TIP3   OH278151   5.579   3.122  13.939 -0.4496  0.0067 -0.7778
18887TIP3    H178152   5.564   3.194  13.878  0.0236 -0.2117 -1.1563
18887TIP3    H278153   5.519   3.139  14.012 -0.5011  0.6563 -0.9699
18888TIP3   OH278154   0.825   4.239   0.964  0.2817  0.0615 -0.1920
18888TIP3    H178155   0.874   4.182   1.023  0.1491  2.4685  2.3544
18888TIP3    H278156   0.747   4.189   0.941  0.3596 -0.9437  1.6612
18889TIP3   OH278157   1.221   3.148  10.924  0.3748  0.1504 -0.2186
18889TIP3    H178158   1.293   3.159  10.862  0.4209 -0.5992 -0.3043
18889TIP3    H278159   1.259   3.095  10.995  0.4449  1.3496  0.6554
18890TIP3   OH278160   5.276   2.658   4.126  0.1343 -0.2115 -0.4967
18890TIP3    H178161   5.243   2.715   4.196 -1.1256 -0.3739 -0.9387
18890TIP3    H278162   5.335   2.713   4.076 -1.1154  0.7359 -0.9486
18891TIP3   OH278163   4.603   0.501   4.336 -0.6672  0.5293  0.4420
18891TIP3    H178164   4.549   0.556   4.392 -1.0560  1.1248 -0.4959
18891TIP3    H278165   4.613   0.419   4.384 -0.4352  1.2658  1.6655
18892TIP3   OH278166   1.486   2.410   3.867  0.0194 -0.1267  0.4734
18892TIP3    H178167   1.403   2.399   3.820 -0.4525  0.1641  1.2263
18892TIP3    H278168   1.545   2.346   3.826 -0.6933 -0.6290  0.2052
18893TIP3   OH278169   3.061   6.442   4.052 -0.0701 -0.1249  0.2583
18893TIP3    H178170   3.104   6.460   3.968  1.0095  0.8122  1.0074
18893TIP3    H278171   3.129   6.457   4.118 -1.6870  1.9217  1.4961
18894TIP3   OH278172   4.529   1.933  15.845 -0.0041  0.3789 -0.0390
18894TIP3    H178173   4.562   1.928  15.755 -0.5678  1.4602 -0.3169
18894TIP3    H278174   4.601   1.970  15.895  0.9319 -1.8663  0.2927
18895TIP3   OH278175   6.177   5.308  11.869 -0.0081 -0.6450  0.2145
18895TIP3    H178176   6.097   5.354  11.891 -0.1793 -1.6823  1.8080
18895TIP3    H278177   6.217   5.286  11.953  2.2278  0.3138 -0.5321
18896TIP3   OH278178   1.574   0.917  17.033  0.1025 -0.1532  0.0505
18896TIP3    H178179   1.516   0.906  16.957 -2.4352 -0.9048  1.9889
18896TIP3    H278180   1.526   0.975  17.091  2.0780  0.5235  1.0424
18897TIP3   OH278181   0.699   3.332   4.405 -0.4376 -0.6470  0.0966
18897TIP3    H178182   0.721   3.396   4.337 -1.6488 -3.0433 -2.6355
18897TIP3    H278183   0.764   3.262   4.393 -0.4549 -0.9344  1.6489
18898TIP3   OH278184   2.310   6.337  14.446  0.2849 -0.1133  0.8086
18898TIP3    H178185   2.234   6.280  14.436  0.6502 -0.5922  0.7395
18898TIP3    H278186   2.294   6.409  14.385 -0.3459  0.0392  1.1534
18899TIP3   OH278187   6.773   0.382  14.578 -0.1766  0.6342  0.2284
18899TIP3    H178188   6.736   0.294  14.576  1.1485  0.0837 -1.1445
18899TIP3    H278189   6.716   0.431  14.636 -1.9793 -0.6586 -0.4196
18900TIP3   OH278190   3.890   3.700   0.943  0.1910 -0.3660 -0.2091
18900TIP3    H178191   3.934   3.698   1.028  0.6054  0.5980 -0.3984
18900TIP3    H278192   3.921   3.621   0.899  1.2933  0.0021 -0.1182
18901TIP3   OH278193   3.220   4.180  15.599 -0.5424 -0.4453  0.2769
18901TIP3    H178194   3.191   4.271  15.590 -0.0599 -0.1796  1.4728
18901TIP3    H278195   3.191   4.154  15.686 -0.1954 -1.2701  0.1483
18902TIP3   OH278196   5.346   4.241   5.150 -0.7032  0.4473 -0.2716
18902TIP3    H178197   5.276   4.177   5.134 -0.0255 -0.1951 -0.7092
18902TIP3    H278198   5.411   4.222   5.083  0.3653  0.3584  0.7765
18903TIP3   OH278199   5.629   3.828  15.300 -0.1062 -0.0483  0.1052
18903TIP3    H178200   5.693   3.829  15.371  1.1925  0.5981 -1.0386
18903TIP3    H278201   5.681   3.809  15.222 -1.0178  2.3063 -1.1300
18904TIP3   OH278202   5.258   5.385   2.587  0.0514 -0.0299 -0.2067
18904TIP3    H178203   5.177   5.335   2.589  0.4597 -0.6940 -0.1578
18904TIP3    H278204   5.288   5.386   2.678 -0.9891  2.0172  0.1460
18905TIP3   OH278205   3.916   2.586  16.649 -0.2971 -0.2602 -0.3603
18905TIP3    H178206   3.970   2.522  16.604 -0.3285 -0.8777  0.4550
18905TIP3    H278207   3.842   2.535  16.683 -2.5386  0.9116 -3.2641
18906TIP3   OH278208   1.920   4.336   3.900  0.3611  0.5269 -0.2682
18906TIP3    H178209   1.920   4.421   3.944  0.7946  0.1820  0.4247
18906TIP3    H278210   1.868   4.348   3.822 -2.2234  0.6209  1.4216
18907TIP3   OH278211   1.759   0.775  10.518  0.2617 -0.8208  0.2077
18907TIP3    H178212   1.723   0.853  10.475  0.7698 -2.4945 -3.4512
18907TIP3    H278213   1.828   0.810  10.575 -0.0646  1.4954 -0.7397
18908TIP3   OH278214   0.423   1.648   6.365 -0.7589  0.4211 -0.6321
18908TIP3    H178215   0.501   1.598   6.390  1.2159  1.4946 -4.2844
18908TIP3    H278216   0.370   1.586   6.314 -1.2989  0.3104  0.0542
18909TIP3   OH278217   4.511   0.755  13.961  0.3475  0.3246  0.1142
18909TIP3    H178218   4.562   0.705  13.897  0.7887 -0.9227  1.4010
18909TIP3    H278219   4.459   0.816  13.909  2.1890  0.7384 -1.3245
18910TIP3   OH278220   2.901   2.270   4.609 -0.4770 -0.0352 -0.2344
18910TIP3    H178221   2.837   2.265   4.538  1.1696 -1.6174 -1.6450
18910TIP3    H278222   2.922   2.179   4.630  1.3057  0.4507  0.2004
18911TIP3   OH278223   2.925   2.248   6.217  0.3362  0.2657  0.0174
18911TIP3    H178224   2.914   2.249   6.313  0.0953  0.9222 -0.0185
18911TIP3    H278225   2.944   2.156   6.197  1.5998  0.3328  0.8313
18912TIP3   OH278226   4.380   4.809  11.328 -0.4959  0.2822 -0.3108
18912TIP3    H178227   4.312   4.773  11.271  1.5152 -2.8230 -0.8684
18912TIP3    H278228   4.438   4.858  11.269 -0.8172  0.7538 -0.2361
18913TIP3   OH278229   0.394   0.267   0.458  0.3113  0.2714  0.3743
18913TIP3    H178230   0.416   0.178   0.487  1.2999  0.5336  0.4562
18913TIP3    H278231   0.399   0.263   0.363 -1.3400 -0.1839  0.2924
18914TIP3   OH278232   3.416   4.683  17.148 -0.2192  0.1962 -0.7092
18914TIP3    H178233   3.493   4.741  17.144  1.4346 -1.8429  0.5336
18914TIP3    H278234   3.434   4.615  17.083 -1.0743 -0.1881 -0.5431
18915TIP3   OH278235   4.963   4.007  12.427  0.6646 -0.3247  0.3747
18915TIP3    H178236   4.897   3.942  12.404 -0.3841  0.7252  0.4015
18915TIP3    H278237   5.025   4.005  12.354  1.2906 -2.1975  0.9370
18916TIP3   OH278238   6.819   5.277  13.018  0.2583  0.0930  0.5728
18916TIP3    H178239   6.907   5.246  12.995 -0.6543 -0.8103 -1.7944
18916TIP3    H278240   6.784   5.313  12.937 -1.6894  0.1756  1.4244
18917TIP3   OH278241   1.492   3.870  11.811  0.6282 -0.6911  0.0610
18917TIP3    H178242   1.453   3.906  11.731 -1.4571 -0.4942  1.1488
18917TIP3    H278243   1.418   3.845  11.865  2.0322 -1.5003  1.6540
18918TIP3   OH278244   3.981   2.088   1.544  0.1858  0.0051  0.3417
18918TIP3    H178245   3.937   2.103   1.628  0.2540 -0.3598  0.4446
18918TIP3    H278246   3.961   2.165   1.492  0.4495  0.4057  0.8290
18919TIP3   OH278247   4.414   2.115   2.446  0.5182 -0.2927  0.1500
18919TIP3    H178248   4.418   2.078   2.357 -1.7729 -0.4003  0.0446
18919TIP3    H278249   4.414   2.039   2.503  0.5301 -0.2839  0.1613
18920TIP3   OH278250   4.492   1.836   5.687 -0.1796 -0.0182  0.2458
18920TIP3    H178251   4.470   1.874   5.772  2.3573  0.5405  0.6963
18920TIP3    H278252   4.520   1.747   5.707 -2.5525 -0.9329 -0.3847
18921TIP3   OH278253   5.121   2.762  14.329 -0.2253  0.1616 -0.0245
18921TIP3    H178254   5.156   2.801  14.249 -2.3504 -0.5015 -1.3155
18921TIP3    H278255   5.196   2.717  14.369  1.0526  1.2653 -1.1538
18922TIP3   OH278256   2.949   0.314  17.287 -0.7395  0.0821  0.1937
18922TIP3    H178257   2.968   0.259  17.362 -1.2506  0.9078  0.9299
18922TIP3    H278258   2.964   0.403  17.317  2.3421  0.2765 -1.6467
18923TIP3   OH278259   1.351   5.386  12.520 -0.1090  0.3488  0.1221
18923TIP3    H178260   1.297   5.311  12.495  1.2532 -0.2797 -0.9824
18923TIP3    H278261   1.304   5.426  12.593 -0.9838 -1.4392  0.5660
18924TIP3   OH278262   3.960   2.342   0.397 -0.2093 -0.2510 -0.0449
18924TIP3    H178263   3.918   2.403   0.458  0.1161  0.1673 -0.2431
18924TIP3    H278264   3.987   2.269   0.452 -0.5785 -0.2094  0.1961
18925TIP3   OH278265   4.827   4.537  14.794  0.5236 -0.2032  0.6340
18925TIP3    H178266   4.837   4.554  14.888  1.1237 -1.9587  0.9002
18925TIP3    H278267   4.828   4.624  14.754 -1.3690  0.6813  2.4027
18926TIP3   OH278268   3.539   4.471   2.893 -0.7466  0.5099  0.0839
18926TIP3    H178269   3.527   4.565   2.885 -3.1602  0.1698 -0.8713
18926TIP3    H278270   3.459   4.434   2.855 -0.1184 -1.9003  1.0327
18927TIP3   OH278271   6.137   1.321   0.702 -0.2613 -0.1748 -0.3124
18927TIP3    H178272   6.117   1.282   0.617  0.7305 -0.8837 -0.2278
18927TIP3    H278273   6.147   1.414   0.684  0.9213 -0.4543 -1.1494
18928TIP3   OH278274   1.066   0.871  13.809 -0.9198 -0.0202 -0.7707
18928TIP3    H178275   1.033   0.958  13.790  0.3247  0.3062 -1.4496
18928TIP3    H278276   1.004   0.812  13.766 -1.8637  0.5098 -0.1574
18929TIP3   OH278277   4.674   4.271  13.223 -0.2266 -0.1145 -0.4881
18929TIP3    H178278   4.764   4.303  13.228 -1.0221  2.2078 -0.5278
18929TIP3    H278279   4.665   4.212  13.298  0.6816  1.3627  0.8083
18930TIP3   OH278280   1.149   1.668  14.376 -0.4092  0.2739  0.4799
18930TIP3    H178281   1.071   1.722  14.372 -0.7772 -0.2175  0.9095
18930TIP3    H278282   1.118   1.582  14.405  0.3940  0.3145  1.5309
18931TIP3   OH278283   1.440   6.389   3.588 -0.2280 -0.0012  0.1370
18931TIP3    H178284   1.500   6.328   3.545 -0.2442 -0.6155  0.9739
18931TIP3    H278285   1.400   6.338   3.658 -1.0488  0.6685  0.1685
18932TIP3   OH278286   4.652   5.174  14.394 -0.0244 -0.6138 -0.0561
18932TIP3    H178287   4.667   5.248  14.453 -3.4454 -0.8763  1.2775
18932TIP3    H278288   4.660   5.211  14.306 -1.0770  1.2094  0.5813
18933TIP3   OH278289   5.052   6.286   2.636  0.4102 -0.2190 -0.1473
18933TIP3    H178290   5.058   6.190   2.636  0.1750 -0.2609  2.1317
18933TIP3    H278291   5.033   6.308   2.727  3.3681  2.1794 -0.0473
18934TIP3   OH278292   1.947   2.390  16.734 -0.0481 -0.0699  0.2046
18934TIP3    H178293   1.909   2.477  16.746  1.0489  0.6798 -1.6585
18934TIP3    H278294   1.914   2.361  16.649  0.0813 -1.2340  0.5400
18935TIP3   OH278295   1.243   0.390  13.351  0.1676  0.5573  0.0758
18935TIP3    H178296   1.292   0.466  13.382  0.3902  0.2070  0.6055
18935TIP3    H278297   1.306   0.318  13.353 -0.3167  0.1309  0.6231
18936TIP3   OH278298   5.157   3.567  11.807  0.1463  0.0612  0.6518
18936TIP3    H178299   5.243   3.572  11.850  0.5557 -0.2666 -0.1184
18936TIP3    H278300   5.177   3.571  11.713 -0.7074  0.3044  0.4782
18937TIP3   OH278301   5.832   3.863   0.387  0.0981 -0.0250  0.3266
18937TIP3    H178302   5.763   3.799   0.408  0.3576 -0.1253  0.8698
18937TIP3    H278303   5.861   3.837   0.300  0.2748 -0.7196  0.5861
18938TIP3   OH278304   5.927   0.461   3.518  0.6215  0.0595  1.1935
18938TIP3    H178305   5.958   0.372   3.534  0.0058 -0.2401  0.7425
18938TIP3    H278306   5.946   0.477   3.425 -2.7355 -1.0245  0.2444
18939TIP3   OH278307   2.466   4.714  12.865 -0.2884  0.3863  0.4894
18939TIP3    H178308   2.455   4.677  12.953 -1.6298  0.7597  0.4821
18939TIP3    H278309   2.453   4.808  12.876 -2.4603  0.2290 -0.4226
18940TIP3   OH278310   5.669   1.316   5.341  0.2457 -0.3059  0.5423
18940TIP3    H178311   5.588   1.280   5.307  1.7972 -2.9113 -0.5676
18940TIP3    H278312   5.642   1.375   5.412 -2.5976 -0.6953 -0.1831
18941TIP3   OH278313   2.156   2.814   2.601 -0.1920  0.0487 -0.4913
18941TIP3    H178314   2.232   2.764   2.571  0.2641  0.4395 -0.0130
18941TIP3    H278315   2.183   2.850   2.686 -0.4853  1.1463 -0.8495
18942TIP3   OH278316   5.739   1.667   3.673 -0.1111  0.1834 -0.0672
18942TIP3    H178317   5.818   1.648   3.622  0.1164  0.4977  0.1669
18942TIP3    H278318   5.674   1.604   3.641  1.1183 -2.1633  1.8893
18943TIP3   OH278319   3.086   0.953  12.266 -0.3351  0.6197 -0.3238
18943TIP3    H178320   3.034   0.962  12.346 -0.1391 -1.9212  0.1233
18943TIP3    H278321   3.024   0.969  12.195 -0.8608  1.3200  0.2797
18944TIP3   OH278322   2.774   6.355  15.732 -0.0400  0.0058  0.7312
18944TIP3    H178323   2.765   6.269  15.690 -3.5973  0.7531 -0.2217
18944TIP3    H278324   2.842   6.399  15.681 -1.0296 -0.7948 -1.3210
18945TIP3   OH278325   3.937   6.432  12.821  0.2303  0.0734 -0.4974
18945TIP3    H178326   3.907   6.456  12.908 -0.5259  0.7208 -0.9347
18945TIP3    H278327   3.914   6.507  12.766  0.5061 -0.4205 -1.2916
18946TIP3   OH278328   1.139   3.136  13.084  0.1399  0.6200 -0.1720
18946TIP3    H178329   1.096   3.203  13.031  0.2201 -0.6028 -1.7992
18946TIP3    H278330   1.070   3.103  13.141  0.1410  2.1917  0.7846
18947TIP3   OH278331   3.217   3.375   2.676 -0.6855  0.2729 -0.0656
18947TIP3    H178332   3.279   3.417   2.615 -1.5029  0.7391 -0.5761
18947TIP3    H278333   3.141   3.433   2.677 -1.3367 -0.5792  0.1544
18948TIP3   OH278334   3.029   2.035   3.542 -0.2457 -0.6036  0.0593
18948TIP3    H178335   2.991   1.982   3.612  1.2000 -0.3258  1.0622
18948TIP3    H278336   3.005   1.988   3.462 -0.4727 -1.8259  0.8274
18949TIP3   OH278337   1.081   0.772  13.429  0.2512 -0.6389  0.1711
18949TIP3    H178338   0.999   0.769  13.378  0.0312 -0.0331  0.4889
18949TIP3    H278339   1.067   0.843  13.492  1.9201  1.0443 -1.2966
18950TIP3   OH278340   5.822   3.887  16.698  0.2423  0.1594 -0.0592
18950TIP3    H178341   5.817   3.810  16.642  0.8816  0.1123 -0.0503
18950TIP3    H278342   5.916   3.906  16.705  0.0990  0.8684  0.0248
18951TIP3   OH278343   6.090   0.978   4.000 -0.2193 -0.3536 -0.1604
18951TIP3    H178344   6.141   1.056   3.981 -0.7730  0.0113 -0.1422
18951TIP3    H278345   6.010   0.988   3.950 -1.2540  0.1308  1.5291
18952TIP3   OH278346   6.128   5.300   1.298  0.0470  0.4186 -0.0781
18952TIP3    H178347   6.202   5.360   1.301 -0.3485  0.8767  0.5248
18952TIP3    H278348   6.102   5.288   1.389 -0.7520  0.4220 -0.2993
18953TIP3   OH278349   5.730   3.082   0.334  0.1190 -0.2162  0.0592
18953TIP3    H178350   5.723   3.107   0.242  1.3668 -1.1864 -0.2998
18953TIP3    H278351   5.785   3.149   0.373  0.3700 -0.3321 -0.0981
18954TIP3   OH278352   2.385   3.293  12.744 -0.0839  0.1940  0.5130
18954TIP3    H178353   2.344   3.213  12.778  0.8173 -0.8139 -0.7302
18954TIP3    H278354   2.363   3.294  12.651  1.3012  0.5278  0.1826
18955TIP3   OH278355   1.721   2.370  17.259 -0.1216  0.1019 -0.3721
18955TIP3    H178356   1.720   2.286  17.214  0.8130 -0.8326  1.2778
18955TIP3    H278357   1.779   2.356  17.334 -0.0746  2.1791  0.0100
18956TIP3   OH278358   5.724   3.465  14.097 -0.4022  0.4986 -0.6808
18956TIP3    H178359   5.790   3.527  14.130 -0.6250  0.6431 -0.4995
18956TIP3    H278360   5.706   3.408  14.172 -1.1914  1.0660 -0.4219
18957TIP3   OH278361   1.708   1.551   4.207  0.5065  0.3008 -0.6468
18957TIP3    H178362   1.790   1.592   4.178  1.3007 -0.6026  0.2608
18957TIP3    H278363   1.717   1.544   4.302 -0.5142 -0.0560 -0.5693
18958TIP3   OH278364   6.508   2.930   0.284  1.0407  0.4389  0.0797
18958TIP3    H178365   6.521   2.847   0.237 -1.2451 -0.6479  1.2695
18958TIP3    H278366   6.596   2.957   0.309  1.7630 -2.1715  0.5356
18959TIP3   OH278367   6.370   5.677   4.124  0.3372  0.5711 -0.2619
18959TIP3    H178368   6.409   5.748   4.074 -0.1479  0.3284 -0.9996
18959TIP3    H278369   6.276   5.695   4.123  0.5248  2.1398  3.0323
18960TIP3   OH278370   6.796   4.782  16.162  0.3114  0.2147 -0.1426
18960TIP3    H178371   6.741   4.850  16.201  0.1978  0.3933 -0.6167
18960TIP3    H278372   6.842   4.826  16.090  1.5798  0.2404  0.6597
18961TIP3   OH278373   1.744   6.394  10.458  0.2191 -0.3635  0.0458
18961TIP3    H178374   1.812   6.458  10.478 -1.8045  1.0328  2.9451
18961TIP3    H278375   1.692   6.435  10.389  0.7436 -0.2463 -0.2818
18962TIP3   OH278376   4.836   3.477  11.447  0.6909  0.2700 -0.4564
18962TIP3    H178377   4.840   3.573  11.454  0.4893  0.3494 -1.4382
18962TIP3    H278378   4.915   3.453  11.398 -0.1686  0.0797 -1.7439
18963TIP3   OH278379   4.880   6.745   4.169 -0.2709 -0.3441  0.1170
18963TIP3    H178380   4.875   6.832   4.208 -0.7435 -0.0198 -0.6731
18963TIP3    H278381   4.887   6.760   4.075 -0.2333 -1.1538 -0.0179
18964TIP3   OH278382   6.685   3.423  16.922  0.3032 -0.0795  0.0368
18964TIP3    H178383   6.669   3.331  16.942  1.7815 -0.3569 -0.0177
18964TIP3    H278384   6.652   3.434  16.833 -0.2306 -0.4688  0.1886
18965TIP3   OH278385   0.872   1.040  13.305 -0.3622 -0.3623 -0.0546
18965TIP3    H178386   0.898   1.016  13.394  0.4861 -2.1350 -0.7546
18965TIP3    H278387   0.778   1.057  13.312 -0.5498 -1.6878  0.9518
18966TIP3   OH278388   0.395   2.442   4.421  0.0489 -0.7840 -0.1186
18966TIP3    H178389   0.355   2.523   4.452 -0.3343 -0.1909 -2.1282
18966TIP3    H278390   0.431   2.402   4.500 -0.2069  1.0822  0.9699
18967TIP3   OH278391   1.909   5.141   5.034 -0.3999 -0.4881  0.2795
18967TIP3    H178392   1.817   5.115   5.032 -0.7392  0.7731 -0.7451
18967TIP3    H278393   1.944   5.114   4.949 -0.1755  0.2955  0.1194
18968TIP3   OH278394   1.682   6.141  11.426 -0.6152 -0.1099  0.2009
18968TIP3    H178395   1.620   6.071  11.402 -0.0233 -0.6574  0.2412
18968TIP3    H278396   1.718   6.171  11.342 -0.0430 -0.6274  0.2597
18969TIP3   OH278397   3.230   1.790  14.298 -0.3876 -0.0835 -0.4209
18969TIP3    H178398   3.232   1.714  14.356 -0.5903 -0.7674 -1.3001
18969TIP3    H278399   3.281   1.764  14.222 -0.3372  0.7147 -0.6646
18970TIP3   OH278400   0.957   5.851   1.155  0.1225 -0.3697  0.2686
18970TIP3    H178401   1.010   5.773   1.172  1.0827  0.4166  0.9011
18970TIP3    H278402   0.971   5.869   1.062 -0.5863 -1.3024 -0.0279
18971TIP3   OH278403   0.736   5.929  14.080 -0.1648 -0.0663 -0.4016
18971TIP3    H178404   0.655   5.972  14.108 -1.5194 -2.6263 -0.2082
18971TIP3    H278405   0.791   5.930  14.158 -1.1322 -0.8148  0.3145
18972TIP3   OH278406   2.948   0.803  11.569  0.1117 -0.4670 -0.2877
18972TIP3    H178407   2.972   0.714  11.543  2.6547  0.1736 -0.2570
18972TIP3    H278408   3.022   0.834  11.620 -1.9214  0.7307  2.0389
18973TIP3   OH278409   6.637   4.292  16.847  0.1834  0.0603 -0.1479
18973TIP3    H178410   6.639   4.355  16.775  2.7950 -0.4630 -0.5614
18973TIP3    H278411   6.552   4.248  16.837  0.1695  0.5292 -2.4235
18974TIP3   OH278412   2.900   3.015   1.914  0.2108 -0.4864  0.8930
18974TIP3    H178413   2.951   3.063   1.849 -1.4020  0.1701  0.1081
18974TIP3    H278414   2.829   2.974   1.865 -1.4327  0.5749  2.3251
18975TIP3   OH278415   2.389   1.363   3.580 -0.3965 -0.0721  0.4013
18975TIP3    H178416   2.438   1.424   3.526  0.7270 -1.4292 -0.1518
18975TIP3    H278417   2.455   1.323   3.637 -1.3608  0.3765  1.8773
18976TIP3   OH278418   5.803   5.267  12.766 -0.4888  0.6628  0.1806
18976TIP3    H178419   5.804   5.352  12.722  1.1338  1.2970  1.3959
18976TIP3    H278420   5.808   5.203  12.694 -0.0836  1.6240 -0.6589
18977TIP3   OH278421   6.001   0.619   1.932  0.3059 -0.4917 -0.1111
18977TIP3    H178422   5.952   0.693   1.897 -0.3865  0.0220  1.9103
18977TIP3    H278423   5.934   0.563   1.973  1.0439 -1.3065 -0.0013
18978TIP3   OH278424   5.069   1.450  15.548  0.3546  0.0998  0.1271
18978TIP3    H178425   5.098   1.359  15.556  1.0465  0.5509  3.6437
18978TIP3    H278426   5.100   1.478  15.462 -0.2936 -3.1111 -1.2345
18979TIP3   OH278427   6.633   2.884   1.485 -0.0279  0.1696  0.6775
18979TIP3    H178428   6.666   2.844   1.566 -2.1217 -1.1767  0.9125
18979TIP3    H278429   6.570   2.820   1.451  0.1907  1.1032 -1.5790
18980TIP3   OH278430   2.383   1.663   2.706 -0.3295  0.2246 -0.6898
18980TIP3    H178431   2.451   1.617   2.755 -0.5607  1.5985  0.9653
18980TIP3    H278432   2.420   1.749   2.689 -1.6306  0.9642  0.1755
18981TIP3   OH278433   0.930   2.649  13.051 -0.1083 -0.5289  0.2895
18981TIP3    H178434   0.974   2.596  13.117  0.1701 -0.7094 -0.0357
18981TIP3    H278435   0.840   2.654  13.081  0.5719  1.5961  2.0691
18982TIP3   OH278436   1.343   6.587   3.343  0.9112 -0.4703 -0.0835
18982TIP3    H178437   1.278   6.628   3.285  3.4112  3.5125 -0.2641
18982TIP3    H278438   1.390   6.526   3.287 -0.3982 -0.8532 -0.7930
18983TIP3   OH278439   2.064   0.396   4.443 -0.2461  0.0386  0.2802
18983TIP3    H178440   2.074   0.489   4.462  0.7633  0.2485 -1.2423
18983TIP3    H278441   1.970   0.385   4.425 -0.0543  1.1527 -1.5034
18984TIP3   OH278442   2.916   2.527   5.970  0.1909  0.1560  0.6726
18984TIP3    H178443   2.872   2.468   6.032  1.6965 -0.6594  0.9832
18984TIP3    H278444   2.890   2.615   5.999 -1.2755 -0.3033  0.8071
18985TIP3   OH278445   6.617   1.974  11.856 -0.5281  0.2016 -0.1007
18985TIP3    H178446   6.616   1.922  11.937 -2.4738 -0.9651 -0.8629
18985TIP3    H278447   6.662   1.919  11.793  2.4260  1.7656  0.5711
18986TIP3   OH278448   6.617   5.734   0.137  0.4297 -0.2489 -0.3807
18986TIP3    H178449   6.532   5.704   0.103  0.7748 -1.2636 -0.3646
18986TIP3    H278450   6.596   5.775   0.221 -0.1759  0.4641 -0.8752
18987TIP3   OH278451   1.702   2.917   5.267  0.2002  0.4704 -0.3492
18987TIP3    H178452   1.651   2.965   5.202  0.7083 -0.0574 -1.1531
18987TIP3    H278453   1.757   2.983   5.309  1.3985  0.5147 -1.9204
18988TIP3   OH278454   0.658   1.714   4.372  0.5761  0.9893 -0.2808
18988TIP3    H178455   0.633   1.771   4.299  1.7012  2.0133  0.1130
18988TIP3    H278456   0.677   1.774   4.444  0.2566  0.0243  0.6138
18989TIP3   OH278457   3.301   3.545   4.601 -0.3145 -0.0929 -0.0192
18989TIP3    H178458   3.290   3.462   4.647  1.6922 -0.3920 -0.0380
18989TIP3    H278459   3.227   3.549   4.540 -2.1697 -0.3830  2.1681
18990TIP3   OH278460   0.723   1.030  14.270 -0.3456  0.2563 -0.0024
18990TIP3    H178461   0.726   1.113  14.317  1.6798 -0.6873  1.6283
18990TIP3    H278462   0.784   1.042  14.197  0.3522  0.0602  0.5347
18991TIP3   OH278463   2.610   4.958  17.078 -0.1830  0.0176  0.7253
18991TIP3    H178464   2.549   4.933  17.147 -0.2113  1.1629  1.1146
18991TIP3    H278465   2.570   4.923  16.998 -1.5171  1.0319  0.9310
18992TIP3   OH278466   2.977   4.492  11.340 -0.1811 -0.0204 -0.3285
18992TIP3    H178467   3.072   4.484  11.336 -0.1897 -0.1216 -0.3166
18992TIP3    H278468   2.948   4.476  11.250 -0.2692 -0.9657 -0.1323
18993TIP3   OH278469   2.655   5.058   5.850 -0.5103  0.4565 -0.4747
18993TIP3    H178470   2.750   5.056   5.867 -0.6648 -0.3030  0.2924
18993TIP3    H278471   2.615   5.028   5.931 -1.3355 -1.0723 -1.4366
18994TIP3   OH278472   0.535   3.876  11.221  0.3416  0.3918 -0.8197
18994TIP3    H178473   0.506   3.862  11.131  2.8833  1.8565 -1.9116
18994TIP3    H278474   0.620   3.833  11.226 -0.5140 -1.1315  1.4065
18995TIP3   OH278475   6.728   1.475   6.201 -0.0087 -0.3000 -0.6857
18995TIP3    H178476   6.712   1.543   6.136 -0.3683 -0.6167 -0.9359
18995TIP3    H278477   6.775   1.519   6.272  0.1380  0.1089 -1.0348
18996TIP3   OH278478   0.662   4.358   3.460 -0.1428 -0.4153 -0.1585
18996TIP3    H178479   0.576   4.321   3.442  0.3641 -1.4215 -0.5488
18996TIP3    H278480   0.718   4.326   3.389  0.9189 -1.1001  0.9547
18997TIP3   OH278481   1.362   4.676  11.575  0.5789 -0.0313  0.1113
18997TIP3    H178482   1.355   4.697  11.669  0.2748  1.8870 -0.3143
18997TIP3    H278483   1.454   4.689  11.554  0.1780  2.1270 -0.4137
18998TIP3   OH278484   2.618   2.115  13.109 -0.2483  0.0026  0.6163
18998TIP3    H178485   2.572   2.129  13.192 -0.5637 -0.2644  0.4863
18998TIP3    H278486   2.587   2.029  13.079 -1.4874  0.8859 -0.6764
18999TIP3   OH278487   1.710   0.872  12.532  0.0090  0.6688 -0.6111
18999TIP3    H178488   1.655   0.923  12.472 -0.5124 -1.0710 -1.6676
18999TIP3    H278489   1.799   0.902  12.515 -0.4443  2.2895 -0.1357
19000TIP3   OH278490   0.994   6.812  17.255 -0.5270  0.1363 -0.0340
19000TIP3    H178491   1.019   6.805  17.163 -1.8494 -1.3037 -0.3069
19000TIP3    H278492   0.899   6.825  17.253 -0.6793 -0.7217  1.1263
19001TIP3   OH278493   5.336   6.226  14.494  0.1349  0.3530 -0.6328
19001TIP3    H178494   5.384   6.166  14.551  0.5697 -0.9118 -2.2872
19001TIP3    H278495   5.298   6.169  14.427 -4.1408  1.2384  0.8790
19002TIP3   OH278496   5.394   5.794  11.889 -0.1331  0.0307  0.7270
19002TIP3    H178497   5.371   5.717  11.838  0.2018  1.4845 -1.6994
19002TIP3    H278498   5.311   5.838  11.907 -0.2129 -0.2637  1.0755
19003TIP3   OH278499   4.372   0.511  17.227  0.3695 -0.2062 -0.0066
19003TIP3    H178500   4.383   0.541  17.137  0.3434 -1.2428 -0.3528
19003TIP3    H278501   4.408   0.423  17.228 -3.7338 -1.9728 -0.0843
19004TIP3   OH278502   2.143   2.858   0.168  0.5829 -0.1464  0.1881
19004TIP3    H178503   2.063   2.890   0.210  1.2756 -0.4829  1.8303
19004TIP3    H278504   2.117   2.835   0.079 -1.1661 -0.3290  0.7382
19005TIP3   OH278505   2.615   5.366  16.347  0.4110 -0.6375 -0.1321
19005TIP3    H178506   2.607   5.458  16.371 -0.9528  0.2010 -3.5610
19005TIP3    H278507   2.525   5.336  16.336  0.7423 -2.9056  2.5171
19006TIP3   OH278508   2.483   6.373  16.150  0.2137  0.0832  0.2844
19006TIP3    H178509   2.563   6.358  16.100 -0.4796  0.0377 -0.8413
19006TIP3    H278510   2.440   6.445  16.104 -1.6873 -1.6624 -0.7476
19007TIP3   OH278511   3.211   5.939  16.223  0.3632 -0.4769 -0.0150
19007TIP3    H178512   3.219   5.899  16.310  1.4167 -0.1590  0.0360
19007TIP3    H278513   3.264   6.019  16.229 -0.0403 -0.1477 -0.7748
19008TIP3   OH278514   2.825   1.765  10.742  0.1250 -0.2447  0.0187
19008TIP3    H178515   2.740   1.720  10.744 -0.8909  1.5214 -1.9393
19008TIP3    H278516   2.804   1.855  10.719  2.1473  1.2858  3.7806
19009TIP3   OH278517   2.469   1.667  14.074 -0.1003 -0.1923 -1.1114
19009TIP3    H178518   2.406   1.619  14.020  1.3057 -1.3233 -1.7710
19009TIP3    H278519   2.525   1.711  14.011  0.3752  0.0301 -0.5344
19010TIP3   OH278520   6.428   3.069  12.903 -0.2639  0.2195 -0.3063
19010TIP3    H178521   6.383   2.985  12.916 -0.2138  0.3359  0.6509
19010TIP3    H278522   6.421   3.085  12.809 -1.1515 -0.3708 -0.3530
19011TIP3   OH278523   4.113   3.120  10.485 -0.1480 -0.0844  0.0127
19011TIP3    H178524   4.135   3.121  10.578  1.3469 -2.2208 -0.2932
19011TIP3    H278525   4.190   3.156  10.442 -0.4769  0.0483 -0.4710
19012TIP3   OH278526   3.636   0.702  17.143 -0.3812  0.0068  0.3294
19012TIP3    H178527   3.639   0.650  17.063 -2.3709  0.0983  0.1794
19012TIP3    H278528   3.639   0.638  17.214  2.0900 -0.0426  0.2178
19013TIP3   OH278529   2.831   5.913   2.830 -0.1206  0.3615 -0.6256
19013TIP3    H178530   2.795   5.876   2.749  0.8233 -0.9950 -0.4458
19013TIP3    H278531   2.812   6.006   2.824  0.7019  0.4237 -2.8359
19014TIP3   OH278532   4.564   0.053   6.619 -0.3973  0.3133  0.0427
19014TIP3    H178533   4.491   0.100   6.660  0.5298  0.1593  1.9215
19014TIP3    H278534   4.557  -0.036   6.653  0.8047  0.3645  0.4656
19015TIP3   OH278535   0.271   2.961   5.047  0.0332 -0.0610  0.2962
19015TIP3    H178536   0.183   2.923   5.048 -0.0441  0.1033 -0.1500
19015TIP3    H278537   0.263   3.043   5.096  0.2338 -0.6857  1.3981
19016TIP3   OH278538   3.373   3.230   5.343  0.0474  0.6156  0.2421
19016TIP3    H178539   3.353   3.301   5.282  0.6003  0.8010  0.2771
19016TIP3    H278540   3.299   3.170   5.334 -0.7408  1.5119  0.6885
19017TIP3   OH278541   2.921   6.448  15.512 -0.0335 -0.2029 -0.7932
19017TIP3    H178542   2.971   6.377  15.472 -0.6818  0.4478 -2.7890
19017TIP3    H278543   2.908   6.511  15.442 -1.3717  0.8728  0.3934
19018TIP3   OH278544   4.282   5.758   5.576  0.2423 -0.3625  0.1789
19018TIP3    H178545   4.204   5.702   5.576  1.0246 -1.4598  0.9610
19018TIP3    H278546   4.260   5.829   5.515 -1.7882 -0.0864  1.1878
19019TIP3   OH278547   5.201   3.728   1.618 -0.8626  0.4653 -0.1513
19019TIP3    H178548   5.271   3.673   1.581 -2.0922 -1.1551 -0.1335
19019TIP3    H278549   5.218   3.815   1.584  0.7410 -0.0620 -0.7577
19020TIP3   OH278550   5.645   0.027   2.140  0.7758  0.0926 -0.1795
19020TIP3    H178551   5.706   0.098   2.119 -0.2658  1.3699  0.9650
19020TIP3    H278552   5.697  -0.035   2.192  1.3722  0.6435 -0.1146
19021TIP3   OH278553   0.275   3.709   3.868 -0.2067 -0.1229 -0.5630
19021TIP3    H178554   0.351   3.691   3.812  0.6045 -0.0082  0.4780
19021TIP3    H278555   0.272   3.805   3.873 -0.6118 -0.1209 -0.8617
19022TIP3   OH278556   1.608   5.727  11.115 -0.0329  0.2169 -0.2422
19022TIP3    H178557   1.670   5.711  11.187  0.6048 -1.0488 -1.0408
19022TIP3    H278558   1.567   5.810  11.136  1.7087  0.9167  0.4991
19023TIP3   OH278559   1.288   0.496   5.484  0.6109 -0.9018  0.3259
19023TIP3    H178560   1.217   0.445   5.446 -1.2429  2.4043 -0.8307
19023TIP3    H278561   1.244   0.568   5.530  3.1857  1.6845 -1.0932
19024TIP3   OH278562   4.775   2.399  11.469  0.4699 -0.2453 -0.0495
19024TIP3    H178563   4.691   2.366  11.502  0.3685  0.1429  0.0865
19024TIP3    H278564   4.825   2.420  11.548 -0.3597  2.1744 -0.1228
19025TIP3   OH278565   0.066   3.289  14.017  0.0955 -0.5191 -0.2145
19025TIP3    H178566   0.150   3.303  14.060 -0.2970  0.2277  0.3114
19025TIP3    H278567   0.002   3.298  14.087 -0.7621  3.3412 -1.3893
19026TIP3   OH278568   5.394   3.452  16.505  0.0395 -0.3543 -0.4988
19026TIP3    H178569   5.367   3.480  16.593 -0.9355 -2.0758 -0.2126
19026TIP3    H278570   5.489   3.455  16.507  0.0598 -1.3075  0.9620
19027TIP3   OH278571   6.505   0.290   6.419 -0.1730 -0.4131  0.5605
19027TIP3    H178572   6.474   0.219   6.362  0.1325 -0.4062  0.3833
19027TIP3    H278573   6.427   0.318   6.466 -0.1235 -1.5011  1.3149
19028TIP3   OH278574   2.367   2.272  15.804  0.4466 -0.6202 -0.0278
19028TIP3    H178575   2.298   2.337  15.787 -0.6659 -1.7444  0.1304
19028TIP3    H278576   2.415   2.266  15.722 -2.1994 -2.8379 -1.4814
19029TIP3   OH278577   4.621   2.371   0.449  0.0241  0.0960 -0.3930
19029TIP3    H178578   4.645   2.333   0.365  0.7111 -0.6280  0.1199
19029TIP3    H278579   4.579   2.454   0.427 -0.6994 -0.5580 -1.4874
19030TIP3   OH278580   3.288   5.256  13.380  0.0014  0.5661  0.2813
19030TIP3    H178581   3.326   5.184  13.431 -1.0092  0.7299  1.2820
19030TIP3    H278582   3.363   5.311  13.357  0.3050  1.3681  2.9831
19031TIP3   OH278583   3.980   1.871   2.480 -0.6778 -0.5944 -0.6886
19031TIP3    H178584   3.994   1.959   2.445  1.3003 -1.0282 -1.0401
19031TIP3    H278585   4.023   1.871   2.565 -0.9494 -1.1277 -0.5456
19032TIP3   OH278586   3.363   2.062   1.565 -0.6592  0.0466 -0.4106
19032TIP3    H178587   3.340   1.974   1.534 -0.7864  0.1044 -0.4791
19032TIP3    H278588   3.322   2.121   1.502 -2.2236  0.2019  0.7277
19033TIP3   OH278589   3.956   0.801   2.755 -0.2675  0.3099  0.3528
19033TIP3    H178590   3.950   0.895   2.773 -0.4150  0.0797  1.5410
19033TIP3    H278591   4.048   0.786   2.733 -0.5116  0.9532 -1.1474
19034TIP3   OH278592   2.062   0.904   3.962 -0.5303  0.2591  0.4866
19034TIP3    H178593   2.141   0.929   4.010 -0.3590 -2.4629  1.7262
19034TIP3    H278594   1.992   0.911   4.027 -1.4089  3.0104 -0.7032
19035TIP3   OH278595   3.017   6.496  13.014 -0.1904 -0.4714  0.3828
19035TIP3    H178596   3.010   6.561  12.944  0.3461  0.3215  1.0690
19035TIP3    H278597   2.996   6.544  13.094 -2.0020 -1.6477  0.6496
19036TIP3   OH278598   3.273   1.508   3.454  0.5720  0.4209  0.0796
19036TIP3    H178599   3.223   1.589   3.456  2.1857  1.3896  2.5259
19036TIP3    H278600   3.224   1.447   3.509 -0.5477 -0.2589 -1.6180
19037TIP3   OH278601   0.573   1.514   1.884 -0.4340 -0.6255  0.2349
19037TIP3    H178602   0.597   1.424   1.905  0.7478 -0.2016  0.7242
19037TIP3    H278603   0.528   1.507   1.800  0.5685 -1.5615 -0.2433
19038TIP3   OH278604   4.011   2.811   0.606  0.2552  0.7252  0.0264
19038TIP3    H178605   4.025   2.864   0.527  0.8986 -2.2795 -1.9455
19038TIP3    H278606   4.099   2.801   0.643  0.4108 -0.5105 -0.6562
19039TIP3   OH278607   5.563   5.798  12.111 -0.3106  0.2289  0.1578
19039TIP3    H178608   5.522   5.880  12.139 -0.1035  0.5952 -0.6135
19039TIP3    H278609   5.526   5.780  12.025  0.5829  0.1753 -0.2250
19040TIP3   OH278610   2.128   1.815  11.982  0.1328 -0.9364 -0.0188
19040TIP3    H178611   2.148   1.909  11.979 -0.3959 -0.8379 -0.6912
19040TIP3    H278612   2.213   1.772  11.988  0.4012 -0.4309 -0.1859
19041TIP3   OH278613   0.564   3.414   5.522 -0.5001 -0.1301  0.3216
19041TIP3    H178614   0.543   3.455   5.606  0.9881 -0.2802  0.7747
19041TIP3    H278615   0.594   3.326   5.545 -1.9786 -0.8743 -0.5234
19042TIP3   OH278616   0.734   3.725  14.152  0.4189 -0.1352 -0.5496
19042TIP3    H178617   0.666   3.767  14.205  1.1469 -0.1413  0.4038
19042TIP3    H278618   0.768   3.655  14.208 -0.3440 -1.5980 -1.8897
19043TIP3   OH278619   3.240   4.005   3.273 -0.0448  0.0899 -0.1759
19043TIP3    H178620   3.193   3.937   3.322 -0.3388  1.0993  0.9643
19043TIP3    H278621   3.296   4.047   3.337 -0.6556  1.6360 -0.6255
19044TIP3   OH278622   1.649   2.266   5.547 -0.5878  0.0620 -0.2661
19044TIP3    H178623   1.588   2.288   5.618  1.1064 -1.8159  1.8473
19044TIP3    H278624   1.682   2.350   5.517 -1.6627  0.9214  0.8913
19045TIP3   OH278625   0.112   0.962  13.349 -0.1198  0.8513  0.0909
19045TIP3    H178626   0.153   1.002  13.273 -0.2064 -0.8568 -0.8816
19045TIP3    H278627   0.094   1.035  13.408  0.6473  2.1000 -1.1926
19046TIP3   OH278628   6.120   4.006   1.826 -0.3036 -0.5659  0.1885
19046TIP3    H178629   6.075   4.085   1.853  2.2856  0.5769  1.2842
19046TIP3    H278630   6.192   4.037   1.771  0.0026 -2.2497 -0.3968
19047TIP3   OH278631   0.389   1.020  11.677  0.0989  0.0149 -0.1497
19047TIP3    H178632   0.361   1.011  11.586  0.4056 -0.0234 -0.2401
19047TIP3    H278633   0.455   0.952  11.689 -0.5246 -0.5155  0.3334
19048TIP3   OH278634   5.906   6.031  13.495 -0.2734 -0.7278 -0.0339
19048TIP3    H178635   5.921   6.061  13.585  1.6103  1.8052 -1.1699
19048TIP3    H278636   5.932   5.938  13.497  2.6678  0.0611  1.3415
19049TIP3   OH278637   6.289   1.158   0.874 -0.6110  0.6493 -0.1487
19049TIP3    H178638   6.244   1.226   0.824  0.2177  1.0558 -0.3568
19049TIP3    H278639   6.288   1.189   0.965  0.6171  1.4238 -0.3843
19050TIP3   OH278640   4.592   6.026  16.363 -0.3864  0.0113  0.0970
19050TIP3    H178641   4.566   6.068  16.445 -0.0742  0.3577  0.0213
19050TIP3    H278642   4.604   6.099  16.302  0.0466 -0.1963 -0.0678
19051TIP3   OH278643   2.836   5.701  14.370 -0.5146 -0.2575 -0.0574
19051TIP3    H178644   2.758   5.656  14.338 -1.5326  0.5556  1.2464
19051TIP3    H278645   2.826   5.791  14.339 -0.4772  0.0316  0.7724
19052TIP3   OH278646   3.872   6.482   3.925  0.0519 -1.0049  0.0200
19052TIP3    H178647   3.855   6.490   3.832 -0.8852  1.4593  0.3564
19052TIP3    H278648   3.957   6.522   3.938  0.9570 -2.8680  0.0114
19053TIP3   OH278649   3.938   3.478  10.742 -0.4224 -0.2847  0.1247
19053TIP3    H178650   4.030   3.450  10.740 -0.9022 -1.9928  0.9716
19053TIP3    H278651   3.924   3.518  10.656  0.9534 -0.5611 -0.2462
19054TIP3   OH278652   6.189   4.030   6.824  0.4471 -0.9453 -0.0490
19054TIP3    H178653   6.157   3.941   6.840  0.9500 -1.2488 -0.7018
19054TIP3    H278654   6.281   4.018   6.799 -0.1661 -0.4635 -2.6554
19055TIP3   OH278655   3.870   2.451  15.305 -0.6769  0.0267  0.3218
19055TIP3    H178656   3.833   2.491  15.227  1.0439 -1.0112 -1.0610
19055TIP3    H278657   3.929   2.518  15.341  0.6582 -0.5038 -0.8505
19056TIP3   OH278658   3.232   6.074  14.813  0.0715 -0.0048 -0.2121
19056TIP3    H178659   3.193   5.987  14.807 -0.9187  0.2599  1.8680
19056TIP3    H278660   3.249   6.086  14.906  1.1795  1.6201 -0.6007
19057TIP3   OH278661   4.381   5.122   6.418  0.0137  0.1956 -0.3615
19057TIP3    H178662   4.371   5.067   6.340  1.7347  0.6266 -0.9152
19057TIP3    H278663   4.291   5.141   6.445 -0.6151 -0.2544 -2.0352
19058TIP3   OH278664   6.398   4.883  12.098  0.3319 -0.6278 -0.3002
19058TIP3    H178665   6.384   4.977  12.110 -1.3797 -0.6517 -1.9708
19058TIP3    H278666   6.351   4.843  12.171  1.6762 -0.1924  0.8459
19059TIP3   OH278667   5.897   3.221  12.598 -0.0055  0.9991  0.1403
19059TIP3    H178668   5.856   3.149  12.551  1.5835 -0.7809  1.3852
19059TIP3    H278669   5.849   3.226  12.681 -0.2629  1.5412 -0.0381
19060TIP3   OH278670   0.070   1.341  16.594 -0.2176  0.0559  0.1475
19060TIP3    H178671   0.136   1.273  16.582 -1.3859 -0.9596 -0.7217
19060TIP3    H278672   0.100   1.392  16.669  0.5423 -1.6009  0.9920
19061TIP3   OH278673   6.394   4.396   5.051  0.2230 -0.5385 -0.0134
19061TIP3    H178674   6.329   4.356   5.109  1.0221 -0.4234  0.9751
19061TIP3    H278675   6.346   4.414   4.970 -1.2191  0.3744  1.0170
19062TIP3   OH278676   5.009   4.464   1.781  0.0306 -0.4538  0.6823
19062TIP3    H178677   5.056   4.544   1.758  1.3004 -1.2354  0.4948
19062TIP3    H278678   4.975   4.431   1.697 -1.1003  0.2519  0.8528
19063TIP3   OH278679   4.979   1.822   3.846  0.3906 -0.5053  0.3834
19063TIP3    H178680   5.032   1.876   3.905 -0.8039  0.7778  0.3085
19063TIP3    H278681   4.891   1.858   3.853 -0.5223 -2.6705  0.5714
19064TIP3   OH278682   2.232   4.673  12.258  0.6570  0.1513 -0.1863
19064TIP3    H178683   2.314   4.628  12.274  1.4712  2.0805  1.2429
19064TIP3    H278684   2.253   4.740  12.194  0.1930  0.6177  0.1411
19065TIP3   OH278685   4.561   0.027  16.109  0.3154  0.0925  0.3003
19065TIP3    H178686   4.538  -0.066  16.106 -2.8206  0.7742  1.6110
19065TIP3    H278687   4.516   0.064  16.034 -0.9710  1.0608  1.5355
19066TIP3   OH278688   5.430   2.235  13.696  0.0768  0.4384 -0.3637
19066TIP3    H178689   5.506   2.289  13.674 -0.6014  0.6524 -2.3445
19066TIP3    H278690   5.466   2.161  13.744  1.1408  2.1236  1.4885
19067TIP3   OH278691   3.601   3.011   3.154 -0.5658  0.3693  0.0638
19067TIP3    H178692   3.595   2.920   3.125  2.2388  0.4330 -0.8609
19067TIP3    H278693   3.531   3.020   3.220 -1.7137 -2.0539 -0.7696
19068TIP3   OH278694   1.450   0.307  14.420  0.0041  0.3215 -0.0100
19068TIP3    H178695   1.369   0.268  14.389  0.4379 -0.3932 -0.2432
19068TIP3    H278696   1.477   0.366  14.350  1.3599 -1.8210 -1.3356
19069TIP3   OH278697   5.249   3.751  14.918 -0.1765  0.4056 -0.3363
19069TIP3    H178698   5.204   3.771  15.001 -1.0333 -1.3344 -0.3668
19069TIP3    H278699   5.192   3.787  14.851 -1.6182 -1.8785 -0.3799
19070TIP3   OH278700   4.978   5.162   0.010  0.1014 -0.2200  0.4653
19070TIP3    H178701   4.944   5.131   0.094  1.7164  0.1708  1.2780
19070TIP3    H278702   4.905   5.210  -0.030 -0.1406  1.0492  2.4053
19071TIP3   OH278703   6.479   4.912  15.735 -0.4399  0.3326 -0.3816
19071TIP3    H178704   6.390   4.878  15.743 -0.8355  1.0642 -1.4178
19071TIP3    H278705   6.500   4.947  15.821 -0.8938 -0.4637  0.0574
19072TIP3   OH278706   6.463   6.805   4.142  0.7016  0.3613 -0.0902
19072TIP3    H178707   6.489   6.723   4.185 -0.6438  0.1609  0.3601
19072TIP3    H278708   6.544   6.856   4.137  0.9925  0.1915  2.2552
19073TIP3   OH278709   0.122   1.742   5.385  0.0244 -0.0929  0.2910
19073TIP3    H178710   0.172   1.820   5.412  0.2637 -0.0933 -0.1405
19073TIP3    H278711   0.057   1.730   5.454  1.6332 -1.0271  1.7035
19074TIP3   OH278712   5.932   2.335   4.675 -0.0251  0.1912 -0.3311
19074TIP3    H178713   5.839   2.315   4.691 -0.0198  0.5527  0.1583
19074TIP3    H278714   5.970   2.342   4.762  0.2614  0.9771 -0.5230
19075TIP3   OH278715   3.873   5.858  11.164 -0.6697  0.8087 -0.0382
19075TIP3    H178716   3.900   5.947  11.186  0.2604  0.2082  1.2753
19075TIP3    H278717   3.777   5.863  11.156 -0.9224  1.3151  2.9501
19076TIP3   OH278718   3.628   4.435  17.102 -0.5823 -0.2686 -0.2318
19076TIP3    H178719   3.582   4.461  17.023 -1.8544 -4.7655 -1.1502
19076TIP3    H278720   3.616   4.340  17.106  2.3239 -0.5999  3.5597
19077TIP3   OH278721   2.090   6.063  16.567  0.6182 -0.3984  0.2407
19077TIP3    H178722   2.069   6.007  16.642 -1.0347  0.9343  0.8003
19077TIP3    H278723   2.080   6.006  16.491 -0.6772 -0.9743  0.8295
19078TIP3   OH278724   4.997   3.543   1.493 -0.1424  0.6751 -0.5974
19078TIP3    H178725   5.075   3.568   1.443  0.6828  1.7615  1.2135
19078TIP3    H278726   4.973   3.621   1.543 -1.2309 -0.2527  0.3624
19079TIP3   OH278727   0.401   5.922   5.186 -0.3502 -0.2889 -0.2165
19079TIP3    H178728   0.376   5.972   5.263  1.3902  1.2056 -0.5762
19079TIP3    H278729   0.349   5.842   5.191 -1.4572  0.5137  1.6244
19080TIP3   OH278730   3.294   5.812  11.681 -0.1061  0.2073  0.0520
19080TIP3    H178731   3.347   5.736  11.656 -0.5483 -0.3312  0.7191
19080TIP3    H278732   3.327   5.838  11.767 -0.4403  0.3208  0.1475
19081TIP3   OH278733   6.447   4.241  11.320 -0.1902 -0.0790 -0.0969
19081TIP3    H178734   6.482   4.152  11.308  0.6993  0.2439  0.0316
19081TIP3    H278735   6.427   4.247  11.413  0.1846  0.0067 -0.0209
19082TIP3   OH278736   4.729   3.762   0.749 -0.2746 -0.4458  0.5476
19082TIP3    H178737   4.731   3.857   0.735 -1.7062 -0.2014  1.8478
19082TIP3    H278738   4.650   3.733   0.702  1.4714 -1.3810 -1.9219
19083TIP3   OH278739   5.758   2.147  15.889  0.5916  0.5542  0.2418
19083TIP3    H178740   5.765   2.212  15.959  1.4526 -0.9696  1.6165
19083TIP3    H278741   5.810   2.073  15.921  0.6990 -0.2956 -1.8723
19084TIP3   OH278742   0.719   4.810  11.374  0.4722 -0.1633  0.8864
19084TIP3    H178743   0.791   4.871  11.389  0.0051  0.6699 -0.1801
19084TIP3    H278744   0.646   4.866  11.345  0.0215 -1.2153 -0.0360
19085TIP3   OH278745   4.721   2.845   4.632  0.3673 -0.5056 -0.3763
19085TIP3    H178746   4.721   2.796   4.550 -1.0395 -0.7417 -0.2470
19085TIP3    H278747   4.718   2.936   4.606  1.4453 -0.5295 -0.5999
19086TIP3   OH278748   0.938   4.129  11.116  0.0380  0.6065 -0.3923
19086TIP3    H178749   0.901   4.059  11.061 -1.9163  1.6545 -0.4732
19086TIP3    H278750   0.875   4.201  11.107  0.4197  1.2838  2.1455
19087TIP3   OH278751   6.150   5.742  14.348  0.3656 -0.4380  0.1592
19087TIP3    H178752   6.057   5.761  14.360  1.2265  3.9907  0.6240
19087TIP3    H278753   6.177   5.704  14.432 -0.5347  0.5696  0.9385
19088TIP3   OH278754   4.777   2.747  13.807  0.0879  0.6935  0.5406
19088TIP3    H178755   4.806   2.775  13.893  0.4684  1.1427  0.2732
19088TIP3    H278756   4.694   2.702  13.822  0.6474 -0.0992  1.2407
19089TIP3   OH278757   4.024   6.648   1.636 -0.4059  0.3182 -0.0260
19089TIP3    H178758   3.935   6.613   1.643 -0.9933  1.5891 -0.8716
19089TIP3    H278759   4.017   6.737   1.672  0.5324  0.4286 -0.1032
19090TIP3   OH278760   6.703   0.027  16.744  0.2833 -0.3164  0.7414
19090TIP3    H178761   6.774   0.090  16.735 -1.0048  1.4989  2.7634
19090TIP3    H278762   6.623   0.077  16.726 -0.5171 -2.2858 -1.3731
19091TIP3   OH278763   4.034   0.235  12.482 -0.0806 -0.2549 -0.1364
19091TIP3    H178764   4.119   0.269  12.511 -0.8455  1.8128 -0.2397
19091TIP3    H278765   3.983   0.226  12.563 -1.4111  3.2724 -0.4726
19092TIP3   OH278766   4.558   4.163  12.188  0.6169 -0.0661 -0.1666
19092TIP3    H178767   4.530   4.177  12.279  2.7389 -1.7182  0.8031
19092TIP3    H278768   4.568   4.068  12.181  1.3482  0.1273 -1.8592
19093TIP3   OH278769   5.079   2.998   3.342  0.4226 -0.3719  0.0233
19093TIP3    H178770   5.010   2.959   3.288 -0.2225 -0.4346  0.8772
19093TIP3    H278771   5.098   2.931   3.408  1.1871 -0.2888 -0.1128
19094TIP3   OH278772   3.193   4.661  12.369 -0.2603  0.0397 -0.2356
19094TIP3    H178773   3.273   4.706  12.340  0.1661 -0.8913 -0.5569
19094TIP3    H278774   3.211   4.568  12.352 -0.9441 -0.2954  0.8089
19095TIP3   OH278775   5.305   1.872   1.942  0.2558  0.1868  0.3537
19095TIP3    H178776   5.286   1.965   1.953  1.7103  0.4052  1.1584
19095TIP3    H278777   5.330   1.863   1.850 -2.6624  0.0594 -0.4755
19096TIP3   OH278778   3.357   2.228   5.256  0.9678  0.2915 -0.2129
19096TIP3    H178779   3.334   2.239   5.164 -3.5801 -1.8184  0.5683
19096TIP3    H278780   3.307   2.296   5.302  0.4678 -0.8754  1.0183
19097TIP3   OH278781   6.550   6.250   4.477  0.1338  0.3531  0.0635
19097TIP3    H178782   6.549   6.154   4.470  3.6960  0.1656  1.4576
19097TIP3    H278783   6.631   6.270   4.523  0.5798  4.2053 -2.2168
19098TIP3   OH278784   5.772   2.928  13.793 -0.2930  0.3313 -0.1752
19098TIP3    H178785   5.825   2.890  13.863  0.1288  1.4759  0.1413
19098TIP3    H278786   5.707   2.982  13.838 -0.8299  0.0548 -0.6161
19099TIP3   OH278787   4.261   5.111  11.220 -0.0874 -0.3707 -0.2137
19099TIP3    H178788   4.354   5.118  11.242  0.2113 -0.3581 -1.4867
19099TIP3    H278789   4.216   5.145  11.298  0.9819  0.3360  0.1080
19100TIP3   OH278790   1.993   2.814   5.850 -0.7263 -0.9771 -0.2606
19100TIP3    H178791   1.978   2.850   5.938 -1.1203 -1.3185 -0.1870
19100TIP3    H278792   1.958   2.880   5.791  1.2661  0.1353 -0.2382
19101TIP3   OH278793   5.062   5.962  13.286 -0.0030 -0.0489 -0.3518
19101TIP3    H178794   5.019   5.915  13.214 -3.1557 -0.3264  1.6236
19101TIP3    H278795   5.037   6.053  13.273  0.5121  0.0951 -0.3414
19102TIP3   OH278796   4.481   0.100  14.881 -0.1494 -0.8303 -0.4462
19102TIP3    H178797   4.526   0.077  14.962 -0.1142 -0.9823 -0.5089
19102TIP3    H278798   4.548   0.091  14.813  0.0308  0.0641 -0.3963
19103TIP3   OH278799   2.306   0.705  13.151  0.0369 -0.0661  0.3239
19103TIP3    H178800   2.366   0.663  13.212 -0.0755  0.2718  0.6628
19103TIP3    H278801   2.357   0.715  13.070  0.1268 -0.6733  0.3024
19104TIP3   OH278802   5.526   3.409  17.256 -0.4951  0.0929  0.3869
19104TIP3    H178803   5.469   3.485  17.263 -0.4551  0.1881 -0.2755
19104TIP3    H278804   5.501   3.353  17.329 -1.5835  0.0437 -0.0131
19105TIP3   OH278805   4.131   5.196   3.417 -0.0235 -0.2971 -0.0296
19105TIP3    H178806   4.129   5.185   3.322 -0.9466  1.2417 -0.1937
19105TIP3    H278807   4.039   5.201   3.443  0.2351 -0.1954  0.8930
19106TIP3   OH278808   5.829   0.674  14.932  0.9132  0.0554  0.0716
19106TIP3    H178809   5.790   0.652  14.848 -0.4318  1.2308  0.3642
19106TIP3    H278810   5.808   0.599  14.988  1.5806 -0.6081 -0.5584
19107TIP3   OH278811   1.676   5.664  13.562  0.3141 -0.6130 -0.5556
19107TIP3    H178812   1.667   5.651  13.656  0.2087 -0.4466 -0.5433
19107TIP3    H278813   1.586   5.665  13.529  0.2336  1.7450 -0.3497
19108TIP3   OH278814   0.152   0.956  16.557  0.5383  0.1772  0.4151
19108TIP3    H178815   0.203   0.880  16.529  1.9419  1.3049 -0.1488
19108TIP3    H278816   0.063   0.935  16.531  0.6747 -1.8642  1.4730
19109TIP3   OH278817   2.389   2.620   1.064  0.1274 -0.0961 -0.0654
19109TIP3    H178818   2.302   2.623   1.102 -0.0578 -0.2859 -0.4668
19109TIP3    H278819   2.386   2.545   1.004  0.3393  0.3517 -0.6344
19110TIP3   OH278820   1.649   6.180  10.627 -0.0425 -0.2897 -0.3118
19110TIP3    H178821   1.565   6.196  10.584  0.7936 -0.0323 -1.8764
19110TIP3    H278822   1.709   6.243  10.586  0.4856  0.9156  2.2006
19111TIP3   OH278823   6.288   4.096   5.154  0.6340  0.4194 -0.2420
19111TIP3    H178824   6.349   4.057   5.091  0.3733 -0.3260 -0.0404
19111TIP3    H278825   6.270   4.026   5.217 -0.2682  0.6880 -0.1852
19112TIP3   OH278826   4.801   5.862  11.449 -0.6562 -0.3721  0.0539
19112TIP3    H178827   4.884   5.882  11.405 -0.9179 -0.0952 -0.3226
19112TIP3    H278828   4.821   5.867  11.542  0.3641 -2.8801 -0.0130
19113TIP3   OH278829   6.620   4.856  12.718  0.4951  0.1398 -0.2303
19113TIP3    H178830   6.635   4.762  12.727  0.6406  0.1296 -0.5635
19113TIP3    H278831   6.550   4.876  12.781  0.8001 -0.1014  0.1852
19114TIP3   OH278832   5.304   0.671  15.993  0.0020 -0.3437  0.1827
19114TIP3    H178833   5.367   0.603  15.967  1.4480  0.2314  2.0580
19114TIP3    H278834   5.331   0.748  15.943  0.6898 -0.1450  0.8544
19115TIP3   OH278835   6.502   1.072   4.032 -0.3351  0.0707  0.2859
19115TIP3    H178836   6.431   1.119   4.076 -1.5127  0.6922 -2.1556
19115TIP3    H278837   6.568   1.139   4.015 -0.4854  0.1263 -0.0883
19116TIP3   OH278838   3.704   3.050   4.590 -0.7107 -0.0035  0.2766
19116TIP3    H178839   3.633   3.022   4.531 -0.0168  0.9792 -1.0616
19116TIP3    H278840   3.705   3.145   4.583  0.7054  0.0003  0.3035
19117TIP3   OH278841   0.070   4.509   2.437 -0.7514 -0.5737 -0.4731
19117TIP3    H178842  -0.013   4.464   2.451 -1.1194  0.5983  1.3128
19117TIP3    H278843   0.068   4.581   2.499  0.5810  0.8749 -2.0687
19118TIP3   OH278844   0.112   2.070   2.293 -0.6085 -0.0616 -0.2631
19118TIP3    H178845   0.049   2.057   2.364  1.4056 -0.2731  1.5211
19118TIP3    H278846   0.150   1.983   2.278 -1.2724 -0.0985 -1.8679
19119TIP3   OH278847   6.346   2.544   2.474 -0.8431  0.0684  0.1050
19119TIP3    H178848   6.391   2.621   2.508 -2.6765  0.0918  2.5684
19119TIP3    H278849   6.274   2.578   2.422  1.4411  0.0184 -3.2652
19120TIP3   OH278850   1.766   6.350  12.994 -0.6184 -0.3109  0.5565
19120TIP3    H178851   1.755   6.321  13.085  2.3924  0.9984  1.3887
19120TIP3    H278852   1.854   6.386  12.990 -1.4250  1.5617 -2.3973
19121TIP3   OH278853   6.241   0.677  11.795  0.0380 -0.2692  0.3987
19121TIP3    H178854   6.189   0.628  11.731 -0.2263  0.5365 -0.0028
19121TIP3    H278855   6.331   0.649  11.777 -0.2131 -1.4348  0.9004
19122TIP3   OH278856   0.135   5.130   3.871  0.0291  0.3911  0.2280
19122TIP3    H178857   0.155   5.184   3.948  0.3002 -0.3527  0.6793
19122TIP3    H278858   0.219   5.122   3.825  0.2916 -0.7828  0.8890
19123TIP3   OH278859   4.800   5.748  12.168  0.0084  0.5021  0.4790
19123TIP3    H178860   4.814   5.841  12.182  0.8649  0.6378 -1.1212
19123TIP3    H278861   4.864   5.724  12.100 -0.8139 -1.0445  0.2225
19124TIP3   OH278862   1.792   1.477   1.362 -0.5418 -0.5238  0.1066
19124TIP3    H178863   1.761   1.565   1.382  1.4148  0.5574 -1.4402
19124TIP3    H278864   1.813   1.479   1.269  1.5236 -1.9993  0.4968
19125TIP3   OH278865   0.872   1.681  12.735  0.6652 -0.2997 -0.1862
19125TIP3    H178866   0.805   1.621  12.702 -2.8312  1.8030  2.8173
19125TIP3    H278867   0.842   1.768  12.710  3.8456  0.5489 -1.3248
19126TIP3   OH278868   4.861   5.912   5.747 -0.1595  0.7736  0.3640
19126TIP3    H178869   4.803   5.979   5.713  1.3658  2.2626  0.6052
19126TIP3    H278870   4.948   5.936   5.715  0.8175  0.3959  2.5851
19127TIP3   OH278871   4.250   3.042   3.157  0.0426 -0.1361 -0.0930
19127TIP3    H178872   4.305   3.076   3.227  0.2136  1.1214 -0.8250
19127TIP3    H278873   4.168   3.016   3.201 -0.6646  2.5824  0.2991
19128TIP3   OH278874   5.632   1.862   6.789  0.3945 -0.0102  0.0871
19128TIP3    H178875   5.620   1.877   6.695 -0.1342 -1.6741 -0.1349
19128TIP3    H278876   5.673   1.942   6.821 -1.2490  1.3946 -1.2004
19129TIP3   OH278877   3.437   5.183   3.336  0.7131 -0.7890  0.3977
19129TIP3    H178878   3.463   5.096   3.307  1.6965  0.2213 -1.9232
19129TIP3    H278879   3.434   5.235   3.255 -1.6743  0.8787  1.4820
19130TIP3   OH278880   1.130   5.832   0.430  0.2237 -0.0456  0.3613
19130TIP3    H178881   1.118   5.826   0.335  1.8920  1.3789  0.0461
19130TIP3    H278882   1.144   5.741   0.458  0.6371 -0.3683 -0.8744
19131TIP3   OH278883   0.288   3.205  15.873 -0.4914  0.1291  0.5154
19131TIP3    H178884   0.244   3.282  15.909  1.2948  1.8776 -0.9371
19131TIP3    H278885   0.361   3.189  15.934  0.0633  0.5300 -0.0479
19132TIP3   OH278886   4.181   0.580  12.721 -0.6705  0.0343  0.1931
19132TIP3    H178887   4.192   0.650  12.785 -1.5759 -0.8156  1.2993
19132TIP3    H278888   4.151   0.624  12.641  0.8487  1.1492  0.2191
19133TIP3   OH278889   4.451   5.752   5.942  0.8631 -0.2993 -0.2919
19133TIP3    H178890   4.489   5.753   5.854  0.7142  1.3265 -0.3532
19133TIP3    H278891   4.366   5.710   5.931  2.9255 -4.8269 -0.0035
19134TIP3   OH278892   5.301   1.732  11.363  0.2468 -0.0195  0.2522
19134TIP3    H178893   5.360   1.769  11.428 -0.3557  0.0736  0.7576
19134TIP3    H278894   5.213   1.757  11.393  0.0106  0.8836 -1.1400
19135TIP3   OH278895   4.164   6.046  12.921  0.1927 -0.1264 -0.2932
19135TIP3    H178896   4.178   6.140  12.916  0.0402 -0.1398 -1.0446
19135TIP3    H278897   4.074   6.033  12.888  0.7804 -0.6847 -1.7288
19136TIP3   OH278898   2.975   3.916   4.184 -0.0613  0.8379  0.2991
19136TIP3    H178899   3.028   3.995   4.181  1.6951 -0.3595 -1.5762
19136TIP3    H278900   2.910   3.928   4.115 -0.0908  0.8273  0.3250
19137TIP3   OH278901   0.407   5.663  13.778 -0.2354 -0.3063  0.2166
19137TIP3    H178902   0.438   5.682  13.867  2.6849 -1.5184 -0.4732
19137TIP3    H278903   0.386   5.749  13.742  4.0874  0.8778  0.2161
19138TIP3   OH278904   4.639   0.758   6.599  0.2275 -0.0777  0.4166
19138TIP3    H178905   4.617   0.849   6.581  0.7590 -0.0106  0.1052
19138TIP3    H278906   4.717   0.740   6.546 -0.8620 -1.2226 -0.8250
19139TIP3   OH278907   3.274   0.699  13.669  0.0942 -0.4317 -0.2673
19139TIP3    H178908   3.183   0.677  13.686 -0.2283 -0.2923 -1.7527
19139TIP3    H278909   3.272   0.789  13.638  0.5868 -0.8245 -1.4824
19140TIP3   OH278910   6.664   3.522   2.358  0.8665  0.4755  0.2002
19140TIP3    H178911   6.575   3.490   2.373  1.4721 -1.6487 -0.5813
19140TIP3    H278912   6.674   3.521   2.263  1.1930  2.2822  0.1944
19141TIP3   OH278913   3.173   5.482   2.404  0.0231 -0.1909 -0.1276
19141TIP3    H178914   3.244   5.447   2.458  0.7971  0.2341 -0.8598
19141TIP3    H278915   3.111   5.410   2.397 -0.9829  0.2976  2.8283
19142TIP3   OH278916   0.307   5.781   6.157 -0.0458 -0.3783 -0.2403
19142TIP3    H178917   0.264   5.818   6.234  0.7613  0.1413 -0.0408
19142TIP3    H278918   0.249   5.710   6.129 -1.2055  0.5168 -0.1595
19143TIP3   OH278919   0.753   0.231  15.534  0.2211  0.4697 -1.0211
19143TIP3    H178920   0.835   0.243  15.582  0.1361 -0.5217 -0.6321
19143TIP3    H278921   0.692   0.199  15.600 -0.6558  1.7964 -1.1673
19144TIP3   OH278922   0.812   0.328   4.616 -0.0312  0.2676 -0.2450
19144TIP3    H178923   0.895   0.307   4.572  0.1327  0.5611 -0.0790
19144TIP3    H278924   0.759   0.249   4.606 -0.6101  0.8825 -2.4093
19145TIP3   OH278925   3.299   2.528   0.950 -0.3899 -0.6476 -0.0557
19145TIP3    H178926   3.289   2.491   1.038 -2.9735  0.2988  0.0930
19145TIP3    H278927   3.224   2.586   0.940  3.1860  4.1732 -0.5182
19146TIP3   OH278928   5.780   1.559  15.226 -0.7309  0.5306  0.1024
19146TIP3    H178929   5.766   1.536  15.134  1.3692  0.6756 -0.2873
19146TIP3    H278930   5.782   1.655  15.226  0.8407  0.5093  0.0257
19147TIP3   OH278931   4.573   5.507   2.468 -0.5161  0.2022  0.0556
19147TIP3    H178932   4.540   5.430   2.422  0.8606 -0.2235 -0.2383
19147TIP3    H278933   4.618   5.558   2.401  1.6392 -0.4947  0.9444
19148TIP3   OH278934   6.502   2.340   2.228 -1.0088  0.0835 -0.1007
19148TIP3    H178935   6.522   2.417   2.174 -1.4019 -0.2398 -0.7122
19148TIP3    H278936   6.554   2.352   2.308  0.6256 -0.1016 -1.1095
19149TIP3   OH278937   3.344   3.457  13.686 -0.1082 -0.3168  0.0145
19149TIP3    H178938   3.301   3.415  13.611 -0.8200  0.1969  0.1299
19149TIP3    H278939   3.431   3.417  13.689 -0.0082 -0.2076 -1.1933
19150TIP3   OH278940   1.246   4.828   1.879  0.0470 -0.1860 -0.4813
19150TIP3    H178941   1.284   4.865   1.959  2.4740 -1.2563 -1.0934
19150TIP3    H278942   1.184   4.895   1.849  2.5563  2.3437 -0.2660
19151TIP3   OH278943   2.471   4.969   1.647  0.0902 -0.1953  0.1638
19151TIP3    H178944   2.453   5.063   1.647 -1.0008 -0.3703 -1.5003
19151TIP3    H278945   2.404   4.932   1.704 -0.9877 -0.1893 -1.0650
19152TIP3   OH278946   4.628   6.426   2.048  0.4224 -0.1690 -0.1188
19152TIP3    H178947   4.594   6.516   2.044  1.7786  0.3007 -2.2745
19152TIP3    H278948   4.722   6.436   2.035  0.5453 -1.9239 -0.6626
19153TIP3   OH278949   3.839   4.130   4.435 -0.0906  0.1085 -0.2074
19153TIP3    H178950   3.836   4.089   4.521 -1.4926 -0.6667 -0.6186
19153TIP3    H278951   3.843   4.224   4.454 -0.0879 -0.0701  0.7024
19154TIP3   OH278952   4.909   4.332  15.629 -0.7915 -0.0618  0.0010
19154TIP3    H178953   4.946   4.374  15.552 -0.1341  0.4359  0.5876
19154TIP3    H278954   4.961   4.253  15.641 -2.0883 -1.1145 -1.1623
19155TIP3   OH278955   3.608   0.651   4.602  0.0923 -0.4147  0.0507
19155TIP3    H178956   3.647   0.564   4.593  0.3178 -0.5158  1.7920
19155TIP3    H278957   3.680   0.711   4.582 -0.2095 -0.6160 -1.6991
19156TIP3   OH278958   1.853   6.198  15.383  0.1980  0.1044  0.1867
19156TIP3    H178959   1.810   6.115  15.406  2.0295 -1.0294 -0.3246
19156TIP3    H278960   1.939   6.171  15.349  0.8291  2.2261  0.0546
19157TIP3   OH278961   3.491   3.848   5.312  0.4135  0.0386 -0.8211
19157TIP3    H178962   3.586   3.847   5.324  0.3145 -1.9334  0.1100
19157TIP3    H278963   3.474   3.782   5.245 -0.4903 -1.7448  1.0776
19158TIP3   OH278964   2.666   3.451  16.828 -0.0778 -0.3287 -0.3243
19158TIP3    H178965   2.649   3.380  16.890  1.8145  1.0796  1.8771
19158TIP3    H278966   2.716   3.410  16.758  1.5138 -1.1107  1.2178
19159TIP3   OH278967   6.272   5.887   2.767 -0.5842  0.2743  0.2581
19159TIP3    H178968   6.303   5.800   2.743  1.1220  0.5486  1.3495
19159TIP3    H278969   6.247   5.880   2.859 -0.1116  1.0013  0.4497
19160TIP3   OH278970   6.391   2.184  11.917 -0.2409 -0.5577 -0.1571
19160TIP3    H178971   6.426   2.120  11.855  0.1953 -0.2300 -0.2546
19160TIP3    H278972   6.313   2.142  11.953 -1.1899 -0.2654 -1.8179
19161TIP3   OH278973   5.914   1.582  15.763 -0.3057  0.1898  0.1792
19161TIP3    H178974   5.957   1.655  15.807 -2.1096  1.1348  0.4245
19161TIP3    H278975   5.947   1.504  15.807  3.4170  0.6646 -1.6028
19162TIP3   OH278976   5.545   2.064  14.389  0.1217  0.4329 -0.0219
19162TIP3    H178977   5.484   2.114  14.443 -1.7779 -0.8083 -0.9650
19162TIP3    H278978   5.532   1.973  14.417  1.5489  0.1462 -0.2503
19163TIP3   OH278979   0.209   1.657   4.690  0.1235 -0.5959 -0.0307
19163TIP3    H178980   0.159   1.739   4.692 -0.5161 -0.9609 -0.7171
19163TIP3    H278981   0.215   1.635   4.597 -1.3253 -2.2818  0.2463
19164TIP3   OH278982   2.468   5.044   5.394  0.3354 -0.0388  0.0320
19164TIP3    H178983   2.485   5.007   5.481  0.0029 -1.4610 -0.4791
19164TIP3    H278984   2.400   4.987   5.358  0.2673  0.7154 -1.0486
19165TIP3   OH278985   5.146   0.621   5.249  0.0601  0.2160  0.0720
19165TIP3    H178986   5.091   0.678   5.195  0.0606 -0.1956 -0.3631
19165TIP3    H278987   5.109   0.534   5.238 -0.7161  0.3068  1.7383
19166TIP3   OH278988   4.869   1.892  11.145  0.1023  0.5135  0.2575
19166TIP3    H178989   4.930   1.961  11.119  0.5818  0.3407  0.8908
19166TIP3    H278990   4.916   1.810  11.125  0.4886  0.3815  1.6644
19167TIP3   OH278991   3.502   4.322  11.817 -0.3581 -0.2946  0.3071
19167TIP3    H178992   3.514   4.416  11.800 -0.4512 -0.7639 -2.6087
19167TIP3    H278993   3.591   4.286  11.811 -0.1701 -0.2274  2.5913
19168TIP3   OH278994   6.480   3.471  11.346  0.1710 -0.0423 -0.3980
19168TIP3    H178995   6.402   3.523  11.326  0.6247 -0.1394 -2.5841
19168TIP3    H278996   6.507   3.436  11.261  0.3417 -3.2153  0.9108
19169TIP3   OH278997   5.832   6.314  15.735  0.0756  0.2203  0.1039
19169TIP3    H178998   5.862   6.224  15.748  2.2239  0.7601 -0.8312
19169TIP3    H278999   5.810   6.346  15.822  2.4632 -0.1595  0.8564
19170TIP3   OH279000   3.303   0.518   2.856  0.0474  0.4500 -0.0501
19170TIP3    H179001   3.339   0.606   2.854 -0.7813  0.7991 -0.0360
19170TIP3    H279002   3.214   0.528   2.821 -0.4253 -0.1876  0.9225
19171TIP3   OH279003   6.070   1.358  14.867  0.3253 -0.9511  0.1785
19171TIP3    H179004   6.006   1.408  14.816  1.7569 -0.4835 -1.1939
19171TIP3    H279005   6.025   1.338  14.949 -0.7409  1.4694  0.2267
19172TIP3   OH279006   0.366   2.852   1.206 -0.2306 -0.1743 -0.1411
19172TIP3    H179007   0.271   2.861   1.200 -0.1859 -0.2006 -1.0109
19172TIP3    H279008   0.380   2.796   1.282 -0.9296 -0.4373 -0.2024
19173TIP3   OH279009   2.158   6.169  12.366 -0.1478 -0.2000 -0.4273
19173TIP3    H179010   2.243   6.127  12.376  0.7534  1.6463 -0.0756
19173TIP3    H279011   2.177   6.250  12.320 -1.6016  0.6315  0.3962
19174TIP3   OH279012   3.039   4.870  10.753 -0.0009 -0.2288 -0.1865
19174TIP3    H179013   3.109   4.911  10.702  1.2143  1.7011  2.9349
19174TIP3    H279014   2.974   4.939  10.764  0.0233 -0.4514  1.3645
19175TIP3   OH279015   1.951   5.807  11.686  0.1199  0.0968  0.3076
19175TIP3    H179016   1.959   5.789  11.592  2.0898 -0.9538  0.6412
19175TIP3    H279017   1.962   5.902  11.693  1.5037  0.0116 -0.4006
19176TIP3   OH279018   2.363   4.197   5.550  0.2699 -0.0834  0.2461
19176TIP3    H179019   2.386   4.110   5.582  1.4060  0.4533  0.9466
19176TIP3    H279020   2.268   4.200   5.553  0.2411 -1.1787  0.5414
19177TIP3   OH279021   4.191   1.121   0.346  0.4430 -0.3524  0.2855
19177TIP3    H179022   4.208   1.027   0.343  0.7853 -0.3378  1.3174
19177TIP3    H279023   4.096   1.127   0.360  0.4544 -0.5544  0.4684
19178TIP3   OH279024   6.284   0.881   0.986  0.1767 -0.0539  0.5138
19178TIP3    H179025   6.329   0.950   0.938  1.2719 -1.3994 -0.4185
19178TIP3    H279026   6.199   0.873   0.942  0.4626 -0.0156 -0.0504
19179TIP3   OH279027   1.539   3.174   5.192  0.5462  0.0930 -0.7819
19179TIP3    H179028   1.562   3.198   5.282  1.1025 -0.6581 -0.7193
19179TIP3    H279029   1.486   3.247   5.161  2.2854  1.4496 -0.6174
19180TIP3   OH279030   3.054   1.160   4.862  0.1409 -0.1420 -0.2547
19180TIP3    H179031   3.102   1.140   4.942 -0.1886  2.0715  0.5343
19180TIP3    H279032   3.061   1.255   4.853 -0.0604 -0.3201 -2.7085
19181TIP3   OH279033   1.064   5.186   2.825  0.2870  0.2771 -0.8484
19181TIP3    H179034   1.065   5.111   2.765 -0.8860  0.8381 -1.5826
19181TIP3    H279035   1.144   5.176   2.877 -0.1634 -1.7935 -0.5454
19182TIP3   OH279036   5.998   3.399   2.181 -0.2460  0.3742 -0.1748
19182TIP3    H179037   5.915   3.413   2.227 -0.7176  0.7647 -1.1334
19182TIP3    H279038   5.982   3.432   2.093  0.5370 -0.7019 -0.7258
19183TIP3   OH279039   6.051   4.864  14.926  0.1579 -0.2254  0.2558
19183TIP3    H179040   6.088   4.908  15.003  0.0923 -1.4606  1.0133
19183TIP3    H279041   6.045   4.932  14.860  1.0667  0.6535  1.0632
19184TIP3   OH279042   5.376   3.681  12.401 -0.1978 -0.9130 -0.1799
19184TIP3    H179043   5.419   3.748  12.455 -0.0300  0.4761 -1.9974
19184TIP3    H279044   5.283   3.692  12.419 -0.0505 -1.4220  0.9201
19185TIP3   OH279045   0.731   0.120   5.685  0.0299  0.3733 -0.0618
19185TIP3    H179046   0.764   0.186   5.623 -2.1181  0.8885 -0.7035
19185TIP3    H279047   0.694   0.052   5.630 -1.8692  0.8169  0.6342
19186TIP3   OH279048   5.530   1.545  15.481 -0.1137 -0.1828  0.0812
19186TIP3    H179049   5.514   1.458  15.518  0.1578 -0.7963 -1.2224
19186TIP3    H279050   5.478   1.547  15.401 -0.7162  1.1449  0.4767
19187TIP3   OH279051   6.296   5.111   3.674  0.8120 -0.6019  0.3373
19187TIP3    H179052   6.371   5.080   3.625 -0.4173 -0.7099 -1.5027
19187TIP3    H279053   6.324   5.196   3.709  2.1871 -1.1800  0.6842
19188TIP3   OH279054   3.877   0.494   2.509  0.4330 -0.7050 -0.7077
19188TIP3    H179055   3.851   0.468   2.597  1.9706  1.3364  0.3735
19188TIP3    H279056   3.972   0.496   2.512  0.5135 -1.0184 -2.5562
19189TIP3   OH279057   2.373   2.515   6.282 -0.0462  0.7944  0.5441
19189TIP3    H179058   2.385   2.545   6.372  0.8808 -0.7778  0.9767
19189TIP3    H279059   2.431   2.570   6.230  0.3931  0.8565  1.0939
19190TIP3   OH279060   2.927   1.210   2.665  0.2294  0.6905  0.0171
19190TIP3    H179061   2.988   1.192   2.737 -0.5672 -1.1846  0.2517
19190TIP3    H279062   2.855   1.149   2.679 -1.3432  2.3417 -0.7139
19191TIP3   OH279063   6.336   3.825   3.707  0.7903  0.0446  0.8533
19191TIP3    H179064   6.427   3.855   3.704  0.9614 -0.5937 -2.3074
19191TIP3    H279065   6.343   3.729   3.710  0.2790 -0.1373 -2.1226
19192TIP3   OH279066   0.204   3.673   1.295  0.2335  0.4606 -0.6887
19192TIP3    H179067   0.190   3.586   1.257  0.5344 -0.6628  1.6859
19192TIP3    H279068   0.129   3.724   1.266 -1.7721 -1.5935  0.7178
19193TIP3   OH279069   4.668   6.238   4.066  0.6076  0.0655  0.4654
19193TIP3    H179070   4.720   6.170   4.108  0.8661  0.1733  0.3215
19193TIP3    H279071   4.720   6.317   4.075 -0.2457  0.4941  1.7017
19194TIP3   OH279072   1.959   0.299   4.697 -0.0616 -0.5005 -0.0103
19194TIP3    H179073   2.005   0.225   4.658 -1.2355  0.7551 -4.0196
19194TIP3    H279074   1.870   0.293   4.662 -0.6883  1.7221  1.0982
19195TIP3   OH279075   2.149   0.775   5.738  0.3692  0.0286  0.3570
19195TIP3    H179076   2.164   0.799   5.830  0.0365 -0.5675  0.5776
19195TIP3    H279077   2.063   0.812   5.718  0.2397 -0.2255  0.4319
19196TIP3   OH279078   2.977   4.580  12.812  0.3634 -0.1332 -0.5320
19196TIP3    H179079   2.905   4.575  12.876 -0.1950 -1.7871 -1.2607
19196TIP3    H279080   2.935   4.598  12.729  0.9129  0.1289 -0.7584
19197TIP3   OH279081   3.466   4.610   2.202  0.0472  0.1229 -0.1955
19197TIP3    H179082   3.426   4.681   2.252  1.8814  3.3936 -3.1301
19197TIP3    H279083   3.440   4.627   2.111  0.9952 -2.6651 -1.0484
19198TIP3   OH279084   4.874   5.232   3.884  0.0580  0.3637 -0.5538
19198TIP3    H179085   4.847   5.140   3.885  0.8287  0.1288 -1.0895
19198TIP3    H279086   4.907   5.248   3.972 -1.5180  0.5720  0.0303
19199TIP3   OH279087   3.017   2.352  14.496  0.2989  0.2509  0.4454
19199TIP3    H179088   2.968   2.434  14.494  0.2785  0.2477  0.7685
19199TIP3    H279089   3.001   2.312  14.410 -0.7555 -0.0365  0.7710
19200TIP3   OH279090   5.163   1.409   5.631 -0.2868 -0.1307  0.4573
19200TIP3    H179091   5.098   1.385   5.697  0.6829 -1.0793  1.0964
19200TIP3    H279092   5.123   1.384   5.547 -1.1793  0.2983  0.7542
19201TIP3   OH279093   5.727   4.464   4.580  0.2432  0.1804  0.1539
19201TIP3    H179094   5.663   4.467   4.509  1.7775 -1.0933 -1.3361
19201TIP3    H279095   5.694   4.396   4.639 -0.4948  0.5043  0.1185
19202TIP3   OH279096   4.260   6.471   0.031 -0.3007  0.4598 -0.5609
19202TIP3    H179097   4.194   6.540   0.040 -1.5174 -0.5477 -1.5402
19202TIP3    H279098   4.250   6.418   0.110  0.4134  1.2107  0.0369
19203TIP3   OH279099   2.304   1.617  12.443 -0.7425 -0.2927 -0.2534
19203TIP3    H179100   2.245   1.637  12.371  0.2424 -1.9929 -1.5606
19203TIP3    H279101   2.376   1.679  12.433  0.1164 -1.5057 -1.6205
19204TIP3   OH279102   4.155   3.164  12.472  0.6013 -0.3981 -0.0478
19204TIP3    H179103   4.123   3.253  12.462  1.1216  0.1199  2.4822
19204TIP3    H279104   4.245   3.167  12.441  0.8958  0.1762  0.8456
19205TIP3   OH279105   3.143   3.595  15.075  0.3460 -0.0129  0.4047
19205TIP3    H179106   3.218   3.654  15.068  0.7757 -0.8701 -3.6941
19205TIP3    H279107   3.176   3.521  15.127  1.4875  0.8410  0.9204
19206TIP3   OH279108   2.201   3.084  11.316 -0.0295 -0.2103  0.0058
19206TIP3    H179109   2.233   2.999  11.346  1.2536  0.1003 -0.4706
19206TIP3    H279110   2.220   3.086  11.223 -0.3447  0.4735 -0.0489
19207TIP3   OH279111   4.961   6.118   1.316 -0.5151 -0.5800  0.0743
19207TIP3    H179112   4.995   6.049   1.260  1.1263  0.0546  0.2715
19207TIP3    H279113   4.964   6.197   1.263  0.7456 -0.0362  0.9345
19208TIP3   OH279114   6.129   4.407  16.952  0.0394  0.1010 -0.4916
19208TIP3    H179115   6.111   4.327  16.903  2.2456  0.1151 -1.3579
19208TIP3    H279116   6.042   4.443  16.971 -0.9816 -2.5201 -0.0118
19209TIP3   OH279117   2.675   3.695   3.827 -0.1059 -0.7357  0.1281
19209TIP3    H179118   2.759   3.691   3.874 -0.4359 -2.3397  0.6434
19209TIP3    H279119   2.669   3.610   3.783 -0.9374 -0.1784 -0.8436
19210TIP3   OH279120   5.840   3.962   3.695  0.8252  0.1950 -0.0738
19210TIP3    H179121   5.779   3.898   3.659 -0.6045  1.4705  0.0485
19210TIP3    H279122   5.790   4.043   3.699  2.3729  1.1305  0.5303
19211TIP3   OH279123   0.428   6.682  15.837  0.7546  0.2391  0.0603
19211TIP3    H179124   0.405   6.652  15.925  1.6444  0.4227  0.3597
19211TIP3    H279125   0.466   6.769  15.850  1.3877  0.0479 -0.4389
19212TIP3   OH279126   3.787   5.624  17.264 -0.1269 -0.0037  0.4090
19212TIP3    H179127   3.840   5.554  17.302  1.0901  0.4642 -0.3832
19212TIP3    H279128   3.706   5.624  17.316  0.1215 -1.5631  0.8207
19213TIP3   OH279129   6.376   1.321   4.147 -0.0061  0.1753 -0.2565
19213TIP3    H179130   6.387   1.270   4.227  2.8204  0.6662 -0.2708
19213TIP3    H279131   6.308   1.384   4.168  0.1146 -0.2468  1.5065
19214TIP3   OH279132   0.052   1.139  16.922  0.2292 -0.1598 -0.2732
19214TIP3    H179133   0.072   1.124  17.015  2.2632 -1.5231 -0.9088
19214TIP3    H279134   0.131   1.113  16.876 -0.8149  0.3878 -2.4307
19215TIP3   OH279135   5.861   3.190   0.800  0.2090 -0.4822 -0.1609
19215TIP3    H179136   5.939   3.192   0.745  0.0405 -2.6317 -0.5132
19215TIP3    H279137   5.829   3.281   0.799  0.3716 -0.4074 -3.3750
19216TIP3   OH279138   0.939   4.374  16.373 -1.1221 -0.0351 -0.2376
19216TIP3    H179139   0.970   4.397  16.286  2.3132 -0.6371  0.7336
19216TIP3    H279140   0.911   4.283  16.366  2.1779 -1.1195 -0.0453
19217TIP3   OH279141   5.287   5.600   0.570  0.4677 -0.4246  0.2720
19217TIP3    H179142   5.323   5.675   0.618  1.4631 -1.2054  0.7456
19217TIP3    H279143   5.283   5.630   0.479 -1.0755  0.9234  0.7553
19218TIP3   OH279144   1.435   6.691  14.870  0.6533  0.0583  0.9083
19218TIP3    H179145   1.387   6.769  14.898 -1.3073 -1.0689  0.7491
19218TIP3    H279146   1.419   6.627  14.940  0.1649 -1.0034 -0.1648
19219TIP3   OH279147   1.004   6.758  15.020 -0.1779 -0.5061  0.0995
19219TIP3    H179148   1.039   6.732  15.105 -0.5967 -3.5118 -0.5841
19219TIP3    H279149   0.942   6.829  15.040  1.8384  0.7773  1.9349
19220TIP3   OH279150   4.901   6.417  11.578 -0.6278  0.3655  0.4347
19220TIP3    H179151   4.812   6.451  11.566  0.0814  1.8152 -0.9814
19220TIP3    H279152   4.947   6.486  11.627 -0.5100 -0.7427  1.8835
19221TIP3   OH279153   4.339   3.304  14.473  0.4855 -0.4152 -0.0695
19221TIP3    H179154   4.385   3.303  14.389 -2.0907 -1.1337 -1.5436
19221TIP3    H279155   4.268   3.367  14.460  1.1459  0.8297  2.2090
19222TIP3   OH279156   0.603   2.512   2.397  0.2711 -0.0383 -0.1880
19222TIP3    H179157   0.532   2.574   2.378 -2.7933 -2.9697  1.1333
19222TIP3    H279158   0.650   2.552   2.470 -2.7434 -0.0037  1.8375
19223TIP3   OH279159   0.155   4.037   2.446 -0.4982  0.1525 -0.1487
19223TIP3    H179160   0.063   4.022   2.424 -0.7690 -1.2705  1.7836
19223TIP3    H279161   0.155   4.049   2.541  1.1740  1.3274 -0.2797
19224TIP3   OH279162   6.395   0.099  16.931 -0.2586  0.1439 -0.5991
19224TIP3    H179163   6.467   0.140  16.978 -2.2249  1.9071  0.9968
19224TIP3    H279164   6.434   0.066  16.850  2.3568  0.8113  0.3548
19225TIP3   OH279165   4.333   4.276  13.381 -0.0678  0.1587  0.5089
19225TIP3    H179166   4.252   4.233  13.406  1.1463 -3.3786 -1.3621
19225TIP3    H279167   4.323   4.294  13.288  1.2420 -0.2670  0.2710
19226TIP3   OH279168   5.473   3.282   3.158  0.2723 -0.3922 -0.8646
19226TIP3    H179169   5.517   3.259   3.076  0.4582 -1.1659 -0.5453
19226TIP3    H279170   5.395   3.227   3.160  1.3833 -1.9439  0.5148
19227TIP3   OH279171   6.792   5.836   4.843  0.5610  0.3790  0.0316
19227TIP3    H179172   6.737   5.871   4.773  0.7104  2.2390  0.8081
19227TIP3    H279173   6.731   5.794   4.904  0.5131 -2.0025 -1.6168
19228TIP3   OH279174   5.656   1.271  17.109  0.1062 -0.1300 -0.0301
19228TIP3    H179175   5.606   1.209  17.055 -0.3423  0.3697 -0.1840
19228TIP3    H279176   5.731   1.295  17.054 -1.4557  2.0144 -1.2920
19229TIP3   OH279177   1.916   0.210   5.832 -0.0778  0.0916 -0.1227
19229TIP3    H179178   1.915   0.274   5.903  0.2452  0.6230 -0.5999
19229TIP3    H279179   1.829   0.171   5.833 -0.4719  0.9742 -0.2398
19230TIP3   OH279180   6.205   6.102  15.774 -0.3310  0.0628  0.2877
19230TIP3    H179181   6.275   6.051  15.733  1.7497  1.8769  1.4795
19230TIP3    H279182   6.174   6.046  15.845  0.3079 -0.5302  0.1087
19231TIP3   OH279183   2.525   1.748  16.536  0.2868  0.0801 -0.3700
19231TIP3    H179184   2.506   1.827  16.485  0.3993  0.2560 -0.1407
19231TIP3    H279185   2.595   1.774  16.595 -1.5387  0.6299  1.6359
19232TIP3   OH279186   4.984   1.653   6.088  0.4102 -0.3246 -0.2469
19232TIP3    H179187   4.936   1.637   6.008  1.2495  1.0400 -1.0484
19232TIP3    H279188   5.044   1.579   6.096  0.0512 -0.6597 -0.6635
19233TIP3   OH279189   0.419   3.978   2.463  0.3299 -0.3575 -0.7127
19233TIP3    H179190   0.333   3.999   2.427 -0.5277 -1.0278  0.8602
19233TIP3    H279191   0.481   4.021   2.405 -1.1797  2.3613 -0.4041
19234TIP3   OH279192   6.110   2.378   5.636 -0.1982 -0.1874  0.0801
19234TIP3    H179193   6.171   2.311   5.607 -1.5884 -0.6604 -1.8408
19234TIP3    H279194   6.037   2.329   5.675 -1.2867  0.1775 -1.4589
19235TIP3   OH279195   4.651   4.644  14.098 -0.2518  0.9454  0.0002
19235TIP3    H179196   4.651   4.568  14.157 -0.1070  1.2868  0.4434
19235TIP3    H279197   4.616   4.610  14.016  0.5916  0.1959 -0.0605
19236TIP3   OH279198   3.988   1.335   1.258 -0.2376 -0.2405  0.2763
19236TIP3    H179199   3.917   1.388   1.294  0.6392  0.9402  0.2823
19236TIP3    H279200   3.998   1.263   1.320  0.2401  0.9409  1.5960
19237TIP3   OH279201   5.898   2.641  10.771 -0.2853 -0.0447  0.0696
19237TIP3    H179202   5.889   2.665  10.678  0.6017 -1.5293 -0.4267
19237TIP3    H279203   5.840   2.701  10.817 -1.5237  0.0340 -1.5533
19238TIP3   OH279204   2.730   5.020   2.811 -0.4914  0.1788  0.0935
19238TIP3    H179205   2.782   5.060   2.881 -0.0935 -0.2357  0.0368
19238TIP3    H279206   2.713   5.092   2.750  1.6352 -0.0653 -0.8432
19239TIP3   OH279207   1.236   2.450   0.714  0.5917  0.0358 -0.3054
19239TIP3    H179208   1.272   2.429   0.801  1.0009 -2.3608 -1.0099
19239TIP3    H279209   1.154   2.494   0.733  0.8780 -0.0694  1.3170
19240TIP3   OH279210   2.867   3.083   2.861  0.0990  0.6535 -0.3769
19240TIP3    H179211   2.960   3.090   2.884  0.1602  1.1570 -0.7576
19240TIP3    H279212   2.851   3.158   2.804  0.0859 -0.7837 -2.3519
19241TIP3   OH279213   4.834   2.593  12.837 -0.4668 -0.1976  0.4451
19241TIP3    H179214   4.911   2.550  12.875 -0.2588 -0.8640 -0.7218
19241TIP3    H279215   4.817   2.667  12.896  0.2160 -0.8581  1.4966
19242TIP3   OH279216   0.581   3.986   5.086 -0.5792 -0.6149 -0.3314
19242TIP3    H179217   0.617   3.899   5.070 -0.1601 -0.6478  0.6906
19242TIP3    H279218   0.622   4.042   5.020  0.1166 -0.9669 -0.2071
19243TIP3   OH279219   4.876   3.691   0.991 -0.2871 -0.0966 -0.3275
19243TIP3    H179220   4.816   3.648   1.051 -1.0405  2.5765  0.8849
19243TIP3    H279221   4.821   3.721   0.919  0.4289 -2.2180 -1.8169
19244TIP3   OH279222   2.399   2.921  12.545 -0.0588  0.1431  0.1405
19244TIP3    H179223   2.340   2.849  12.567  1.1845 -1.5534 -1.8798
19244TIP3    H279224   2.343   2.988  12.507 -1.0709 -0.2018  1.0152
19245TIP3   OH279225   5.985   1.979  13.522 -0.2870 -0.1313  0.0970
19245TIP3    H179226   6.042   1.975  13.445  0.5867 -1.9273  0.8067
19245TIP3    H279227   6.002   2.066  13.560 -1.0972  0.9657 -1.9773
19246TIP3   OH279228   0.806   1.759  13.212 -0.1353 -0.0149  0.5286
19246TIP3    H179229   0.779   1.738  13.301 -1.8443  1.0287  0.2813
19246TIP3    H279230   0.793   1.677  13.163 -0.9280 -0.0841  0.8527
19247TIP3   OH279231   0.185   5.377   2.555  0.4271  0.1507 -0.1915
19247TIP3    H179232   0.174   5.397   2.462  0.7139  0.9969 -0.0431
19247TIP3    H279233   0.174   5.460   2.599  2.7488  0.2179  0.3351
19248TIP3   OH279234   1.395   1.053  14.939 -0.3045 -0.1041  0.3917
19248TIP3    H179235   1.484   1.020  14.940  0.2475  1.2454 -1.4119
19248TIP3    H279236   1.382   1.090  15.026  1.1628  0.3395  0.4301
19249TIP3   OH279237   4.867   4.127   6.290  0.5555  0.3888  0.4465
19249TIP3    H179238   4.912   4.166   6.216  1.0412  1.3582  1.2438
19249TIP3    H279239   4.813   4.198   6.326 -0.0649 -0.2089  0.7113
19250TIP3   OH279240   1.656   0.208   0.678  0.2324  0.2249 -0.1319
19250TIP3    H179241   1.717   0.142   0.710 -0.0743 -0.5146 -1.0680
19250TIP3    H279242   1.638   0.263   0.755  0.8388 -0.5010  0.5386
19251TIP3   OH279243   3.221   0.913  12.750 -0.8369 -0.2765 -0.5064
19251TIP3    H179244   3.152   0.854  12.720  0.0088 -1.8346  0.5896
19251TIP3    H279245   3.187   0.952  12.830 -1.4483  0.8333 -1.2998
19252TIP3   OH279246   2.582   2.250  14.229  0.4480  0.1101  0.2682
19252TIP3    H179247   2.558   2.216  14.315  1.4159 -1.8002 -0.1664
19252TIP3    H279248   2.594   2.171  14.175 -1.1415  1.3096 -1.8932
19253TIP3   OH279249   4.359   5.059   2.883 -0.3270  0.6372 -0.2458
19253TIP3    H179250   4.297   5.075   2.812 -1.0824 -0.9887  0.0439
19253TIP3    H279251   4.435   5.020   2.840  0.0004  1.4575 -0.4230
19254TIP3   OH279252   0.380   2.353   0.208 -0.3369  0.0235  0.2260
19254TIP3    H179253   0.351   2.262   0.214 -1.5474  0.3541 -0.4246
19254TIP3    H279254   0.366   2.388   0.296 -1.9067  0.1674 -0.0671
19255TIP3   OH279255   0.210   3.131  11.400  0.1744  0.1319 -0.1408
19255TIP3    H179256   0.205   3.042  11.436  2.4212 -0.5243 -1.3306
19255TIP3    H279257   0.238   3.185  11.474  1.2049 -0.5883  0.0150
19256TIP3   OH279258   6.096   2.830  13.045 -0.1572 -0.0616  0.3558
19256TIP3    H179259   6.017   2.783  13.018 -0.5027  0.7482 -0.0447
19256TIP3    H279260   6.069   2.921  13.051  0.1140 -0.0866  2.6247
19257TIP3   OH279261   1.543   4.903   3.647  0.2188  0.0132 -0.0129
19257TIP3    H179262   1.504   4.874   3.730  1.8747  0.4765  0.9553
19257TIP3    H279263   1.519   4.836   3.584 -0.5805 -0.6408  0.9749
19258TIP3   OH279264   4.855   1.960   0.943  0.5549  0.2595  0.0390
19258TIP3    H179265   4.824   1.944   1.033 -0.6947 -0.9134 -0.5755
19258TIP3    H279266   4.945   1.929   0.943  0.7541  0.8028  1.0407
19259TIP3   OH279267   3.496   0.801  14.164 -0.0251  0.2341 -0.3264
19259TIP3    H179268   3.419   0.786  14.109  0.8089 -0.4256 -1.3343
19259TIP3    H279269   3.562   0.742  14.128  1.1375  1.2492  0.1421
19260TIP3   OH279270   0.026   0.151   3.490  0.7218 -0.0374  0.2369
19260TIP3    H179271   0.105   0.172   3.439  0.7568  1.7241  0.9755
19260TIP3    H279272   0.059   0.111   3.570  0.7415 -1.3911 -0.4351
19261TIP3   OH279273   5.527   1.141   6.385 -0.6531 -0.6584 -0.0633
19261TIP3    H179274   5.497   1.195   6.458 -0.9611 -2.9592  1.5777
19261TIP3    H279275   5.449   1.093   6.357 -0.0677 -1.4027 -0.4466
19262TIP3   OH279276   4.761   1.611   1.924 -0.4828  0.0617  0.4742
19262TIP3    H179277   4.755   1.645   2.013 -0.9215 -0.3012  0.5842
19262TIP3    H279278   4.684   1.554   1.914 -1.4619  1.5447 -0.7499
19263TIP3   OH279279   1.078   4.062  12.568  0.2273 -0.3046  0.1789
19263TIP3    H179280   1.148   4.012  12.610  1.0206 -1.0525 -1.9722
19263TIP3    H279281   1.098   4.153  12.587 -0.4527 -0.6840  2.9610
19264TIP3   OH279282   2.316   4.681  16.770  0.3278 -0.0560 -0.0411
19264TIP3    H179283   2.297   4.689  16.863  1.3875 -0.3256  0.1966
19264TIP3    H279284   2.247   4.624  16.737 -1.7221  2.2818  0.0261
19265TIP3   OH279285   5.645   3.441   5.840 -0.0146  0.6290  0.0746
19265TIP3    H179286   5.741   3.434   5.847  0.1956  1.9651 -1.3027
19265TIP3    H279287   5.620   3.368   5.784  0.2326  0.4369  0.2125
19266TIP3   OH279288   4.899   3.829  16.913  0.2625 -0.0917  0.4146
19266TIP3    H179289   4.886   3.923  16.923  1.0379 -0.0253  0.7737
19266TIP3    H279290   4.851   3.790  16.986 -1.4666 -0.0704 -0.6800
19267TIP3   OH279291   0.217   6.420   3.850  0.7133 -0.5317 -0.0501
19267TIP3    H179292   0.226   6.327   3.829  1.4457  0.1241 -2.7967
19267TIP3    H279293   0.306   6.453   3.854  0.4142  0.3700 -0.6467
19268TIP3   OH279294   6.280   2.262  14.454 -0.2815  0.0706  0.3359
19268TIP3    H179295   6.270   2.178  14.498 -1.4843  0.8299  1.5767
19268TIP3    H279296   6.363   2.255  14.406 -0.4525 -1.8574  0.2917
19269TIP3   OH279297   0.681   0.637   3.231  0.4143 -0.5188 -0.4928
19269TIP3    H179298   0.744   0.664   3.164  0.3861 -1.7183 -0.9993
19269TIP3    H279299   0.733   0.630   3.311  0.1773  2.3842 -0.0268
19270TIP3   OH279300   6.315   1.091  14.040  0.3229  0.2670  0.2302
19270TIP3    H179301   6.287   1.002  14.061  0.7224  0.2158  0.5592
19270TIP3    H279302   6.317   1.094  13.944 -0.0880  0.0480  0.2154
19271TIP3   OH279303   3.806   2.893   1.917  0.0459 -0.5544  0.5244
19271TIP3    H179304   3.875   2.828   1.911 -0.1271 -0.7773  0.9208
19271TIP3    H279305   3.735   2.858   1.863  0.2318 -0.3332  0.1309
19272TIP3   OH279306   6.539   1.685  15.764 -0.4132 -0.4296 -0.5084
19272TIP3    H179307   6.511   1.775  15.774  0.4002 -0.2734  0.4799
19272TIP3    H279308   6.466   1.641  15.722 -0.5502  0.8398 -1.6227
19273TIP3   OH279309   2.559   2.332   0.768 -0.5134  0.2063 -0.3419
19273TIP3    H179310   2.567   2.346   0.862  1.6615 -0.3073 -0.4196
19273TIP3    H279311   2.482   2.382   0.742 -0.1455  1.7364  1.4291
19274TIP3   OH279312   5.339   5.110   1.315 -0.2326  0.0717  0.1976
19274TIP3    H179313   5.401   5.083   1.247  0.9230 -0.3581  1.4003
19274TIP3    H279314   5.364   5.199   1.337  2.2009 -1.2314  3.0822
19275TIP3   OH279315   3.747   5.548   4.541 -0.0548 -0.0499 -0.2461
19275TIP3    H179316   3.802   5.497   4.600  1.5688  0.8065 -0.9919
19275TIP3    H279317   3.801   5.624   4.517 -0.9937  0.0562 -2.1482
19276TIP3   OH279318   3.003   5.319   4.446 -0.3235 -0.2999 -0.0003
19276TIP3    H179319   2.975   5.227   4.442 -2.1273  0.2018  0.8585
19276TIP3    H279320   3.016   5.336   4.539 -1.7492  0.8186  0.0082
19277TIP3   OH279321   1.889   4.831   2.774 -0.2761  0.3852 -0.7205
19277TIP3    H179322   1.870   4.812   2.682 -1.1488  0.5523 -0.5743
19277TIP3    H279323   1.807   4.812   2.820 -0.1213  1.2003 -0.0987
19278TIP3   OH279324   2.632   4.588  16.455  0.4682 -0.6934  1.0719
19278TIP3    H179325   2.662   4.570  16.543  1.3103  0.9186  1.1375
19278TIP3    H279326   2.705   4.562  16.398  0.4734 -0.4367  0.9564
19279TIP3   OH279327   5.977   3.173   3.554  0.1124  0.2595  0.0114
19279TIP3    H179328   5.975   3.253   3.501 -0.5061 -0.0162 -0.3834
19279TIP3    H279329   6.062   3.133   3.535 -1.0596 -1.0866 -2.6249
19280TIP3   OH279330   2.631   4.462  15.147 -0.3626  0.2167 -0.0376
19280TIP3    H179331   2.689   4.414  15.206 -3.5315 -3.1193  0.4889
19280TIP3    H279332   2.622   4.406  15.071 -0.9072  1.8786 -1.2232
19281TIP3   OH279333   0.675   0.635  15.128 -0.3305 -0.4563 -0.0189
19281TIP3    H179334   0.769   0.618  15.128 -0.5842 -2.1804 -2.8120
19281TIP3    H279335   0.648   0.623  15.219  2.1943  0.4415  0.8892
19282TIP3   OH279336   4.804   6.532  10.725  0.1808 -0.0412  0.4274
19282TIP3    H179337   4.886   6.562  10.686  0.6083 -0.3518  1.0723
19282TIP3    H279338   4.806   6.437  10.715 -0.2744 -0.0197  0.1168
19283TIP3   OH279339   5.549   3.691   0.176  0.0835  0.5433 -0.2600
19283TIP3    H179340   5.563   3.786   0.175  0.1457  0.5444  0.3735
19283TIP3    H279341   5.572   3.664   0.265  1.5126 -0.2917 -0.8735
19284TIP3   OH279342   3.585   5.991   2.344  0.0689  0.2141 -0.5725
19284TIP3    H179343   3.523   6.027   2.406 -0.8133 -0.0701 -1.2727
19284TIP3    H279344   3.654   5.952   2.398 -0.4360  0.4036  0.2126
19285TIP3   OH279345   4.510   5.848  14.818  0.0851 -0.0349 -0.3084
19285TIP3    H179346   4.543   5.778  14.874 -0.1320  1.7276  2.0953
19285TIP3    H279347   4.429   5.876  14.861  0.8354  2.5412 -0.5072
19286TIP3   OH279348   0.547   0.751   2.554 -0.7231  0.1011 -0.3438
19286TIP3    H179349   0.587   0.793   2.630 -0.2463 -0.5133 -0.2555
19286TIP3    H279350   0.619   0.740   2.492 -0.7924 -0.8174 -0.2666
19287TIP3   OH279351   0.067   5.840   3.311 -0.4146 -0.7323  0.2722
19287TIP3    H179352   0.009   5.886   3.249 -0.7382 -0.8206  0.5058
19287TIP3    H279353   0.009   5.816   3.384 -0.1385 -1.0600  0.3847
19288TIP3   OH279354   3.771   4.671   2.897  0.4006 -0.6048  0.0396
19288TIP3    H179355   3.725   4.744   2.855  0.5950 -0.0688  0.7544
19288TIP3    H279356   3.804   4.618   2.824 -1.7475 -1.2561 -0.4944
19289TIP3   OH279357   4.642   0.219   4.030 -0.2494  0.0937 -0.2928
19289TIP3    H179358   4.735   0.234   4.046 -0.1263 -0.1842 -0.7172
19289TIP3    H279359   4.609   0.304   3.999 -0.5434  0.6849  1.6135
19290TIP3   OH279360   5.047   5.835   0.253 -0.3512 -0.9315  0.1839
19290TIP3    H179361   5.083   5.819   0.166 -1.3739 -0.3676 -0.3463
19290TIP3    H279362   4.955   5.858   0.238  0.0075  1.3380  1.2385
19291TIP3   OH279363   2.083   3.492  13.728 -0.2542 -0.1501 -0.1802
19291TIP3    H179364   2.050   3.402  13.735 -0.7831 -0.1835 -2.7235
19291TIP3    H279365   2.178   3.483  13.732 -0.2473 -0.9892 -1.8847
19292TIP3   OH279366   5.659   0.689  14.384  0.1513 -0.5765  0.2718
19292TIP3    H179367   5.591   0.656  14.326 -0.6079 -0.5074  1.1176
19292TIP3    H279368   5.642   0.783  14.390  0.1056 -0.6146  0.7582
19293TIP3   OH279369   6.453   5.686  15.542  0.1712  0.9742 -0.3798
19293TIP3    H179370   6.523   5.748  15.521 -0.3141  1.5645 -0.2790
19293TIP3    H279371   6.397   5.733  15.604  0.6381 -0.1296  0.8912
19294TIP3   OH279372   2.284   2.597   1.778 -0.0462  0.3132 -0.1503
19294TIP3    H179373   2.373   2.602   1.814  1.1128 -0.8193 -2.6961
19294TIP3    H279374   2.291   2.639   1.692 -2.3536  1.5394  0.2151
19295TIP3   OH279375   3.885   0.523  14.820 -0.3715 -0.5285 -0.2077
19295TIP3    H179376   3.915   0.461  14.886  0.1665 -0.4494 -0.3719
19295TIP3    H279377   3.790   0.520  14.825 -0.3291 -0.4890  0.5989
19296TIP3   OH279378   0.579   4.334   0.000 -0.1819  0.3399 -0.0360
19296TIP3    H179379   0.634   4.372  -0.068 -1.5758  0.5537 -1.0597
19296TIP3    H279380   0.628   4.257   0.031  2.3464  2.4659  1.5507
19297TIP3   OH279381   4.606   3.475   2.976  0.1922  0.6384 -0.0164
19297TIP3    H179382   4.541   3.409   2.950 -1.4739  1.7702  1.1773
19297TIP3    H279383   4.647   3.439   3.054  0.7673  0.0580 -0.5900
19298TIP3   OH279384   0.481   5.292   6.279  0.3834 -0.3849  0.5654
19298TIP3    H179385   0.388   5.314   6.289 -0.1307 -2.5535  0.9260
19298TIP3    H279386   0.504   5.324   6.192 -0.8488 -0.2699  0.2736
19299TIP3   OH279387   1.088   0.778  15.835  0.3345 -0.3362  0.3981
19299TIP3    H179388   1.058   0.688  15.823 -0.0474 -0.2166  0.4849
19299TIP3    H279389   1.111   0.807  15.746 -0.8236 -0.0587  0.1893
19300TIP3   OH279390   4.474   1.025  16.263 -0.0058 -0.0727  0.6252
19300TIP3    H179391   4.474   1.107  16.213  0.3833 -0.2759  0.2885
19300TIP3    H279392   4.566   1.006  16.279 -0.0843 -0.5265  0.5654
19301TIP3   OH279393   6.725   4.976  13.845 -0.1754  0.2742 -0.0324
19301TIP3    H179394   6.811   4.994  13.883 -0.5777  0.7014  0.6823
19301TIP3    H279395   6.664   4.981  13.919 -0.6067 -1.6862 -0.2195
19302TIP3   OH279396   0.975   3.411   6.904  0.2759 -0.1971  0.5386
19302TIP3    H179397   0.915   3.392   6.832 -0.4572 -0.5119  1.2334
19302TIP3    H279398   1.045   3.462   6.863  0.4912 -1.4040 -0.6477
19303TIP3   OH279399   1.394   5.653  16.957 -0.4505 -0.1321  0.3950
19303TIP3    H179400   1.322   5.592  16.975 -0.9708 -0.6252 -3.1264
19303TIP3    H279401   1.465   5.623  17.013 -1.4716 -2.5591  0.4281
19304TIP3   OH279402   5.620   2.410  15.338  0.3182  0.7576 -0.2458
19304TIP3    H179403   5.635   2.458  15.420  1.1320  3.0493 -1.7005
19304TIP3    H279404   5.556   2.462  15.291  0.0370 -0.4296 -1.1878
19305TIP3   OH279405   0.919   0.706   4.440 -0.0999 -0.2400 -0.6947
19305TIP3    H179406   0.922   0.688   4.534  0.6806  2.2363 -0.2130
19305TIP3    H279407   0.996   0.662   4.405  0.1138 -0.4099 -0.0279
19306TIP3   OH279408   6.000   3.109   3.002  0.4479 -0.6283  0.2834
19306TIP3    H179409   5.921   3.086   3.050  0.7945 -1.0098  0.6807
19306TIP3    H279410   6.064   3.042   3.027  1.5983  0.9746  1.7976
19307TIP3   OH279411   4.299   2.146   4.408 -0.4458 -0.3400 -0.1493
19307TIP3    H179412   4.347   2.143   4.326  3.1765  0.9923  1.7982
19307TIP3    H279413   4.362   2.181   4.471 -3.1680 -1.1276  3.1553
19308TIP3   OH279414   4.809   6.357  14.906 -0.4003  0.1622  0.0823
19308TIP3    H179415   4.848   6.360  14.993  1.3283  1.2528 -0.6980
19308TIP3    H279416   4.716   6.339  14.922 -0.0793  0.1945  2.1296
19309TIP3   OH279417   6.795   4.009  12.448  0.6617  0.1635  0.7666
19309TIP3    H179418   6.739   3.990  12.523  1.0431 -0.3094  0.9314
19309TIP3    H279419   6.792   3.930  12.395 -0.3233  0.8125 -0.1757
19310TIP3   OH279420   0.230   4.755   3.680  0.3108  0.2911 -0.0923
19310TIP3    H179421   0.310   4.704   3.672  0.3475  0.1454  1.0428
19310TIP3    H279422   0.177   4.729   3.604  1.3867  0.4929 -0.9176
19311TIP3   OH279423   4.767   0.193  16.153  0.2362 -0.2608  0.0810
19311TIP3    H179424   4.697   0.128  16.152  0.9975 -1.0817 -1.4234
19311TIP3    H279425   4.741   0.258  16.088 -0.0738  0.4773  0.9283
19312TIP3   OH279426   4.655   1.350   0.560  0.3458 -0.3288 -0.0888
19312TIP3    H179427   4.655   1.271   0.507  0.4797  0.3161 -1.0637
19312TIP3    H279428   4.634   1.320   0.648 -2.5903 -1.0721 -1.0142
19313TIP3   OH279429   0.926   4.280   1.317 -0.0750  0.4880 -0.2871
19313TIP3    H179430   1.012   4.316   1.340 -0.5736  1.8819 -0.5660
19313TIP3    H279431   0.940   4.185   1.314  1.0445  0.5654  1.4179
19314TIP3   OH279432   3.472   1.570  15.037 -0.7356 -0.2654  0.6759
19314TIP3    H179433   3.417   1.586  15.114 -0.1860  0.8776  0.8488
19314TIP3    H279434   3.558   1.551  15.074 -0.3487  0.7924  0.3405
19315TIP3   OH279435   0.121   1.482  14.844 -0.5219 -0.3604 -0.0907
19315TIP3    H179436   0.146   1.546  14.910 -0.0256 -0.7606  0.1176
19315TIP3    H279437   0.041   1.442  14.879 -1.7244  1.2195 -0.9622
19316TIP3   OH279438   2.738   4.315  16.333 -0.2833 -0.2359 -0.3129
19316TIP3    H179439   2.819   4.359  16.358 -1.1439  0.7011  0.8827
19316TIP3    H279440   2.720   4.346  16.244  0.7728 -0.6337 -0.6751
19317TIP3   OH279441   0.133   1.605  15.605 -0.5990  0.3413 -0.0296
19317TIP3    H179442   0.040   1.587  15.595 -0.6136 -0.3648  1.3044
19317TIP3    H279443   0.170   1.525  15.641  0.6626  0.3564 -1.2662
19318TIP3   OH279444   4.404   0.980   2.467 -0.0766  0.7140  0.2386
19318TIP3    H179445   4.456   0.939   2.398 -2.1285 -0.4492 -0.6622
19318TIP3    H279446   4.455   0.966   2.547  1.9057  1.3209 -0.8793
19319TIP3   OH279447   3.932   6.388  13.090  0.0316  0.2299 -0.1783
19319TIP3    H179448   4.017   6.345  13.100  0.3347  1.1205  1.2706
19319TIP3    H279449   3.929   6.452  13.162 -1.5757  0.6749 -0.6202
19320TIP3   OH279450   5.765   4.480   1.965  0.0422 -0.2110 -0.2753
19320TIP3    H179451   5.802   4.495   1.878  1.0702 -0.0817  0.1801
19320TIP3    H279452   5.718   4.562   1.984  1.6124  0.6067  0.1809
19321TIP3   OH279453   1.252   4.600  16.054 -0.1244 -0.6361  0.5580
19321TIP3    H179454   1.276   4.601  15.961 -0.3517 -1.5184  0.4801
19321TIP3    H279455   1.313   4.538  16.093 -0.9516 -1.3510  0.7304
19322TIP3   OH279456   6.567   5.953   4.388 -0.1032  0.3382  0.4919
19322TIP3    H179457   6.497   5.904   4.430  0.5177 -1.6369 -0.7049
19322TIP3    H279458   6.613   5.888   4.335  2.3591  1.6937  0.9145
19323TIP3   OH279459   2.390   5.290   4.551  0.0130 -0.1718  0.5363
19323TIP3    H179460   2.411   5.267   4.460 -0.8742  0.4355  0.1717
19323TIP3    H279461   2.322   5.357   4.544  0.9848  0.9302  1.6421
19324TIP3   OH279462   2.694   3.027   3.070  0.1170 -0.1200  0.1549
19324TIP3    H179463   2.767   3.052   3.013 -0.4141  0.2016 -0.3919
19324TIP3    H279464   2.625   3.000   3.009 -0.1612 -0.5738  0.6753
19325TIP3   OH279465   0.948   5.889  15.439 -0.4512  0.0465 -0.2067
19325TIP3    H179466   0.930   5.810  15.490  1.0665  0.6992  1.3876
19325TIP3    H279467   0.948   5.960  15.503 -0.4141  1.1703 -1.4176
19326TIP3   OH279468   5.501   0.101   2.857 -0.4176 -0.2867  0.2661
19326TIP3    H179469   5.498   0.123   2.949 -0.6957 -0.5439  0.3224
19326TIP3    H279470   5.592   0.076   2.840  0.4076  2.9382 -0.2929
19327TIP3   OH279471   2.988   2.460   5.717  0.2479  0.0129 -0.5504
19327TIP3    H179472   3.080   2.439   5.734  0.9205  2.2518 -1.2100
19327TIP3    H279473   2.959   2.506   5.795  0.1318  0.6580 -0.9741
19328TIP3   OH279474   6.290   2.641  11.657 -0.0060  0.0608 -0.2795
19328TIP3    H179475   6.243   2.589  11.592  1.9663 -0.1679 -1.5677
19328TIP3    H279476   6.296   2.584  11.734 -1.4717 -0.0453 -0.2379
19329TIP3   OH279477   3.962   0.956   3.304  0.2632 -0.0891 -0.8365
19329TIP3    H179478   3.875   0.922   3.287 -0.0271  1.5971 -2.8396
19329TIP3    H279479   3.969   0.957   3.400 -1.7722 -0.5419 -0.6613
19330TIP3   OH279480   4.574   3.562  13.176  0.1937  0.0558 -0.5001
19330TIP3    H179481   4.575   3.615  13.097 -3.7138  0.5944 -0.2850
19330TIP3    H279482   4.494   3.510  13.169  0.6455 -1.1076  2.3161
19331TIP3   OH279483   6.445   2.526   0.224  0.2450  0.0785 -0.0256
19331TIP3    H179484   6.450   2.538   0.318 -2.5244 -3.2732  0.6783
19331TIP3    H279485   6.511   2.459   0.204  0.0698 -0.0207 -0.2851
19332TIP3   OH279486   6.097   2.908   3.336 -0.0668  0.1829  0.6008
19332TIP3    H179487   6.165   2.851   3.299  0.8065  1.0642  0.8523
19332TIP3    H279488   6.144   2.971   3.389 -0.8454  2.5372 -1.4308
19333TIP3   OH279489   4.741   5.773   1.162  0.1244  0.2793 -0.4072
19333TIP3    H179490   4.705   5.685   1.165  0.4882  0.1583  1.8947
19333TIP3    H279491   4.831   5.761   1.131  0.0777 -0.1452 -0.3818
19334TIP3   OH279492   6.325   5.494   0.168 -0.2910  0.2290 -0.7419
19334TIP3    H179493   6.322   5.537   0.253 -0.4612 -0.9697 -0.1254
19334TIP3    H279494   6.322   5.565   0.104 -0.6208  1.1122  0.2538
19335TIP3   OH279495   0.148   3.694   3.338 -0.2583  0.6763 -0.1007
19335TIP3    H179496   0.207   3.665   3.408 -2.7269 -1.6493  1.1345
19335TIP3    H279497   0.200   3.754   3.285  2.7340 -0.2046  1.7481
19336TIP3   OH279498   0.738   0.956  15.946 -0.9466  0.4103 -0.7292
19336TIP3    H179499   0.681   0.911  15.883 -1.6082 -0.4035  0.4490
19336TIP3    H279500   0.698   1.042  15.957 -2.3735 -0.4262  0.6645
19337TIP3   OH279501   1.499   4.427   0.915 -0.5046 -0.4643 -0.0575
19337TIP3    H179502   1.514   4.517   0.888 -1.3428 -0.1204  0.5822
19337TIP3    H279503   1.439   4.392   0.849 -0.2477 -0.5212 -0.2583
19338TIP3   OH279504   0.102   0.360  14.128  0.1187 -0.4789 -0.3092
19338TIP3    H179505   0.065   0.448  14.127  0.3491 -0.3868 -0.9874
19338TIP3    H279506   0.110   0.336  14.035 -0.9712 -1.6421 -0.1189
19339TIP3   OH279507   3.263   6.380  15.926 -0.1623  0.5766 -0.5412
19339TIP3    H179508   3.320   6.356  15.852 -0.6328 -0.4850 -0.5729
19339TIP3    H279509   3.212   6.454  15.894 -0.6478 -0.1274 -1.4323
19340TIP3   OH279510   1.398   3.499   2.742 -0.3239  0.3766  0.0195
19340TIP3    H179511   1.361   3.417   2.709  1.8045 -0.6159 -0.0124
19340TIP3    H279512   1.380   3.497   2.836 -2.7048  1.2180 -0.3817
19341TIP3   OH279513   4.904   6.804  15.484  0.5031  0.2876  0.1145
19341TIP3    H179514   4.826   6.803  15.538  0.7775 -1.2361  0.5005
19341TIP3    H279515   4.962   6.740  15.524  2.1894  1.7881  0.1621
19342TIP3   OH279516   1.070   3.631   1.684  0.0500 -0.3094  0.0175
19342TIP3    H179517   1.011   3.557   1.700  0.2714 -0.8299 -1.5835
19342TIP3    H279518   1.072   3.677   1.768 -1.6624 -0.9822  0.4551
19343TIP3   OH279519   2.094   6.712  16.667  0.4730 -0.1846  0.2512
19343TIP3    H179520   2.018   6.654  16.660  0.5360 -0.5356  2.1639
19343TIP3    H279521   2.165   6.663  16.624  0.3374 -1.2030  1.1588
19344TIP3   OH279522   2.608   4.002  11.531  0.2586  0.5166 -0.3334
19344TIP3    H179523   2.557   3.929  11.567 -0.3519  0.9149 -0.3834
19344TIP3    H279524   2.664   3.961  11.465 -0.8778  0.2404 -1.1568
19345TIP3   OH279525   3.001   4.988  13.454 -0.5064 -0.1400  0.2132
19345TIP3    H179526   3.037   5.065  13.497  0.2187 -0.5515  0.3563
19345TIP3    H279527   3.059   4.916  13.481 -1.1764 -0.7290  0.0856
19346TIP3   OH279528   0.170   1.745   6.013 -0.1556 -0.0825 -0.2641
19346TIP3    H179529   0.157   1.839   6.003 -1.4334 -0.1087  1.0140
19346TIP3    H279530   0.189   1.714   5.924  1.9653  1.6053 -0.4610
19347TIP3   OH279531   1.032   1.049   0.968 -0.1958  0.2444 -0.1791
19347TIP3    H179532   0.988   1.134   0.972 -0.1848  0.2397  0.0442
19347TIP3    H279533   1.060   1.041   0.877 -0.1958  0.4796 -0.2005
19348TIP3   OH279534   1.084   2.591   5.011 -0.3506 -0.1236 -0.0630
19348TIP3    H179535   1.079   2.500   5.041 -0.7867 -0.2867 -0.6312
19348TIP3    H279536   1.162   2.595   4.956 -1.4058 -0.6236 -1.6274
19349TIP3   OH279537   0.209   1.129  11.860 -0.2164 -0.0337 -0.4636
19349TIP3    H179538   0.236   1.079  11.938 -0.6344  0.4062 -0.0274
19349TIP3    H279539   0.267   1.099  11.791  0.5294 -0.0296  0.1532
19350TIP3   OH279540   2.354   4.424   2.010 -0.0464 -0.5630 -0.0636
19350TIP3    H179541   2.426   4.478   2.042 -0.8721  0.6184 -0.1633
19350TIP3    H279542   2.391   4.336   2.002  1.1151 -0.1545  0.7906
19351TIP3   OH279543   4.099   2.186   2.885  0.0946  0.3416  0.5004
19351TIP3    H179544   4.085   2.096   2.915 -1.6191 -0.3250 -2.0715
19351TIP3    H279545   4.192   2.191   2.864  0.6624 -0.1173  2.7488
19352TIP3   OH279546   4.347   5.668  15.657  0.3637 -0.4377 -0.0568
19352TIP3    H179547   4.276   5.726  15.630  0.1822 -0.1131  1.0712
19352TIP3    H279548   4.414   5.678  15.589 -0.2089  0.1052 -0.5466
19353TIP3   OH279549   1.076   1.943  13.914  0.1585  0.1878  0.4801
19353TIP3    H179550   1.017   1.882  13.958 -2.6589  1.2065 -1.7242
19353TIP3    H279551   1.145   1.888  13.877 -0.3533 -1.2321  1.5838
19354TIP3   OH279552   2.656   5.917  11.273 -0.2700 -0.2691 -0.6078
19354TIP3    H179553   2.735   5.951  11.316 -0.2114  1.2915 -1.9388
19354TIP3    H279554   2.606   5.994  11.249 -0.9354 -1.1792 -2.2086
19355TIP3   OH279555   0.209   1.387  12.946 -0.0320  0.4288  0.5018
19355TIP3    H179556   0.120   1.374  12.978  0.5480 -1.0336  1.5500
19355TIP3    H279557   0.255   1.428  13.019  0.1778  1.2038 -0.0450
19356TIP3   OH279558   2.746   4.414   5.773  0.8698  0.0052 -0.0438
19356TIP3    H179559   2.838   4.417   5.747  0.5923 -0.6709 -1.1156
19356TIP3    H279560   2.713   4.333   5.735 -0.1108  0.1180  0.5486
19357TIP3   OH279561   5.465   3.586  13.607 -0.1279  0.5593 -0.7569
19357TIP3    H179562   5.382   3.544  13.587 -0.7471  2.2913 -1.8946
19357TIP3    H279563   5.442   3.669  13.648  1.0540  0.7669 -0.4774
19358TIP3   OH279564   1.612   2.605  14.806 -0.3293 -0.7468  0.1617
19358TIP3    H179565   1.581   2.561  14.885 -0.9515  1.6986  1.3362
19358TIP3    H279566   1.645   2.690  14.837 -1.4527  0.6426 -2.2795
19359TIP3   OH279567   2.655   0.309   5.756  0.2785  0.0961  0.1029
19359TIP3    H179568   2.576   0.327   5.705  0.0934 -0.0010  0.3522
19359TIP3    H279569   2.721   0.367   5.720  0.2953 -0.3728 -0.6211
19360TIP3   OH279570   4.795   3.291  10.353  0.8914  0.1645  0.2538
19360TIP3    H179571   4.872   3.288  10.297  0.1379 -0.3036 -0.7761
19360TIP3    H279572   4.820   3.241  10.431  0.6719 -2.5009 -1.3294
19361TIP3   OH279573   4.594   4.968  17.192  0.4471  0.2888  0.4785
19361TIP3    H179574   4.536   4.976  17.116 -0.0436 -0.1168  0.8023
19361TIP3    H279575   4.561   5.033  17.255 -0.8018 -1.1765  1.3812
19362TIP3   OH279576   5.985   2.490   4.209  0.6200 -0.1006  0.2767
19362TIP3    H179577   5.938   2.459   4.132 -1.0214 -0.2914  1.3293
19362TIP3    H279578   6.014   2.410   4.253  0.6329 -0.0215  0.4139
19363TIP3   OH279579   4.626   3.405   5.981  0.0758 -0.0807  0.2681
19363TIP3    H179580   4.565   3.477   5.997  1.2957  1.3030 -1.2015
19363TIP3    H279581   4.647   3.372   6.069 -2.2409 -0.1239  0.8188
19364TIP3   OH279582   3.183   5.712   4.294 -0.5651 -0.2741 -0.0895
19364TIP3    H179583   3.214   5.656   4.365  0.3736 -1.4027 -1.3589
19364TIP3    H279584   3.170   5.798   4.334 -0.9017 -1.1229  1.6285
19365TIP3   OH279585   6.330   2.763  13.657 -0.1633 -0.2510 -0.3906
19365TIP3    H179586   6.341   2.736  13.565  1.5384  0.6974 -0.4792
19365TIP3    H279587   6.343   2.857  13.656  1.2362 -0.4158  1.0367
19366TIP3   OH279588   3.227   2.830  11.224  0.8440  0.2620  0.2652
19366TIP3    H179589   3.286   2.770  11.270  0.2817  0.0955  0.7778
19366TIP3    H279590   3.260   2.831  11.134 -0.3545 -2.4569 -0.2640
19367TIP3   OH279591   2.497   0.694  15.089  1.0490 -0.2503 -0.0750
19367TIP3    H179592   2.440   0.714  15.164  0.0790 -0.0096 -0.8675
19367TIP3    H279593   2.584   0.724  15.117  0.6088  0.2553  0.7857
19368TIP3   OH279594   5.380   0.068   4.760 -0.2812  0.0741  0.4036
19368TIP3    H179595   5.394   0.113   4.843  1.3759  0.2224  0.0569
19368TIP3    H279596   5.288   0.040   4.763 -0.5464  1.0516  1.7939
19369TIP3   OH279597   5.315   4.633   0.149  0.0872  0.5586 -0.5990
19369TIP3    H179598   5.355   4.693   0.212  0.2648  1.8818 -1.9419
19369TIP3    H279599   5.238   4.679   0.117 -0.4898 -0.4644 -0.6991
19370TIP3   OH279600   6.686   3.821  16.559 -1.0551  0.6064  1.0424
19370TIP3    H179601   6.704   3.879  16.485 -1.6318  0.5200  0.8292
19370TIP3    H279602   6.728   3.738  16.535  0.4233  1.1529  1.6904
19371TIP3   OH279603   0.201   3.887  13.498  0.1168  0.4797 -0.1476
19371TIP3    H179604   0.116   3.888  13.455 -1.1430 -0.5137  2.1943
19371TIP3    H279605   0.245   3.810  13.463 -0.4250  0.3201 -0.4759
19372TIP3   OH279606   3.869   6.645   2.015 -0.5761 -0.3077  0.6294
19372TIP3    H179607   3.847   6.563   1.971 -0.9194  0.3880 -0.5350
19372TIP3    H279608   3.789   6.697   2.009  0.0721  0.6567  0.0590
19373TIP3   OH279609   3.232   2.951  17.089  0.0459  0.1888 -0.4161
19373TIP3    H179610   3.202   2.868  17.125 -2.3776  0.6664 -1.2270
19373TIP3    H279611   3.179   3.017  17.134  2.3497  1.3714  0.6459
19374TIP3   OH279612   2.379   6.360   0.129  0.1628 -0.0554  0.5879
19374TIP3    H179613   2.306   6.357   0.192  0.3110  0.8540  0.7967
19374TIP3    H279614   2.437   6.290   0.158  0.2248  0.3511  1.4630
19375TIP3   OH279615   5.053   1.614  10.782  0.8785 -0.2471 -0.5806
19375TIP3    H179616   4.985   1.575  10.727 -0.4089  0.0038  0.8106
19375TIP3    H279617   5.107   1.539  10.809 -0.0499 -0.7335 -0.0372
19376TIP3   OH279618   0.279   6.696   5.933  0.4573 -0.4403  0.2549
19376TIP3    H179619   0.309   6.784   5.910  2.6260 -1.3978 -0.7290
19376TIP3    H279620   0.315   6.681   6.021 -0.6940  0.0129  0.8014
19377TIP3   OH279621   6.097   1.579   0.604 -0.0272  0.1726 -1.1335
19377TIP3    H179622   6.006   1.567   0.575 -0.3708  1.1197 -0.4785
19377TIP3    H279623   6.114   1.672   0.590  0.9886 -0.0838 -1.6370
19378TIP3   OH279624   6.134   3.310   0.352 -0.3129 -0.0276  0.1257
19378TIP3    H179625   6.150   3.403   0.339  0.2647  0.1617  1.9281
19378TIP3    H279626   6.221   3.270   0.351 -0.4462 -0.3469  0.6320
19379TIP3   OH279627   3.594   2.225  13.342 -0.0309  0.6916 -0.3968
19379TIP3    H179628   3.553   2.206  13.258 -0.6433 -0.7005  0.2078
19379TIP3    H279629   3.608   2.320  13.341 -0.9650  0.8198 -1.6397
19380TIP3   OH279630   6.049   6.206   4.725  0.7730 -0.2573 -0.4938
19380TIP3    H179631   6.031   6.277   4.788  0.5373 -0.5881 -0.1863
19380TIP3    H279632   6.127   6.236   4.678  0.5548  0.3004 -0.5061
19381TIP3   OH279633   1.441   3.473   4.702  0.0183  0.9560 -0.1846
19381TIP3    H179634   1.389   3.553   4.709  0.7321  1.2936  1.5129
19381TIP3    H279635   1.484   3.465   4.787 -0.1388 -1.3166 -0.3126
19382TIP3   OH279636   6.308   2.196  15.051  0.1135 -0.1481  0.4994
19382TIP3    H179637   6.239   2.261  15.061 -1.0284 -1.3121  0.2330
19382TIP3    H279638   6.362   2.207  15.129 -1.5092 -0.5726  1.7057
19383TIP3   OH279639   4.827   3.421  15.475  0.3960 -0.3856 -0.2118
19383TIP3    H179640   4.846   3.335  15.439  0.5539 -0.1329 -0.7505
19383TIP3    H279641   4.818   3.477  15.397  2.0668  0.4533  0.1887
19384TIP3   OH279642   5.519   1.676   6.949 -0.7362  0.6198  0.3816
19384TIP3    H179643   5.458   1.638   6.885 -0.4510  1.0253 -0.1313
19384TIP3    H279644   5.555   1.753   6.905  1.4942 -0.6187 -0.0178
19385TIP3   OH279645   0.997   5.016   1.549 -0.0317  0.6412  0.4205
19385TIP3    H179646   0.951   4.965   1.483  1.4112  0.3706 -0.3840
19385TIP3    H279647   0.951   5.101   1.550 -0.1636  0.5847 -0.7873
19386TIP3   OH279648   0.451   3.925  16.612  0.0341  0.1793  0.6666
19386TIP3    H179649   0.508   4.000  16.628  0.1072  0.0292  1.1363
19386TIP3    H279650   0.463   3.904  16.520 -1.6927  2.1425 -0.0338
19387TIP3   OH279651   3.712   2.692   5.909  0.8070  0.4679 -0.4292
19387TIP3    H179652   3.766   2.614   5.922  1.2756  0.8761  0.1004
19387TIP3    H279653   3.655   2.670   5.836 -0.5313 -1.1405  1.0676
19388TIP3   OH279654   6.360   5.802   3.460 -0.0680  0.6033 -0.4659
19388TIP3    H179655   6.422   5.812   3.387  0.8002 -0.6981  0.0832
19388TIP3    H279656   6.303   5.730   3.433 -1.3796  1.8102 -0.9755
19389TIP3   OH279657   5.222   4.550   3.112 -0.9661 -0.4135 -0.2428
19389TIP3    H179658   5.223   4.506   3.197 -0.0349  0.0205 -0.0271
19389TIP3    H279659   5.265   4.634   3.127 -1.6579  0.0833 -0.9276
19390TIP3   OH279660   4.445   2.502   6.456  0.2120  0.4695  0.4206
19390TIP3    H179661   4.370   2.447   6.435  0.2523  1.0402 -1.3363
19390TIP3    H279662   4.439   2.517   6.551 -0.9911 -0.7719  0.5459
19391TIP3   OH279663   6.322   6.675   0.619  0.1137 -0.2485 -0.3825
19391TIP3    H179664   6.339   6.640   0.532  1.5874 -1.2832  0.3189
19391TIP3    H279665   6.269   6.608   0.662  2.2759 -1.2959  0.6876
19392TIP3   OH279666   5.213   3.278  13.900  0.0785  0.8308  0.1792
19392TIP3    H179667   5.232   3.191  13.936  0.2499  0.7431 -0.1278
19392TIP3    H279668   5.245   3.339  13.967  0.9786  0.6785 -0.1060
19393TIP3   OH279669   2.980   2.983   5.541 -0.0460  0.4194  0.0559
19393TIP3    H179670   2.943   2.927   5.473  0.5965  0.7402 -0.5556
19393TIP3    H279671   2.919   2.974   5.615 -1.9145  1.6735 -1.2582
19394TIP3   OH279672   0.621   0.466  12.257 -0.6530 -0.6804 -0.2553
19394TIP3    H179673   0.550   0.525  12.232 -0.2750 -0.7551 -1.5575
19394TIP3    H279674   0.685   0.475  12.187  0.0205 -1.6176  0.2292
19395TIP3   OH279675   5.540   5.008  12.599  0.0841  0.4517  0.3081
19395TIP3    H179676   5.609   5.064  12.634  0.6658 -0.0795  0.0065
19395TIP3    H279677   5.584   4.954  12.533 -0.6642  0.2806 -0.0543
19396TIP3   OH279678   1.048   0.425  11.319 -0.4088  0.5832 -0.5823
19396TIP3    H179679   1.095   0.392  11.242 -1.1896  1.9673 -1.6947
19396TIP3    H279680   1.041   0.350  11.377  0.9426 -0.2819 -1.4980
19397TIP3   OH279681   0.150   4.181  16.121 -0.6753 -0.1416  0.4630
19397TIP3    H179682   0.073   4.190  16.178 -0.8014  0.7866  0.1473
19397TIP3    H279683   0.175   4.271  16.100  0.0479 -0.4610 -0.0476
19398TIP3   OH279684   5.569   1.526   2.048 -0.4972  0.1394 -0.0474
19398TIP3    H179685   5.559   1.573   1.965 -1.9392  0.7059  0.4300
19398TIP3    H279686   5.513   1.574   2.110 -1.4052 -1.7479  0.6449
19399TIP3   OH279687   1.646   5.431   3.616 -0.2375  0.4983  0.8359
19399TIP3    H179688   1.673   5.346   3.650  1.5831  1.1965  1.2211
19399TIP3    H279689   1.551   5.433   3.628 -0.5154 -2.0415 -0.5098
19400TIP3   OH279690   4.884   1.548   3.841  0.5317  0.4925 -0.8114
19400TIP3    H179691   4.815   1.613   3.827  0.2488  0.6874  1.4071
19400TIP3    H279692   4.954   1.596   3.885  2.1552  0.3075 -3.0614
19401TIP3   OH279693   6.701   1.024   5.392 -0.4037  0.4206 -0.1498
19401TIP3    H179694   6.640   1.097   5.398 -1.8117 -0.6744 -1.1571
19401TIP3    H279695   6.710   0.993   5.483 -1.0489  0.7999  0.0422
19402TIP3   OH279696   2.070   4.679  15.461  0.0772  0.4933  0.4266
19402TIP3    H179697   2.124   4.602  15.442 -0.0649  0.8060 -1.3470
19402TIP3    H279698   2.130   4.741  15.503  0.9850  0.6226 -1.0248
19403TIP3   OH279699   1.523   6.245  13.234 -0.1395  0.3807  0.1622
19403TIP3    H179700   1.438   6.218  13.199 -1.1401  1.2876  1.8457
19403TIP3    H279701   1.505   6.326  13.281  1.6255  0.4451  0.7508
19404TIP3   OH279702   4.125   2.413   4.015  0.0112  0.7837 -0.0548
19404TIP3    H179703   4.187   2.464   4.068  2.2109 -0.0056 -1.7705
19404TIP3    H279704   4.173   2.334   3.993 -1.8013 -0.0495 -1.1033
19405TIP3   OH279705   6.027   6.537   2.662  0.0234 -0.0912 -0.0103
19405TIP3    H179706   6.051   6.448   2.638 -1.8231  0.3785 -3.9194
19405TIP3    H279707   5.931   6.537   2.664 -0.0456  2.0464 -1.1837
19406TIP3   OH279708   2.507   1.131  11.421  0.0113  0.5506 -0.2250
19406TIP3    H179709   2.495   1.214  11.468 -0.7704 -0.4647  1.4577
19406TIP3    H279710   2.561   1.078  11.480 -0.5545 -0.5786 -0.7069
19407TIP3   OH279711   5.643   3.081   2.190  0.0861 -0.0565 -0.6347
19407TIP3    H179712   5.569   3.105   2.245  1.6778 -0.2440  1.6470
19407TIP3    H279713   5.610   3.011   2.134 -1.8629  0.8864 -0.7143
19408TIP3   OH279714   2.661   6.190  15.141  0.0269  0.9135 -0.1294
19408TIP3    H179715   2.648   6.283  15.122  0.1916  0.8070 -0.7893
19408TIP3    H279716   2.608   6.145  15.075 -1.3892  0.5483  1.2324
19409TIP3   OH279717   6.343   4.153   1.701  0.0914  0.0327 -0.2217
19409TIP3    H179718   6.438   4.160   1.707  0.0326 -0.2238  1.0781
19409TIP3    H279719   6.313   4.243   1.694  0.3784  0.1603  0.1769
19410TIP3   OH279720   4.946   3.840   0.466 -0.4216 -0.0672 -0.0705
19410TIP3    H179721   4.946   3.788   0.547  1.6012  0.7585  0.4907
19410TIP3    H279722   4.934   3.775   0.397  0.9337 -1.1831  0.6991
19411TIP3   OH279723   5.675   0.302   6.990  0.1067  0.1058  0.4074
19411TIP3    H179724   5.747   0.241   7.007  0.5207  0.4255 -0.1974
19411TIP3    H279725   5.634   0.314   7.076 -0.5610 -1.7414  0.3717
19412TIP3   OH279726   2.735   4.509   3.209 -0.1488  0.2815 -0.0644
19412TIP3    H179727   2.758   4.461   3.288  1.2295  0.5979 -0.2610
19412TIP3    H279728   2.639   4.509   3.208 -0.1799  0.0532  1.4565
19413TIP3   OH279729   0.838   0.160   2.056 -0.0725  0.2808  0.0860
19413TIP3    H179730   0.794   0.208   2.127 -1.2498 -0.2028 -0.3112
19413TIP3    H279731   0.792   0.076   2.052  1.8591 -0.8274  0.6597
19414TIP3   OH279732   6.070   4.561  14.755 -0.6835  0.1262  0.0011
19414TIP3    H179733   6.162   4.582  14.770 -0.2733 -1.1560 -0.6284
19414TIP3    H279734   6.049   4.494  14.820 -1.0363  0.0760 -0.1617
19415TIP3   OH279735   0.782   5.106   2.530 -0.3443  0.6660  0.0631
19415TIP3    H179736   0.761   5.126   2.621 -1.8262 -1.0794  0.1223
19415TIP3    H279737   0.850   5.039   2.534 -1.6443 -0.6887 -0.0807
19416TIP3   OH279738   3.767   6.689  14.379  0.1427  0.8839 -0.0603
19416TIP3    H179739   3.776   6.751  14.452  0.8753 -0.3754  0.9396
19416TIP3    H279740   3.832   6.718  14.315 -0.9762  2.4100 -0.5304
19417TIP3   OH279741   1.235   3.326  15.337  0.2495  0.0780 -0.4029
19417TIP3    H179742   1.142   3.344  15.320  0.4364 -0.2841 -1.8860
19417TIP3    H279743   1.276   3.326  15.250  1.6891  0.4969  0.2654
19418TIP3   OH279744   6.471   5.500  12.717  0.3133  1.3533 -0.6259
19418TIP3    H179745   6.477   5.408  12.690  1.6581  1.3409 -0.3146
19418TIP3    H279746   6.377   5.517  12.724  0.0459  0.1619 -1.2406
19419TIP3   OH279747   0.024   1.752  11.797  0.1790  0.1438 -0.3669
19419TIP3    H179748  -0.024   1.680  11.837  1.2806 -0.2710  0.2498
19419TIP3    H279749   0.111   1.716  11.778 -0.0075  0.6261 -2.2515
19420TIP3   OH279750   2.311   0.145  16.732  0.3802  0.4093 -0.3397
19420TIP3    H179751   2.331   0.238  16.741  1.1604  0.2379 -0.2453
19420TIP3    H279752   2.221   0.137  16.763  0.1069  1.2237 -0.9020
19421TIP3   OH279753   4.062   3.584  16.904 -0.3472  1.0313  0.4625
19421TIP3    H179754   4.129   3.648  16.927  0.4812  0.8933 -1.4406
19421TIP3    H279755   3.979   3.626  16.927  0.3522  1.3112  2.5857
19422TIP3   OH279756   0.078   2.599   6.551 -0.3321  0.8924  0.2627
19422TIP3    H179757   0.115   2.612   6.638 -4.8369  1.2717  2.2883
19422TIP3    H279758   0.062   2.505   6.546 -0.5985  0.9447  0.1031
19423TIP3   OH279759   4.990   5.662   6.093  0.6343 -0.4776 -0.4298
19423TIP3    H179760   4.973   5.755   6.078  0.5949 -0.5019 -0.5330
19423TIP3    H279761   4.904   5.621   6.090  0.7431 -0.6446 -1.2464
19424TIP3   OH279762   5.848   2.958   3.197 -0.3572 -1.3009 -0.0214
19424TIP3    H179763   5.767   2.937   3.244  0.9951 -0.4687  2.8000
19424TIP3    H279764   5.916   2.956   3.264  1.7405 -0.4787 -2.0445
19425TIP3   OH279765   1.490   0.701  13.944  0.5034 -0.5077  0.1732
19425TIP3    H179766   1.396   0.692  13.928  0.4965  0.5474 -0.3921
19425TIP3    H279767   1.528   0.714  13.858  0.9720  0.7699  0.5642
19426TIP3   OH279768   4.183   6.739  14.726 -0.2728 -0.1772 -0.6305
19426TIP3    H179769   4.238   6.680  14.674 -0.7979  0.8265 -2.3868
19426TIP3    H279770   4.217   6.827  14.705 -1.3856  0.3269 -0.3435
19427TIP3   OH279771   3.924   1.879   2.760  0.4933  0.0229  0.1452
19427TIP3    H179772   3.865   1.908   2.690  0.0410 -0.2475  0.4145
19427TIP3    H279773   3.892   1.923   2.839  3.4782  3.6213 -0.5135
19428TIP3   OH279774   6.176   3.434  14.649  0.1243 -0.4163  0.5708
19428TIP3    H179775   6.160   3.452  14.556  2.3871  1.8099  0.5649
19428TIP3    H279776   6.269   3.450  14.662 -0.2562 -0.0735  3.3609
19429TIP3   OH279777   2.182   3.077  14.920 -0.4257  0.3500  0.4428
19429TIP3    H179778   2.206   3.168  14.939 -0.9076  0.8374 -1.2439
19429TIP3    H279779   2.086   3.078  14.914 -0.3348  0.0847 -1.2908
19430TIP3   OH279780   4.393   1.836   1.621  0.2180 -0.0434  0.3483
19430TIP3    H179781   4.425   1.786   1.696 -0.4341 -0.4260  0.3791
19430TIP3    H279782   4.302   1.856   1.642 -0.8029 -2.4524 -1.4931
19431TIP3   OH279783   6.455   0.572  16.045 -0.2424 -0.5247  0.4912
19431TIP3    H179784   6.381   0.526  16.085 -1.4605  0.5517 -0.5091
19431TIP3    H279785   6.495   0.620  16.118 -1.1356 -0.3038  0.8421
19432TIP3   OH279786   3.276   3.060  11.574  0.3353  0.5074  0.6326
19432TIP3    H179787   3.232   3.050  11.490  1.0028 -0.5353  0.3924
19432TIP3    H279788   3.268   3.153  11.595 -1.4403  0.4334  0.3067
19433TIP3   OH279789   1.234   6.703   1.420  0.1146  0.4773 -0.7539
19433TIP3    H179790   1.169   6.773   1.427 -1.3561 -0.8745 -0.8325
19433TIP3    H279791   1.292   6.732   1.349  0.1367  2.1084 -0.0821
19434TIP3   OH279792   2.253   3.792  13.877  0.2165  0.2124  0.0483
19434TIP3    H179793   2.246   3.781  13.782 -2.1410 -0.9426  0.3063
19434TIP3    H279794   2.334   3.746  13.900 -0.5129 -1.7602 -1.1170
19435TIP3   OH279795   1.470   4.596   2.012  0.5831 -0.7387  0.7115
19435TIP3    H179796   1.459   4.542   1.934 -1.3437  1.2310 -0.4175
19435TIP3    H279797   1.406   4.561   2.075 -0.9140  0.4023 -0.1439
19436TIP3   OH279798   0.476   6.431   1.422  0.4426 -0.3734 -0.1498
19436TIP3    H179799   0.390   6.412   1.458  1.4894  0.2088  2.8041
19436TIP3    H279800   0.504   6.348   1.382 -0.4831 -1.2601  0.9919
19437TIP3   OH279801   3.067   3.286   3.157  0.1422  0.0673  0.2380
19437TIP3    H179802   3.103   3.203   3.190 -0.0530  0.1488  0.6687
19437TIP3    H279803   3.000   3.309   3.222 -1.5320 -0.6970 -1.1872
19438TIP3   OH279804   5.466   6.653  14.915 -0.0309  0.1240 -0.3437
19438TIP3    H179805   5.448   6.719  14.848  2.3384  1.8121  0.5957
19438TIP3    H279806   5.380   6.623  14.944 -1.1292  2.0970 -1.4585
19439TIP3   OH279807   0.013   1.636   1.669 -0.1429 -0.2990 -0.1692
19439TIP3    H179808  -0.054   1.695   1.702 -0.4489 -0.4635 -0.4978
19439TIP3    H279809  -0.001   1.554   1.716  0.3437 -0.0839  0.3570
19440TIP3   OH279810   2.598   5.627  14.653 -0.0366  0.1473  0.2741
19440TIP3    H179811   2.639   5.590  14.731 -1.6415 -0.4127  0.8682
19440TIP3    H279812   2.557   5.552  14.610 -1.1218  0.8273  0.1169
19441TIP3   OH279813   6.205   2.779   1.053 -0.1804 -0.1821 -0.1877
19441TIP3    H179814   6.219   2.746   1.142  1.1013  0.2983 -0.1936
19441TIP3    H279815   6.279   2.838   1.038 -2.5250  2.8745 -0.1276
19442TIP3   OH279816   4.702   5.283   5.825  0.6419 -0.3862 -0.5928
19442TIP3    H179817   4.645   5.270   5.900  2.4120 -0.4094  0.7771
19442TIP3    H279818   4.729   5.195   5.799  0.1399 -0.3706 -1.1900
19443TIP3   OH279819   6.324   6.412   0.295  0.2420 -0.1809  0.0369
19443TIP3    H179820   6.390   6.461   0.343  0.3028  0.5003 -0.7286
19443TIP3    H279821   6.372   6.368   0.225  0.3649 -2.2945  1.4253
19444TIP3   OH279822   2.036   1.023   0.246 -0.3352 -0.2105  0.2316
19444TIP3    H179823   1.981   1.001   0.172  0.6134  0.2543 -0.6278
19444TIP3    H279824   2.067   1.112   0.228  1.3513 -0.7685  0.2741
19445TIP3   OH279825   3.231   4.159   6.344  0.2533  0.0034 -0.0470
19445TIP3    H179826   3.142   4.153   6.378 -0.3012  2.2246 -1.0464
19445TIP3    H279827   3.286   4.126   6.416 -1.3421 -1.3198  0.5963
19446TIP3   OH279828   4.305   6.294   1.255 -0.4246  0.7926  0.4499
19446TIP3    H179829   4.305   6.315   1.349  0.5837 -0.8269  0.8211
19446TIP3    H279830   4.398   6.287   1.232 -0.7096 -1.4883 -0.0671
19447TIP3   OH279831   1.294   5.735   4.029 -0.5800  0.4542  0.5555
19447TIP3    H179832   1.355   5.661   4.036  1.6632  2.0332 -1.3818
19447TIP3    H279833   1.333   5.803   4.084 -0.2821  1.6528 -1.1106
19448TIP3   OH279834   6.455   3.989  14.113 -0.0099  0.1552 -0.3622
19448TIP3    H179835   6.433   3.906  14.070  0.3813 -0.5823  0.8560
19448TIP3    H279836   6.513   4.033  14.051  0.7544 -1.0177 -0.4927
19449TIP3   OH279837   5.636   2.604   5.008  0.3223  0.0421 -0.2990
19449TIP3    H179838   5.566   2.540   5.015  1.5317 -1.4720 -1.8366
19449TIP3    H279839   5.600   2.683   5.048 -1.1178 -1.6242  1.7897
19450TIP3   OH279840   0.572   5.200   5.508 -0.5320  0.7514  0.4372
19450TIP3    H179841   0.544   5.109   5.519  1.2455 -0.1500 -2.0596
19450TIP3    H279842   0.642   5.211   5.573 -0.2805  0.1124  0.2835
19451TIP3   OH279843   1.580   1.136  15.975 -0.4706  0.4718  0.3574
19451TIP3    H179844   1.564   1.044  15.998 -2.0091  0.5723 -0.2157
19451TIP3    H279845   1.600   1.134  15.882 -0.3892  0.7130  0.3709
19452TIP3   OH279846   4.048   3.575   3.827  0.0580 -0.0935  0.1707
19452TIP3    H179847   4.067   3.545   3.916 -0.5506 -1.4065 -0.1317
19452TIP3    H279848   3.966   3.625   3.836  1.0639  1.4940  0.6724
19453TIP3   OH279849   4.195   0.638   2.314  0.7448  0.2320 -0.3142
19453TIP3    H179850   4.183   0.549   2.281 -0.4816 -1.0326  3.3255
19453TIP3    H279851   4.280   0.635   2.359  0.7721  0.9698 -0.3165
19454TIP3   OH279852   2.456   2.266  14.922 -0.4208 -0.1256  0.2754
19454TIP3    H179853   2.478   2.173  14.914 -0.0595 -0.0111 -0.0467
19454TIP3    H279854   2.533   2.306  14.962 -0.6589  0.0047  0.6156
19455TIP3   OH279855   1.946   3.579  11.304 -0.1227 -0.5250  0.0391
19455TIP3    H179856   1.856   3.569  11.335 -0.1207  1.7620  0.9265
19455TIP3    H279857   1.952   3.671  11.277  2.0708 -0.5023  0.4524
19456TIP3   OH279858   1.491   5.833  14.389 -0.6159 -0.1946 -0.1428
19456TIP3    H179859   1.587   5.832  14.393 -0.6436 -0.4277  0.5281
19456TIP3    H279860   1.464   5.868  14.473 -1.1366 -0.8550 -0.0319
19457TIP3   OH279861   1.138   0.477   0.013 -0.0615 -0.6476 -0.2460
19457TIP3    H179862   1.186   0.445   0.089 -1.1268 -2.0324 -0.1260
19457TIP3    H279863   1.204   0.489  -0.055  0.5582 -1.7631  0.1522
19458TIP3   OH279864   1.752   1.524   4.504  0.0654  0.0141  0.1538
19458TIP3    H179865   1.784   1.493   4.589  0.6830  0.5444  0.1179
19458TIP3    H279866   1.821   1.582   4.472  0.2044 -0.8306 -1.0910
19459TIP3   OH279867   4.187   3.499   4.546 -0.0145 -0.5302 -0.3279
19459TIP3    H179868   4.205   3.451   4.627 -1.6766 -0.9252 -0.1728
19459TIP3    H279869   4.225   3.586   4.562 -0.8116 -0.4210  1.0980
19460TIP3   OH279870   6.395   3.827  11.407 -0.5772  0.3480 -0.0598
19460TIP3    H179871   6.349   3.755  11.365 -1.2793  0.1701  0.9981
19460TIP3    H279872   6.326   3.891  11.427  0.0073  1.2263 -0.8064
19461TIP3   OH279873   1.669   6.346  13.495  0.4274 -0.8868  0.5172
19461TIP3    H179874   1.735   6.381  13.436 -0.9541  1.0447  0.0354
19461TIP3    H279875   1.653   6.257  13.464  2.4363 -1.2043  0.3565
19462TIP3   OH279876   3.586   4.557   0.930  0.3539 -0.5934  0.4567
19462TIP3    H179877   3.657   4.598   0.882 -0.4733  2.1561  1.4993
19462TIP3    H279878   3.622   4.474   0.961  2.3461 -0.2682 -0.9293
19463TIP3   OH279879   6.658   4.204   5.880  0.1965 -0.3083  0.3928
19463TIP3    H179880   6.678   4.120   5.920 -0.6798  0.7874  3.2909
19463TIP3    H279881   6.744   4.243   5.862  0.6009 -1.3461  0.0210
19464TIP3   OH279882   2.391   1.045   3.264  1.4626  0.2397 -0.4133
19464TIP3    H179883   2.334   1.036   3.340  1.2228 -1.7608 -0.7976
19464TIP3    H279884   2.476   1.012   3.293  1.0829 -1.6233 -1.3010
19465TIP3   OH279885   3.154   0.246  12.138  0.0680 -0.3264 -0.2233
19465TIP3    H179886   3.084   0.259  12.073 -0.3544  0.4025  0.3576
19465TIP3    H279887   3.161   0.331  12.182  1.5473 -0.3131 -0.4907
19466TIP3   OH279888   6.301   6.561  11.024 -0.2260 -0.7472  0.0618
19466TIP3    H179889   6.326   6.604  10.943  0.4186  2.0938  1.6728
19466TIP3    H279890   6.212   6.593  11.041  0.9725  1.6362  2.2685
19467TIP3   OH279891   3.729   5.469   2.668 -0.4548  0.6147 -0.1414
19467TIP3    H179892   3.811   5.445   2.626 -0.1259 -0.2791  0.9638
19467TIP3    H279893   3.671   5.395   2.652  0.2059 -0.5039  2.3370
19468TIP3   OH279894   5.621   1.662  12.674 -0.1575 -0.5846 -0.0990
19468TIP3    H179895   5.573   1.701  12.602  0.5854 -0.7126 -0.6677
19468TIP3    H279896   5.553   1.637  12.738 -0.7762 -0.1129 -0.5715
19469TIP3   OH279897   0.176   1.062  15.193  0.2197 -0.2876 -0.6237
19469TIP3    H179898   0.230   1.042  15.269 -0.0666  0.9245 -0.0941
19469TIP3    H279899   0.139   0.978  15.167  1.3634 -0.9175 -0.2251
19470TIP3   OH279900   4.966   0.310  11.508  0.1929  0.2391 -0.1740
19470TIP3    H179901   4.963   0.385  11.568  3.8833  0.6009 -0.3093
19470TIP3    H279902   4.962   0.349  11.421 -1.5467 -0.0130 -0.2126
19471TIP3   OH279903   6.418   0.870   4.377 -0.0204  0.4300  0.2795
19471TIP3    H179904   6.415   0.831   4.290  1.2785 -1.8426  1.1987
19471TIP3    H279905   6.358   0.818   4.429  0.0022  1.1057  0.9880
19472TIP3   OH279906   0.552   4.910   3.477  0.1083  0.2628 -0.0567
19472TIP3    H179907   0.583   4.832   3.430 -1.0034 -1.5820  2.1391
19472TIP3    H279908   0.567   4.888   3.569 -1.2857  2.2056  0.6472
19473TIP3   OH279909   2.774   4.967   4.810  0.1858 -0.0880 -0.4975
19473TIP3    H179910   2.695   4.980   4.758  0.2523 -0.0319 -0.5851
19473TIP3    H279911   2.828   4.908   4.758  0.5833  0.5747 -0.8543
19474TIP3   OH279912   0.541   5.311  14.812 -0.4084 -0.3519  0.1407
19474TIP3    H179913   0.453   5.319  14.774  0.3887  1.6130 -1.3891
19474TIP3    H279914   0.595   5.278  14.740  0.8442  2.0456 -0.0702
19475TIP3   OH279915   4.757   1.495  14.007  0.1710  0.0439 -0.4574
19475TIP3    H179916   4.667   1.464  14.010  0.4549 -0.9721 -1.9826
19475TIP3    H279917   4.797   1.463  14.088 -0.5598 -0.3954 -0.2711
19476TIP3   OH279918   1.599   0.114   1.543  0.4631  0.3769 -0.3513
19476TIP3    H179919   1.664   0.152   1.603  2.7997 -1.6156 -1.5963
19476TIP3    H279920   1.586   0.025   1.575 -1.9335  0.8213  0.0477
19477TIP3   OH279921   3.516   0.619  16.537  0.3526  0.0032 -0.2337
19477TIP3    H179922   3.571   0.678  16.485 -0.6573 -0.9404 -2.4598
19477TIP3    H279923   3.491   0.671  16.614  2.2397  1.2914 -0.4477
19478TIP3   OH279924   3.219   5.102   0.224  0.4301 -0.6549 -0.3589
19478TIP3    H179925   3.194   5.148   0.144 -0.4489  0.4797  0.5481
19478TIP3    H279926   3.288   5.156   0.262 -0.0581 -0.5100  0.3155
19479TIP3   OH279927   0.279   2.510  12.681 -0.1348 -0.4477 -0.0712
19479TIP3    H179928   0.359   2.482  12.725  0.2117  2.3268  1.2226
19479TIP3    H279929   0.305   2.522  12.590  0.4150 -1.4634 -0.0535
19480TIP3   OH279930   2.271   5.832   4.171 -0.0004  0.2961 -0.7243
19480TIP3    H179931   2.261   5.790   4.256 -0.2227  0.6272 -0.5872
19480TIP3    H279932   2.351   5.885   4.181 -0.7652  1.3945 -0.2807
19481TIP3   OH279933   4.784   4.087  16.998 -0.1674  0.2907  0.3478
19481TIP3    H179934   4.790   4.062  17.090  3.5417  0.2423  0.1519
19481TIP3    H279935   4.758   4.179  17.000  3.5497  1.3862  1.6169
19482TIP3   OH279936   2.923   3.814   3.193 -0.0518  0.2958 -0.5683
19482TIP3    H179937   2.890   3.796   3.105  0.1147 -1.0979 -0.3523
19482TIP3    H279938   2.916   3.909   3.202 -3.9659  0.1262 -0.5589
19483TIP3   OH279939   2.816   6.762   5.968  0.2685  0.1065 -0.0109
19483TIP3    H179940   2.907   6.789   5.981 -0.0543  1.1528  0.1251
19483TIP3    H279941   2.781   6.751   6.056 -0.0820  0.8918 -0.0526
19484TIP3   OH279942   2.811   2.254  17.141 -0.0471 -0.0955  0.4730
19484TIP3    H179943   2.800   2.340  17.181 -0.3474 -0.5377  1.3520
19484TIP3    H279944   2.868   2.269  17.066 -0.7993  1.0219  0.1146
19485TIP3   OH279945   6.188   0.558   2.153  0.1897  0.0191 -0.0463
19485TIP3    H179946   6.163   0.592   2.067  0.6885 -1.6738 -0.8985
19485TIP3    H279947   6.273   0.515   2.137  0.2073 -0.4440  1.2594
19486TIP3   OH279948   1.229   1.986   4.787  0.0092 -0.1112  0.4581
19486TIP3    H179949   1.230   1.902   4.833 -0.6455  0.2530  1.1531
19486TIP3    H279950   1.202   2.050   4.854 -2.0238  0.2599 -0.6729
19487TIP3   OH279951   3.425   2.126   1.183  0.0559 -0.1463  0.4901
19487TIP3    H179952   3.336   2.092   1.193  0.5715 -1.4999  0.5593
19487TIP3    H279953   3.469   2.104   1.266  0.3693  0.7781  0.5755
19488TIP3   OH279954   1.205   5.727  13.114 -0.7612  0.3608 -0.1602
19488TIP3    H179955   1.212   5.632  13.109  0.7666  0.4283  0.4459
19488TIP3    H279956   1.136   5.750  13.051 -1.2050 -1.1470 -0.2265
19489TIP3   OH279957   1.513   2.223   0.064  0.0266 -0.0957  0.4812
19489TIP3    H179958   1.548   2.288   0.003 -0.0601  0.0964  0.6344
19489TIP3    H279959   1.497   2.145   0.010  2.0982 -0.6824  0.6955
19490TIP3   OH279960   2.935   0.144   1.210 -0.1855  0.2613 -0.7358
19490TIP3    H179961   3.006   0.117   1.152  0.3039 -2.5318  1.0256
19490TIP3    H279962   2.916   0.234   1.185  2.8281  0.5171 -2.3845
19491TIP3   OH279963   2.822   0.640  14.290  0.0063 -0.1320 -0.6749
19491TIP3    H179964   2.777   0.625  14.207  1.0017 -2.6133 -0.8169
19491TIP3    H279965   2.914   0.627  14.271  0.5144  1.7448  0.3137
19492TIP3   OH279966   6.638   4.228  12.738  0.1635  0.4536  0.0938
19492TIP3    H179967   6.640   4.172  12.815  1.2113 -0.0592 -0.2916
19492TIP3    H279968   6.729   4.256  12.726  0.1571 -0.1189 -1.4209
19493TIP3   OH279969   0.789   2.133   0.902 -0.4029 -0.3147 -0.3783
19493TIP3    H179970   0.807   2.072   0.830 -0.3620 -0.4367 -0.2655
19493TIP3    H279971   0.863   2.121   0.962  0.8258  1.5139 -1.4711
19494TIP3   OH279972   3.207   4.484   4.410  0.5255  0.2794 -0.5781
19494TIP3    H179973   3.124   4.513   4.449  1.4686  2.9146 -0.4759
19494TIP3    H279974   3.213   4.391   4.433 -2.4438  0.0222 -0.6810
19495TIP3   OH279975   4.559   4.470  12.144 -0.1514 -0.2910  0.0735
19495TIP3    H179976   4.606   4.396  12.182  1.6359  0.0802 -1.3134
19495TIP3    H279977   4.628   4.527  12.111 -1.5367  1.4439  0.0745
19496TIP3   OH279978   5.987   2.688   3.464 -0.0090  0.1372 -0.6926
19496TIP3    H179979   6.013   2.772   3.426  1.3431  0.0112 -0.0781
19496TIP3    H279980   6.070   2.645   3.485 -0.7105 -0.6682  0.4878
19497TIP3   OH279981   6.769   5.352  11.002  0.7687  0.7808  0.4605
19497TIP3    H179982   6.785   5.441  10.969  1.1051  0.9033  0.9443
19497TIP3    H279983   6.674   5.342  10.997  0.7608  1.0083  0.0044
19498TIP3   OH279984   5.543   6.576  13.195  0.8565  0.1835  0.0767
19498TIP3    H179985   5.530   6.647  13.132 -0.8207 -0.6173 -0.5050
19498TIP3    H279986   5.532   6.617  13.281 -1.1502  0.4582 -0.2822
19499TIP3   OH279987   3.678   4.656   1.492 -0.0637 -0.1641  0.3050
19499TIP3    H179988   3.749   4.659   1.557 -0.8901  2.0807  1.1627
19499TIP3    H279989   3.709   4.712   1.421  0.1295 -1.2941 -0.5073
19500TIP3   OH279990   5.763   5.235  15.385  0.2695 -0.8141 -0.5847
19500TIP3    H179991   5.706   5.166  15.352  0.8049 -2.4146  1.6666
19500TIP3    H279992   5.849   5.194  15.390  1.1851  0.8923 -1.8319
19501TIP3   OH279993   3.011   4.865  12.333 -0.2261  0.0299  0.5319
19501TIP3    H179994   3.076   4.800  12.360 -2.0822 -1.9180  0.4403
19501TIP3    H279995   2.989   4.911  12.414  0.3261 -0.1567  0.7975
19502TIP3   OH279996   1.254   6.282   4.136 -0.1642  0.2254 -0.1569
19502TIP3    H179997   1.328   6.339   4.155  0.7199 -0.6229 -1.0280
19502TIP3    H279998   1.178   6.330   4.169  0.5373  2.0101 -1.0690
19503TIP3   OH279999   3.072   0.137  12.543 -0.1039  0.0246 -0.3010
19503TIP3    H180000   3.062   0.109  12.453 -2.8211  0.1459 -0.0734
19503TIP3    H280001   2.998   0.197  12.558  1.8232  2.1006  1.1936
19504TIP3   OH280002   2.005   3.200  13.844 -0.0943 -0.0054  0.1285
19504TIP3    H180003   1.997   3.190  13.750 -1.4628 -1.3020  0.3566
19504TIP3    H280004   2.066   3.131  13.871  0.3848  0.4375  0.1659
19505TIP3   OH280005   3.949   4.003  16.231 -0.6686 -0.3494 -0.6330
19505TIP3    H180006   3.929   3.910  16.228 -0.3368 -0.4874  1.4077
19505TIP3    H280007   4.021   4.014  16.168  0.8734 -1.8600  0.8446
19506TIP3   OH280008   5.796   5.544   3.800  0.0161 -0.4572  0.2353
19506TIP3    H180009   5.779   5.502   3.885 -3.4843 -0.2401 -0.3043
19506TIP3    H280010   5.772   5.478   3.735  1.7251 -0.2571 -0.6347
19507TIP3   OH280011   1.090   5.590   2.591 -0.3305  0.3443  0.1976
19507TIP3    H180012   1.018   5.588   2.528 -0.4609 -0.6815  0.3726
19507TIP3    H280013   1.055   5.546   2.669  0.0992  0.8791  0.6985
19508TIP3   OH280014   1.552   1.048   4.409  0.2756 -0.6876 -0.5755
19508TIP3    H180015   1.490   0.976   4.418 -0.8392  0.2413 -0.7902
19508TIP3    H280016   1.599   1.029   4.327 -1.9552  0.2779 -2.1330
19509TIP3   OH280017   1.261   2.565  16.100 -0.1362  0.2296 -0.4722
19509TIP3    H180018   1.273   2.648  16.054  1.1205 -0.4354 -1.3680
19509TIP3    H280019   1.326   2.507  16.062 -0.2281 -0.8361  0.9649
19510TIP3   OH280020   2.674   0.068   4.416  0.2031  0.6349  0.1564
19510TIP3    H180021   2.590   0.023   4.423 -0.3996  1.6502 -0.3784
19510TIP3    H280022   2.737  -0.002   4.396 -0.4762 -0.1531  0.7232
19511TIP3   OH280023   3.400   0.185  15.839 -0.1665  0.3650 -0.1898
19511TIP3    H180024   3.435   0.271  15.862 -1.3622  0.9073 -0.3681
19511TIP3    H280025   3.319   0.204  15.792 -0.0357 -0.8477 -0.9233
19512TIP3   OH280026   4.684   4.288   4.956 -0.3403  0.0377  0.1519
19512TIP3    H180027   4.779   4.290   4.945 -0.3700  1.7623  0.1023
19512TIP3    H280028   4.653   4.230   4.887  0.5486  0.7375 -0.8485
19513TIP3   OH280029   6.276   5.836  11.495  0.0261  0.7747 -0.1126
19513TIP3    H180030   6.218   5.765  11.523  1.4424 -0.4282 -0.1478
19513TIP3    H280031   6.277   5.830  11.400 -2.4284  2.9486 -0.2970
19514TIP3   OH280032   4.884   3.741  13.776 -0.0803 -0.1311  0.3357
19514TIP3    H180033   4.842   3.684  13.839  2.5317 -1.3502  1.0480
19514TIP3    H280034   4.905   3.684  13.702 -0.4725  0.6296 -0.3629
19515TIP3   OH280035   5.491   4.848  13.057 -0.1163  0.2719  0.3743
19515TIP3    H180036   5.492   4.917  13.123  1.3743  1.1088 -0.4851
19515TIP3    H280037   5.574   4.859  13.010 -0.1620 -1.6867 -0.2079
19516TIP3   OH280038   4.374   6.049  16.946  0.0089  0.0170  0.3455
19516TIP3    H180039   4.456   6.090  16.919 -0.2090  1.9318  2.4233
19516TIP3    H280040   4.306   6.109  16.915 -0.7128 -2.0740 -2.2862
19517TIP3   OH280041   4.324   5.751  16.248 -0.4144 -0.0926 -0.0394
19517TIP3    H180042   4.367   5.806  16.183  1.4205 -1.5814 -0.1277
19517TIP3    H280043   4.282   5.682  16.198 -1.0974  0.1394  0.2027
19518TIP3   OH280044   6.432   6.439   4.771  0.1083 -0.0761 -0.3009
19518TIP3    H180045   6.463   6.383   4.842  1.7125  0.1144 -0.8365
19518TIP3    H280046   6.359   6.391   4.731 -1.8955  0.5135  2.4608
19519TIP3   OH280047   6.715   6.480   6.271 -0.0588 -0.2075  0.5365
19519TIP3    H180048   6.686   6.515   6.186  0.0771  0.8479  0.9214
19519TIP3    H280049   6.775   6.546   6.305 -0.6047 -0.3283  1.7458
19520TIP3   OH280050   5.828   6.438   4.681 -0.1715  0.2585  0.2423
19520TIP3    H180051   5.815   6.396   4.766 -1.1347 -0.9708 -0.4935
19520TIP3    H280052   5.813   6.531   4.697 -0.8824 -0.0321  1.3027
19521TIP3   OH280053   1.691   6.380  15.507  0.3752 -0.2423  0.0190
19521TIP3    H180054   1.757   6.314  15.486 -0.8376 -1.1480 -0.9471
19521TIP3    H280055   1.608   6.332  15.510 -0.7253  1.4656 -2.0611
19522TIP3   OH280056   0.190   1.397  16.965  0.8623  0.2759 -0.0899
19522TIP3    H180057   0.281   1.369  16.962  0.4874 -1.2129  1.6480
19522TIP3    H280058   0.139   1.317  16.951 -0.1972  0.7226  1.0711
19523TIP3   OH280059   0.199   1.711   2.870 -0.4216  0.1276  0.0330
19523TIP3    H180060   0.162   1.769   2.804 -2.4460 -1.4887 -0.2776
19523TIP3    H280061   0.131   1.701   2.936  0.0211 -1.5836  0.2747
19524TIP3   OH280062   2.318   4.965   2.715  0.5361  0.4811  0.0884
19524TIP3    H180063   2.232   5.002   2.695  0.1882  0.3313  1.3201
19524TIP3    H280064   2.366   5.037   2.756  0.3158 -0.0353  1.2494
19525TIP3   OH280065   5.188   4.677  12.233 -0.3443 -0.0908  0.0553
19525TIP3    H180066   5.144   4.620  12.170  0.5213 -2.8781  1.8813
19525TIP3    H280067   5.123   4.691  12.302 -0.7219  1.5801 -0.6161
19526TIP3   OH280068   0.358   4.863  15.702  0.4561 -0.1434  0.3138
19526TIP3    H180069   0.323   4.951  15.716  0.4767  0.0331 -0.7092
19526TIP3    H280070   0.330   4.840  15.613  1.9575 -0.4496 -0.0970
19527TIP3   OH280071   2.716   5.430   2.452  0.1735  0.4203  0.1169
19527TIP3    H180072   2.671   5.442   2.368 -1.2949  0.4141  0.8913
19527TIP3    H280073   2.763   5.513   2.466  0.6774  0.3039 -0.8551
19528TIP3   OH280074   5.203   5.048  15.801 -0.2428  0.2760  0.3590
19528TIP3    H180075   5.171   4.987  15.735  1.4009 -0.6413  0.4031
19528TIP3    H280076   5.282   5.086  15.763  1.8928 -1.7660  2.5933
19529TIP3   OH280077   1.318   0.827   0.772 -0.2033  0.6275  0.3265
19529TIP3    H180078   1.270   0.750   0.802  0.2382  0.6898  1.2263
19529TIP3    H280079   1.326   0.882   0.850  1.1980  0.6752  0.1688
19530TIP3   OH280080   0.278   2.941   3.373  0.7218  0.9399 -0.1102
19530TIP3    H180081   0.340   2.984   3.431  0.4894  0.2745  0.6319
19530TIP3    H280082   0.262   3.006   3.304  1.4482  1.5044  0.2355
19531TIP3   OH280083   6.090   4.017   2.877 -0.0824 -0.2349 -0.0341
19531TIP3    H180084   6.135   4.013   2.793 -2.0360  1.3283 -1.2056
19531TIP3    H280085   6.108   4.106   2.910 -0.0738 -0.5301  0.7744
19532TIP3   OH280086   0.758   2.395   5.933  0.2670  0.5799  0.5156
19532TIP3    H180087   0.804   2.449   5.997 -1.9606 -0.9009  3.4712
19532TIP3    H280088   0.793   2.307   5.946  0.0081  0.3076 -0.5503
19533TIP3   OH280089   2.213   1.165  12.528 -0.1436  0.1961  0.7004
19533TIP3    H180090   2.191   1.164  12.435  0.5738 -0.4572  0.5362
19533TIP3    H280091   2.304   1.136  12.532 -0.6512 -1.3276  1.7290
19534TIP3   OH280092   4.665   4.243   1.323  0.1395  0.3227  0.8007
19534TIP3    H180093   4.610   4.169   1.347 -0.8336  0.7766  0.0265
19534TIP3    H280094   4.621   4.319   1.361  0.0571  0.7236 -0.0866
19535TIP3   OH280095   4.158   1.370   4.500  0.4124  0.2134 -0.2523
19535TIP3    H180096   4.244   1.354   4.461  0.4071 -1.2907  0.3179
19535TIP3    H280097   4.144   1.296   4.559 -1.0316  0.7402  0.0955
19536TIP3   OH280098   0.147   4.549  11.214 -0.1085 -0.5385 -0.4242
19536TIP3    H180099   0.138   4.578  11.305  1.0343  0.1233 -0.5140
19536TIP3    H280100   0.164   4.455  11.220  1.5099 -0.2233  0.1179
19537TIP3   OH280101   1.154   5.505  14.005 -0.3050  0.1298 -0.7488
19537TIP3    H180102   1.238   5.476  13.971 -0.6543  0.2878 -1.7668
19537TIP3    H280103   1.128   5.438  14.068  0.0658 -0.4772 -1.2413
19538TIP3   OH280104   5.487   0.006  15.218  0.0451  0.1110  0.0659
19538TIP3    H180105   5.524  -0.023  15.135  0.0715  0.8065 -0.1646
19538TIP3    H280106   5.394   0.022  15.199 -0.3045 -1.2433  0.5462
19539TIP3   OH280107   5.089   5.333   1.385 -0.1231 -0.2356  0.4091
19539TIP3    H180108   5.093   5.428   1.387 -0.2084 -0.2277  0.2115
19539TIP3    H280109   5.127   5.309   1.300  3.0199 -0.5385  1.8301
19540TIP3   OH280110   5.550   3.360  13.447 -0.2499 -0.2709  0.0032
19540TIP3    H180111   5.557   3.455  13.452  0.8655 -0.0628 -3.5880
19540TIP3    H280112   5.640   3.328  13.457 -0.8566 -1.1190  3.1193
19541TIP3   OH280113   3.273   2.979   4.281  0.1923 -0.0411  0.0573
19541TIP3    H180114   3.364   3.007   4.282  0.1624  0.0314  1.8548
19541TIP3    H280115   3.227   3.045   4.333 -1.0309  0.3522 -1.4603
19542TIP3   OH280116   3.513   2.924   2.388 -0.3746  0.4627 -0.4933
19542TIP3    H180117   3.527   2.910   2.482 -2.5710  4.5139  0.5380
19542TIP3    H280118   3.428   2.882   2.371  0.2992 -0.7839 -0.8252
19543TIP3   OH280119   4.790   2.481  13.168 -0.1392  0.2094 -0.0081
19543TIP3    H180120   4.695   2.472  13.159 -0.1265 -0.0462  0.1016
19543TIP3    H280121   4.802   2.520  13.255 -0.1338  0.0589  0.0577
19544TIP3   OH280122   3.015   3.514   2.999  0.0109  0.0773  0.0646
19544TIP3    H180123   3.023   3.587   3.060 -1.5839  1.2502 -1.1092
19544TIP3    H280124   3.046   3.438   3.048  1.4766  1.4889  1.3676
19545TIP3   OH280125   6.413   5.291   2.994 -0.5770  0.1044 -0.1837
19545TIP3    H180126   6.489   5.297   3.052  0.3640  0.3548 -1.4382
19545TIP3    H280127   6.347   5.348   3.035 -0.9572 -1.9837  2.1980
19546TIP3   OH280128   3.731   1.716  13.860 -0.0067  0.5332 -0.1754
19546TIP3    H180129   3.778   1.680  13.935  0.7461  0.5833 -0.6157
19546TIP3    H280130   3.716   1.808  13.882 -0.7047  0.2964  0.3549
19547TIP3   OH280131   0.857   4.787  12.445  0.1989  0.3396  0.2511
19547TIP3    H180132   0.928   4.726  12.462 -0.7577 -0.3979  1.6810
19547TIP3    H280133   0.802   4.742  12.380 -0.4201 -0.2572  1.1847
19548TIP3   OH280134   4.460   3.126  12.031  0.3466  0.0957  0.1518
19548TIP3    H180135   4.395   3.157  12.093 -0.1968 -0.4203 -0.1617
19548TIP3    H280136   4.488   3.205  11.984 -1.3556  0.0564 -0.9594
19549TIP3   OH280137   0.398   3.123   4.034 -0.3911 -0.7067 -0.2900
19549TIP3    H180138   0.385   3.162   3.947  0.0281  0.0033 -0.0449
19549TIP3    H280139   0.341   3.174   4.092 -0.0162 -0.6067 -0.0063
19550TIP3   OH280140   4.469   1.975  14.196  0.0669  0.0438 -0.1139
19550TIP3    H180141   4.480   2.040  14.127  1.6934 -2.0776 -1.9353
19550TIP3    H280142   4.375   1.972  14.212 -0.2416  1.2230 -1.5932
19551TIP3   OH280143   0.551   2.562  14.375  0.6195  0.1181 -0.0745
19551TIP3    H180144   0.567   2.534  14.285 -2.4437  1.4824 -1.0864
19551TIP3    H280145   0.521   2.482  14.419 -0.1345 -0.0311 -0.8546
19552TIP3   OH280146   5.441   5.139   3.174 -0.1593 -0.1814 -0.4346
19552TIP3    H180147   5.372   5.145   3.108 -1.3223  1.9363  0.9089
19552TIP3    H280148   5.488   5.222   3.167  2.3003 -1.5730 -1.3017
19553TIP3   OH280149   5.404   5.958   2.538 -0.3719 -0.0422 -0.4251
19553TIP3    H180150   5.479   5.930   2.590  0.4416  3.5781  0.4394
19553TIP3    H280151   5.442   5.986   2.454 -0.9528  0.2602 -0.5878
19554TIP3   OH280152   3.288   5.403   4.177 -0.3508 -0.1776 -0.0754
19554TIP3    H180153   3.222   5.437   4.118 -0.6314 -0.8595 -0.1536
19554TIP3    H280154   3.273   5.449   4.260 -0.4340  0.2211 -0.3111
19555TIP3   OH280155   1.155   6.269  14.435  0.4352 -0.4568  0.7094
19555TIP3    H180156   1.192   6.270  14.523 -0.3604  0.0125  1.0454
19555TIP3    H280157   1.231   6.260  14.377  1.1383  1.2187  1.3413
19556TIP3   OH280158   5.887   5.789  15.688 -0.1907  0.2458 -0.4275
19556TIP3    H180159   5.927   5.723  15.632 -0.2009  0.6753 -0.9508
19556TIP3    H280160   5.811   5.819  15.639  0.3858  1.3662 -0.6537
19557TIP3   OH280161   3.443   2.577   3.584  0.2922 -0.1893 -0.1658
19557TIP3    H180162   3.503   2.581   3.509  1.8224 -0.1265  1.0301
19557TIP3    H280163   3.458   2.491   3.622 -0.4188 -0.1865  0.1296
19558TIP3   OH280164   5.107   5.943  12.464  0.0012  0.5609 -0.3133
19558TIP3    H180165   5.018   5.968  12.488 -0.0684  0.2649 -0.2574
19558TIP3    H280166   5.098   5.856  12.424  0.5186 -0.4295  1.6553
19559TIP3   OH280167   2.654   3.041  14.833 -0.2702  0.5704 -0.2604
19559TIP3    H180168   2.585   3.085  14.783 -0.7801  0.4715  0.3571
19559TIP3    H280169   2.685   3.107  14.894  0.1040  0.5775 -0.4575
19560TIP3   OH280170   4.078   3.435  12.046  0.7035  0.4334 -0.1192
19560TIP3    H180171   4.044   3.523  12.029  0.0297  0.2295  0.1740
19560TIP3    H280172   4.024   3.378  11.991  1.1609  0.2096 -0.3320
19561TIP3   OH280173   1.700   2.350  11.168 -0.7064 -0.2106  0.3653
19561TIP3    H180174   1.633   2.329  11.234 -0.3225 -0.7714  0.5755
19561TIP3    H280175   1.649   2.381  11.092 -1.2087 -0.6669  0.5119
19562TIP3   OH280176   2.708   4.605  14.168 -0.2197  0.2807  0.3169
19562TIP3    H180177   2.657   4.530  14.199  0.4606  0.3523  1.6611
19562TIP3    H280178   2.678   4.679  14.222  0.2644  0.6227  0.1242
19563TIP3   OH280179   2.452   0.713  16.904 -0.2324  0.2081  0.2229
19563TIP3    H180180   2.447   0.778  16.974 -1.2176 -1.7947  2.0684
19563TIP3    H280181   2.369   0.722  16.856  0.2399  1.2487 -0.4228
19564TIP3   OH280182   6.323   3.278   5.240 -1.1845 -0.1077  0.2370
19564TIP3    H180183   6.321   3.218   5.315  0.5736 -2.4222 -1.4628
19564TIP3    H280184   6.247   3.254   5.188 -0.4763 -0.9186 -0.4476
19565TIP3   OH280185   0.193   1.613   2.561 -0.4611 -0.3408  0.3050
19565TIP3    H180186   0.208   1.701   2.527 -0.0902  0.0974  1.5719
19565TIP3    H280187   0.155   1.627   2.648  0.7056 -1.4196  1.0036
19566TIP3   OH280188   4.885   3.899  10.744  0.3052 -0.5337  0.4446
19566TIP3    H180189   4.937   3.968  10.701 -0.4947 -0.0542  0.2432
19566TIP3    H280190   4.830   3.945  10.806  0.5936 -1.1170  1.1442
19567TIP3   OH280191   5.283   3.810   6.680 -0.0438 -0.2505  0.3375
19567TIP3    H180192   5.325   3.895   6.671 -0.2755 -0.2362 -0.6275
19567TIP3    H280193   5.354   3.749   6.701 -0.1623  0.5472  3.3219
19568TIP3   OH280194   3.997   6.417  13.775  0.1663  0.5010  0.1885
19568TIP3    H180195   3.976   6.464  13.856 -0.7070  3.2500 -1.5438
19568TIP3    H280196   3.912   6.392  13.739  0.5923 -1.6378  0.5958
19569TIP3   OH280197   2.235   3.831   5.298 -0.4458 -0.3363 -0.8177
19569TIP3    H180198   2.205   3.805   5.385 -1.1265 -0.0817 -0.9772
19569TIP3    H280199   2.226   3.752   5.245  0.0838 -0.5262 -0.6365
19570TIP3   OH280200   3.117   0.016  12.263 -0.2341  0.4511 -0.1792
19570TIP3    H180201   3.109   0.086  12.198  0.5990  1.8292  1.1672
19570TIP3    H280202   3.206  -0.018  12.250 -0.4858 -0.0538 -0.5502
19571TIP3   OH280203   5.819   1.421  12.680  0.8273 -0.0551  0.0467
19571TIP3    H180204   5.826   1.511  12.710  0.2571  0.0069 -0.0060
19571TIP3    H280205   5.792   1.427  12.588 -0.5421 -0.2914  0.4204
19572TIP3   OH280206   3.496   0.147  13.351  0.3466 -0.1074  0.3631
19572TIP3    H180207   3.515   0.210  13.420  1.2307  1.4077 -1.2344
19572TIP3    H280208   3.582   0.112  13.327 -0.0687 -1.4551  0.7764
19573TIP3   OH280209   3.192   2.681  17.206 -0.4054 -0.2759 -0.1858
19573TIP3    H180210   3.142   2.616  17.155 -3.3302  1.2287  0.6481
19573TIP3    H280211   3.184   2.652  17.296 -1.6556  1.1611  0.1828
19574TIP3   OH280212   6.404   3.331  14.074 -0.5992 -0.1496  0.5893
19574TIP3    H180213   6.421   3.356  13.983  1.2436  1.3474  1.3143
19574TIP3    H280214   6.339   3.261  14.068  0.5678 -1.0536 -1.9436
19575TIP3   OH280215   5.785   6.174   5.965  0.1118  0.0797 -0.2029
19575TIP3    H180216   5.696   6.152   5.992  0.3294 -0.0861  0.3876
19575TIP3    H280217   5.841   6.131   6.030  0.5989  0.8674 -0.0965
19576TIP3   OH280218   0.863   3.339  14.778  0.1798  0.7430 -0.5228
19576TIP3    H180219   0.934   3.402  14.795 -0.4183  1.5632 -1.0041
19576TIP3    H280220   0.904   3.253  14.787  0.7750  1.1851  1.2005
19577TIP3   OH280221   2.144   3.726  12.397 -0.0272 -0.4731  0.2901
19577TIP3    H180222   2.064   3.746  12.348  0.7657 -1.7161 -1.5639
19577TIP3    H280223   2.157   3.802  12.453 -1.3304  0.7041 -0.9525
19578TIP3   OH280224   4.100   6.445  11.554 -0.1218  0.1854  0.1529
19578TIP3    H180225   4.184   6.489  11.568  0.7294 -1.7118  1.1885
19578TIP3    H280226   4.057   6.447  11.639 -1.4892  1.7968 -0.5373
19579TIP3   OH280227   3.972   0.201   1.343  0.1329 -0.5721  0.5496
19579TIP3    H180228   3.889   0.227   1.383  0.3405 -0.5807  0.9927
19579TIP3    H280229   3.961   0.108   1.322 -0.4471 -0.2505 -0.6189
19580TIP3   OH280230   1.952   5.152  11.724  0.2154  0.3673 -0.0992
19580TIP3    H180231   1.946   5.168  11.630 -1.0881 -1.9055 -0.4462
19580TIP3    H280232   1.866   5.118  11.748 -0.0386  2.5075  2.2724
19581TIP3   OH280233   4.629   5.607  16.845 -0.3359 -0.1262  0.2069
19581TIP3    H180234   4.651   5.697  16.822 -0.3108 -0.0238  0.6221
19581TIP3    H280235   4.545   5.591  16.803 -0.7410  0.3687  0.8214
19582TIP3   OH280236   0.280   6.143  13.579  0.4189  0.4439  0.1849
19582TIP3    H180237   0.370   6.176  13.582  0.0308  1.6528 -0.8506
19582TIP3    H280238   0.229   6.211  13.623  0.0632 -0.4887  1.2466
19583TIP3   OH280239   5.728   5.030  14.045 -0.1340  0.2336 -0.0623
19583TIP3    H180240   5.643   5.017  14.088  0.5549 -1.1331  0.9163
19583TIP3    H280241   5.792   5.021  14.115  0.8813  0.1141 -0.9983
19584TIP3   OH280242   1.222   3.804  15.173 -0.0509 -0.3022  0.0801
19584TIP3    H180243   1.238   3.715  15.144  1.2056  0.5006 -1.7678
19584TIP3    H280244   1.160   3.795  15.246 -1.6713 -2.5195 -1.5146
19585TIP3   OH280245   1.124   3.391  14.404  0.5818 -0.0256  0.1895
19585TIP3    H180246   1.218   3.400  14.383  1.1789 -1.4497  2.1532
19585TIP3    H280247   1.112   3.445  14.482  0.2543 -1.6028  1.2406
19586TIP3   OH280248   0.367   5.572   0.434 -0.0827 -0.3220  0.2884
19586TIP3    H180249   0.391   5.611   0.350  0.4671 -0.4898  0.3621
19586TIP3    H280250   0.321   5.642   0.481 -1.1858 -0.5225 -0.5047
19587TIP3   OH280251   4.838   3.683  12.434 -0.3154  0.7737  0.2032
19587TIP3    H180252   4.889   3.678  12.353  1.4495  1.7684  1.2136
19587TIP3    H280253   4.827   3.592  12.462 -1.8771  0.3436 -1.6941
19588TIP3   OH280254   4.850   2.887   3.219 -0.0685 -0.2257 -0.6060
19588TIP3    H180255   4.761   2.868   3.248 -0.1450  0.9047 -0.0789
19588TIP3    H280256   4.864   2.830   3.144 -0.9236 -1.0515 -0.1436
19589TIP3   OH280257   4.793   5.021  12.435 -0.4208  0.4239  0.2552
19589TIP3    H180258   4.726   5.087  12.418  0.3829  0.7443 -1.7254
19589TIP3    H280259   4.863   5.040  12.373  0.7381 -1.0199  1.0676
19590TIP3   OH280260   6.403   2.860  15.118  0.1169  0.2729  0.2843
19590TIP3    H180261   6.396   2.920  15.192 -0.5634  1.2164 -0.5198
19590TIP3    H280262   6.314   2.825  15.106 -0.9236  3.6436 -2.9099
19591TIP3   OH280263   0.964   2.022   2.664 -0.2897 -0.9337  0.6568
19591TIP3    H180264   1.034   2.061   2.611 -0.1051 -4.6800 -2.0946
19591TIP3    H280265   0.887   2.076   2.647  1.3056  1.7852  1.7832
19592TIP3   OH280266   4.883   5.637  10.954  0.4981 -0.0986  0.0496
19592TIP3    H180267   4.911   5.658  10.865 -0.7366 -1.9525 -0.8152
19592TIP3    H280268   4.928   5.700  11.010  3.3756 -0.6338 -1.6192
19593TIP3   OH280269   2.659   4.767   2.261 -0.6317  0.3685  0.0171
19593TIP3    H180270   2.605   4.817   2.322 -1.3458 -0.3543 -0.0072
19593TIP3    H280271   2.724   4.829   2.229 -0.3161  0.7863  1.4412
19594TIP3   OH280272   1.139   5.398  14.275  0.4364  0.1030 -0.0503
19594TIP3    H180273   1.213   5.451  14.245 -0.1457  0.7412 -0.3615
19594TIP3    H280274   1.072   5.462  14.300 -0.1103 -0.4826 -0.0195
19595TIP3   OH280275   1.581   0.231   3.275  0.0024 -0.6274 -0.5942
19595TIP3    H180276   1.548   0.166   3.337 -0.7801  1.3659  1.1107
19595TIP3    H280277   1.676   0.222   3.280 -0.0005  0.3010  1.8123
19596TIP3   OH280278   3.481   2.130  14.243  0.0099 -0.3024  0.3859
19596TIP3    H180279   3.564   2.089  14.266 -1.0887 -2.5899  0.3873
19596TIP3    H280280   3.473   2.117  14.148 -1.2804 -1.8942  0.7020
19597TIP3   OH280281   6.539   3.926   5.342 -0.2402 -0.3525  0.1916
19597TIP3    H180282   6.554   3.832   5.354 -0.5675 -0.4958 -0.4729
19597TIP3    H280283   6.564   3.966   5.425  2.8711 -0.6829 -0.5193
19598TIP3   OH280284   3.259   3.547   5.844 -0.1041 -0.6664 -0.1831
19598TIP3    H180285   3.197   3.620   5.841  1.6062  0.7807 -0.6648
19598TIP3    H280286   3.240   3.498   5.764 -0.6091 -0.2186 -0.3457
19599TIP3   OH280287   1.340   1.855  12.428 -0.2888 -0.5613  0.8832
19599TIP3    H180288   1.334   1.858  12.524 -2.5691  1.6934  0.7370
19599TIP3    H280289   1.273   1.791  12.403  1.1840 -2.1114  0.8187
19600TIP3   OH280290   4.056   4.214  15.868  0.2879 -0.3126  0.5298
19600TIP3    H180291   4.036   4.208  15.961  1.3400 -0.9538  0.7240
19600TIP3    H280292   4.007   4.290  15.837 -0.5824 -0.4999  1.4681
19601TIP3   OH280293   5.148   1.726  15.205 -0.1094 -0.2728 -0.0856
19601TIP3    H180294   5.119   1.755  15.291  0.0515 -2.7473  0.8411
19601TIP3    H280295   5.243   1.720  15.213  0.1265  1.6579 -1.1547
19602TIP3   OH280296   3.697   2.934  15.926  0.6533 -0.4554 -0.6205
19602TIP3    H180297   3.788   2.906  15.923  0.2549 -1.9038  0.4248
19602TIP3    H280298   3.670   2.921  16.017 -0.9327 -1.1368 -1.1723
19603TIP3   OH280299   1.444   1.121  13.092 -0.1312 -0.4266 -0.1088
19603TIP3    H180300   1.525   1.151  13.052 -0.0344  0.6117  0.8689
19603TIP3    H280301   1.389   1.199  13.097 -1.4700 -1.2587 -1.4056
19604TIP3   OH280302   0.105   6.042   5.188  0.3207  0.5877  0.3377
19604TIP3    H180303   0.118   5.950   5.165  1.1830  0.7484  0.1565
19604TIP3    H280304   0.092   6.086   5.104  1.6204  0.8925  0.2865
19605TIP3   OH280305   2.564   2.643   1.868  0.0521 -0.1468 -0.7472
19605TIP3    H180306   2.609   2.568   1.830  0.2117 -0.4100 -0.0341
19605TIP3    H280307   2.594   2.646   1.959  1.1556  1.6202 -1.1478
19606TIP3   OH280308   2.074   4.831   5.497 -0.2445 -0.5152 -0.5646
19606TIP3    H180309   2.071   4.814   5.591 -1.0578  0.9642 -0.3081
19606TIP3    H280310   2.056   4.925   5.489  3.0524  0.0713 -1.9779
19607TIP3   OH280311   0.256   5.045  16.400  0.2289 -0.2866  0.2589
19607TIP3    H180312   0.170   5.080  16.377  0.8307  1.2713  0.3201
19607TIP3    H280313   0.238   4.956  16.431 -1.0476 -0.9681 -2.2912
19608TIP3   OH280314   4.678   5.193   5.543 -0.2382  0.2398  0.6088
19608TIP3    H180315   4.769   5.190   5.572  0.1861  1.2235 -0.5657
19608TIP3    H280316   4.681   5.237   5.458 -1.9001  0.9880  0.9093
19609TIP3   OH280317   5.437   2.069   4.500  0.3661  0.1424 -0.2190
19609TIP3    H180318   5.369   2.107   4.556  1.5192  1.4923  0.2782
19609TIP3    H280319   5.418   2.103   4.413 -0.8720 -1.2176 -0.5038
19610TIP3   OH280320   4.679   2.305   2.870 -0.2715 -0.1530  0.1167
19610TIP3    H180321   4.686   2.276   2.779  2.7225 -0.5084  0.4109
19610TIP3    H280322   4.746   2.372   2.879  1.2234 -1.9098  2.6885
19611TIP3   OH280323   5.341   1.461  15.738 -0.5308 -0.0324 -0.4363
19611TIP3    H180324   5.393   1.392  15.698 -1.4256 -0.4998 -0.8089
19611TIP3    H280325   5.278   1.486  15.671 -0.7994  0.5170  0.0107
19612TIP3   OH280326   0.406   4.374  16.207  0.1661 -0.1703 -0.1242
19612TIP3    H180327   0.406   4.401  16.299 -2.9324  1.0273 -0.4044
19612TIP3    H280328   0.317   4.393  16.177  0.6989 -1.9302 -2.9760
19613TIP3   OH280329   1.260   5.319  13.680  0.3798  0.1110 -0.2659
19613TIP3    H180330   1.174   5.277  13.678 -0.0669  0.8193  1.8982
19613TIP3    H280331   1.251   5.396  13.624 -1.0598  1.2933  1.5116
19614TIP3   OH280332   2.755   3.375  14.596  0.4983 -0.4123  0.2310
19614TIP3    H180333   2.709   3.432  14.657  1.8932  0.6967  0.2594
19614TIP3    H280334   2.839   3.418  14.581  1.3586 -2.1801 -0.1581
19615TIP3   OH280335   4.484   2.227  11.904  0.4381 -0.1435 -0.5798
19615TIP3    H180336   4.435   2.146  11.917  0.2192  0.0570 -0.1705
19615TIP3    H280337   4.574   2.204  11.927  0.3611 -0.2480 -0.3823
19616TIP3   OH280338   6.008   4.250  15.325 -0.1421  0.6230 -0.0280
19616TIP3    H180339   6.010   4.342  15.301  0.5266  1.0749  1.6387
19616TIP3    H280340   5.917   4.233  15.350 -0.3844  0.6858 -0.8856
19617TIP3   OH280341   2.200   6.390   3.990 -0.1614  0.0024 -0.8412
19617TIP3    H180342   2.228   6.302   4.015  1.7575  0.4101 -1.4211
19617TIP3    H280343   2.124   6.376   3.934 -0.8051 -1.2018  0.3049
19618TIP3   OH280344   4.789   6.023  14.678  0.1137  0.2394 -0.1249
19618TIP3    H180345   4.729   5.962  14.634 -0.5583  2.3230 -2.1918
19618TIP3    H280346   4.871   5.975  14.684 -0.8783 -1.5128 -0.1135
19619TIP3   OH280347   4.186   5.908  12.172 -0.3833 -0.1036 -0.5170
19619TIP3    H180348   4.226   5.821  12.171  1.5078  0.7385 -1.9245
19619TIP3    H280349   4.247   5.961  12.224 -0.7105  0.7474 -0.9943
19620TIP3   OH280350   6.032   5.428  14.032 -0.0039 -0.2324 -0.4563
19620TIP3    H180351   6.070   5.395  13.951  1.6644 -2.4519  1.1553
19620TIP3    H280352   6.099   5.486  14.069  0.9446 -2.3466  1.2550
19621TIP3   OH280353   3.460   3.803  15.556 -0.2297 -0.8641 -0.2226
19621TIP3    H180354   3.378   3.767  15.590  0.5545 -0.7799  1.8214
19621TIP3    H280355   3.505   3.836  15.633  1.1406  0.3120 -1.5013
19622TIP3   OH280356   2.554   6.333   1.067 -0.0406 -0.1347 -0.1545
19622TIP3    H180357   2.460   6.332   1.081 -0.1705 -1.8333 -0.9679
19622TIP3    H280358   2.567   6.394   0.994 -0.4272  0.6562  0.4374
19623TIP3   OH280359   0.740   3.593  11.598  0.6841 -0.0224 -0.2376
19623TIP3    H180360   0.820   3.631  11.635  1.2199 -1.0281 -0.3388
19623TIP3    H280361   0.771   3.519  11.546 -0.5892 -2.5365  2.4789
19624TIP3   OH280362   0.619   4.169  12.034 -0.2419  0.0695 -0.1191
19624TIP3    H180363   0.641   4.148  12.125 -0.4550 -0.3108 -0.1566
19624TIP3    H280364   0.526   4.152  12.027 -0.6485  2.0688  0.1419
19625TIP3   OH280365   6.527   2.046   2.224 -0.7470 -0.0811 -0.1615
19625TIP3    H180366   6.523   2.133   2.185 -1.2570  0.3710  0.8723
19625TIP3    H280367   6.576   2.058   2.306  1.8684 -1.3433 -1.4885
19626TIP3   OH280368   1.186   6.525  14.261  0.5661 -0.3494  0.3679
19626TIP3    H180369   1.253   6.570  14.312  1.3213 -0.1296 -0.7979
19626TIP3    H280370   1.205   6.432  14.274 -0.4182 -0.3462  2.0127
19627TIP3   OH280371   2.888   5.425   3.804  0.9345 -0.6359 -0.0921
19627TIP3    H180372   2.909   5.462   3.719  2.9057 -0.0868  0.6005
19627TIP3    H280373   2.913   5.333   3.798  1.9622 -0.3872  0.1594
19628TIP3   OH280374   4.378   4.411   2.233 -0.3737  0.5024  0.0735
19628TIP3    H180375   4.339   4.425   2.319 -1.4985  0.0797 -0.3614
19628TIP3    H280376   4.306   4.422   2.172 -0.0590 -1.3407 -0.6742
19629TIP3   OH280377   6.351   5.193  13.001 -0.4372 -0.6568  0.3983
19629TIP3    H180378   6.314   5.235  12.923  0.4079 -1.4540 -0.4432
19629TIP3    H280379   6.400   5.263  13.044 -2.0947  0.1651  1.0129
19630TIP3   OH280380   2.290   3.231   0.454  0.3678 -0.6036  0.2629
19630TIP3    H180381   2.207   3.241   0.407  0.1358  0.0737  0.8033
19630TIP3    H280382   2.327   3.150   0.421 -0.6040 -1.0044  0.1411
19631TIP3   OH280383   0.849   0.386   5.559 -0.4660 -0.0153  0.1074
19631TIP3    H180384   0.869   0.426   5.643  0.9446 -0.2903 -0.0950
19631TIP3    H280385   0.909   0.429   5.497  0.2505 -1.6137 -0.3176
19632TIP3   OH280386   4.128   3.105  16.520 -0.3635 -0.3855 -0.3712
19632TIP3    H180387   4.051   3.090  16.574 -1.0727  1.2939 -0.8772
19632TIP3    H280388   4.138   3.200  16.517  0.0260 -0.4569 -2.6561
19633TIP3   OH280389   3.234   1.128  11.009 -0.1753 -0.0224  0.2727
19633TIP3    H180390   3.226   1.203  10.949  1.8856  0.2644  0.3132
19633TIP3    H280391   3.291   1.067  10.962 -0.9301 -1.0678  0.7210
19634TIP3   OH280392   6.530   6.621  16.611  0.5366  0.9185 -0.3229
19634TIP3    H180393   6.555   6.670  16.533 -0.7261  1.4953 -0.3732
19634TIP3    H280394   6.574   6.666  16.683  2.4408 -0.1570 -0.7761
19635TIP3   OH280395   1.652   2.550  14.218  0.1242 -0.2428 -0.0888
19635TIP3    H180396   1.719   2.617  14.207  0.8638 -0.7002  1.4874
19635TIP3    H280397   1.590   2.566  14.147  1.6774  0.4455 -1.3216
19636TIP3   OH280398   2.118   0.115  12.561 -0.3603  0.1910  0.1473
19636TIP3    H180399   2.119   0.188  12.623 -2.8641 -0.5614  1.1299
19636TIP3    H280400   2.166   0.147  12.485  1.4695  1.6746  1.8509
19637TIP3   OH280401   1.334   6.374  15.005 -0.6633 -1.1677  0.4151
19637TIP3    H180402   1.425   6.394  14.983 -0.7815  0.3950  1.2636
19637TIP3    H280403   1.340   6.315  15.080 -0.3517  0.6605  1.8535
19638TIP3   OH280404   0.230   4.518   4.605 -1.0411  0.1971  0.0392
19638TIP3    H180405   0.239   4.568   4.524 -0.3478 -0.3684 -0.2490
19638TIP3    H280406   0.137   4.496   4.610 -0.7754 -1.4935 -1.6812
19639TIP3   OH280407   6.199   2.075  16.323 -0.0334 -0.5290 -0.0179
19639TIP3    H180408   6.261   2.005  16.344  0.3027 -0.6017 -1.1701
19639TIP3    H280409   6.114   2.032  16.321  0.3121 -1.2144 -1.9835
19640TIP3   OH280410   0.540   2.111   4.908 -0.4465 -1.0392  0.4426
19640TIP3    H180411   0.532   2.205   4.923 -0.3148 -0.8272 -0.7556
19640TIP3    H280412   0.477   2.072   4.968 -0.4874 -0.1844  0.9593
19641TIP3   OH280413   3.013   0.837   3.436 -0.2188  0.1703  0.5758
19641TIP3    H180414   3.018   0.744   3.455 -2.2292  0.3147  1.9600
19641TIP3    H280415   3.032   0.843   3.342  3.5286 -1.2016  1.1442
19642TIP3   OH280416   6.012   0.624   2.523 -0.0050  0.4648 -0.6532
19642TIP3    H180417   6.090   0.643   2.471  0.5107 -1.3056 -0.5652
19642TIP3    H280418   6.044   0.615   2.613 -0.4868  0.9125 -0.4387
19643TIP3   OH280419   3.194   3.559   2.359  0.0391 -0.1447 -0.4223
19643TIP3    H180420   3.198   3.646   2.321 -0.7781  0.8400  1.6498
19643TIP3    H280421   3.286   3.532   2.367  0.4984  1.8425  1.7307
19644TIP3   OH280422   2.543   1.303   3.201 -0.1363  0.1461  0.1866
19644TIP3    H180423   2.504   1.253   3.273  0.0161 -0.0911  0.1055
19644TIP3    H280424   2.636   1.280   3.203 -0.0390  0.5370  0.2379
19645TIP3   OH280425   1.383   1.806  12.741  0.0727  0.3710  0.8177
19645TIP3    H180426   1.372   1.833  12.832 -1.5535 -0.3414  0.8471
19645TIP3    H280427   1.434   1.725  12.745  0.0950  0.3991  1.0852
19646TIP3   OH280428   1.795   2.426   5.363 -0.0903 -0.0427  0.5963
19646TIP3    H180429   1.873   2.480   5.379  0.1897 -0.6426  1.2545
19646TIP3    H280430   1.825   2.336   5.373  0.1716 -0.4936 -3.5617
19647TIP3   OH280431   5.656   2.444  11.822  0.6095  0.4669 -0.2188
19647TIP3    H180432   5.621   2.425  11.909 -0.1541  0.3848 -0.5345
19647TIP3    H280433   5.741   2.484  11.838  1.0441 -0.7505  0.5167
19648TIP3   OH280434   0.510   6.000   4.275  0.5558  0.2056 -0.0710
19648TIP3    H180435   0.530   5.909   4.256  0.5101 -0.5612  3.2474
19648TIP3    H280436   0.415   6.001   4.289  0.5321  0.7978 -0.2399
19649TIP3   OH280437   3.152   4.344  16.220  0.3291 -0.1347  0.0674
19649TIP3    H180438   3.201   4.426  16.214  0.3699  0.0742  2.6888
19649TIP3    H280439   3.070   4.368  16.264  0.8631 -1.7125  1.9572
19650TIP3   OH280440   5.647   4.640  15.061  0.2367 -0.0400  0.5242
19650TIP3    H180441   5.565   4.596  15.041  1.5682 -1.6994 -1.5592
19650TIP3    H280442   5.696   4.638  14.979  2.1781  1.3210  1.6009
19651TIP3   OH280443   3.964   5.073  15.871  1.1777 -0.5201 -0.2307
19651TIP3    H180444   3.875   5.095  15.841  1.6857  0.7800 -0.8670
19651TIP3    H280445   4.012   5.057  15.790  1.4759 -1.3916  0.1271
19652TIP3   OH280446   4.226   5.294   1.139 -0.1812  0.1318 -0.3328
19652TIP3    H180447   4.132   5.281   1.141 -0.1526  0.0685  0.4995
19652TIP3    H280448   4.263   5.219   1.186  0.2221  0.7336  0.3220
19653TIP3   OH280449   1.235   5.278  16.487 -0.5222  0.2175 -0.1297
19653TIP3    H180450   1.215   5.342  16.419  0.4469  0.8273  0.1551
19653TIP3    H280451   1.153   5.270  16.537 -0.3941  1.8944  0.3700
19654TIP3   OH280452   0.822   0.727  12.348  0.7849 -0.5167 -0.5313
19654TIP3    H180453   0.894   0.680  12.307  0.5797 -0.7832 -0.5867
19654TIP3    H280454   0.787   0.667  12.413  1.4722  0.1216  0.4363
19655TIP3   OH280455   5.930   3.736  12.294 -0.0069  0.1869  0.2898
19655TIP3    H180456   5.851   3.701  12.334 -0.5233 -0.7305 -1.4675
19655TIP3    H280457   5.905   3.751  12.203  2.5270 -2.3987 -0.9037
19656TIP3   OH280458   1.133   6.750   4.836 -0.1956  0.7648  0.5814
19656TIP3    H180459   1.214   6.721   4.878 -0.5534  0.5428  1.1210
19656TIP3    H280460   1.162   6.786   4.752  0.1573 -2.2323 -0.6554
19657TIP3   OH280461   5.213   4.035   0.893  0.1489  0.3452 -0.2734
19657TIP3    H180462   5.135   4.087   0.914  1.2652  1.4367  1.2280
19657TIP3    H280463   5.201   3.954   0.943 -0.2858  0.2927 -0.4602
19658TIP3   OH280464   1.402   6.725  11.875  0.1212 -0.1716 -0.4444
19658TIP3    H180465   1.329   6.782  11.852 -0.6270 -0.3294  1.3817
19658TIP3    H280466   1.389   6.707  11.969  1.6441 -1.4402 -0.4545
19659TIP3   OH280467   5.050   1.100   2.908  0.3408 -0.2113 -0.4205
19659TIP3    H180468   5.039   1.054   2.825  2.3237 -0.7744 -0.4106
19659TIP3    H280469   5.145   1.108   2.919  0.1207 -0.0400  1.7241
19660TIP3   OH280470   1.928   4.086  12.104 -0.6311  0.2346  0.0205
19660TIP3    H180471   1.997   4.057  12.164 -1.8287 -0.2430  1.1933
19660TIP3    H280472   1.965   4.163  12.060  0.1859  0.7387  1.5453
19661TIP3   OH280473   1.480   1.232   5.610  0.2251 -0.1557  1.1534
19661TIP3    H180474   1.395   1.199   5.580 -0.0845  0.7319  1.0450
19661TIP3    H280475   1.520   1.158   5.656 -0.9734 -0.3209  1.9521
19662TIP3   OH280476   5.406   4.369   0.278 -0.3556 -0.4887 -0.5142
19662TIP3    H180477   5.354   4.332   0.349 -1.2376 -0.9999 -1.4139
19662TIP3    H280478   5.351   4.438   0.241  1.2032  1.6427  1.0322
19663TIP3   OH280479   1.192   6.585   0.037 -0.4467  0.3025  0.1611
19663TIP3    H180480   1.262   6.558  -0.021  0.4694  1.5392  0.6653
19663TIP3    H280481   1.143   6.650  -0.013 -1.5780 -0.9332 -0.3849
19664TIP3   OH280482   1.062   4.399  12.432  0.2150 -0.3850 -0.9973
19664TIP3    H180483   0.975   4.372  12.403 -0.4986  0.6499  0.1077
19664TIP3    H280484   1.049   4.487  12.467  1.6532 -0.3392 -0.5378
19665TIP3   OH280485   0.495   6.232  16.304 -0.0329  0.6664  0.4015
19665TIP3    H180486   0.418   6.179  16.285 -0.5746  1.2649  0.9140
19665TIP3    H280487   0.472   6.320  16.275  0.3660  0.8993  0.7780
19666TIP3   OH280488   3.619   4.392   1.535  0.0799 -0.0687 -0.0422
19666TIP3    H180489   3.590   4.481   1.557 -1.2621 -0.7406  0.9714
19666TIP3    H280490   3.565   4.335   1.589  0.8847 -1.5193 -0.7362
19667TIP3   OH280491   2.698   3.961   0.495 -0.2925 -1.0846  0.3122
19667TIP3    H180492   2.715   3.890   0.557 -1.0211 -1.6960 -0.1763
19667TIP3    H280493   2.602   3.968   0.492 -0.2098  1.5971  2.2201
19668TIP3   OH280494   1.402   3.044   5.638  0.7345 -0.0944 -0.1334
19668TIP3    H180495   1.482   3.011   5.598  0.5702  0.7741 -1.2369
19668TIP3    H280496   1.404   3.013   5.728  0.8951 -2.5309 -0.9399
19669TIP3   OH280497   2.090   4.991   3.864 -0.2582 -0.0703 -0.5888
19669TIP3    H180498   2.116   5.075   3.827  1.4247 -0.2859  0.0540
19669TIP3    H280499   2.169   4.937   3.859 -0.4025 -0.5726  1.9209
19670TIP3   OH280500   4.901   1.747   2.830  0.0080  0.1316 -0.2415
19670TIP3    H180501   4.865   1.829   2.796 -0.0324 -0.2677 -1.1458
19670TIP3    H280502   4.834   1.681   2.813  0.2430 -0.1913  0.0540
19671TIP3   OH280503   2.438   2.267   2.488 -0.1789 -0.2681 -0.0534
19671TIP3    H180504   2.420   2.195   2.548 -0.6181  0.8482  1.1865
19671TIP3    H280505   2.402   2.344   2.532 -0.1422  0.6310 -1.5727
19672TIP3   OH280506   0.722   0.760  11.384  0.4001  0.0654 -0.3680
19672TIP3    H180507   0.678   0.772  11.300 -1.5926 -0.1804  0.6328
19672TIP3    H280508   0.668   0.698  11.432  1.7926 -0.1883  0.9207
19673TIP3   OH280509   4.101   4.889   0.005  0.2388 -0.0166  0.4588
19673TIP3    H180510   4.157   4.852   0.073  1.0749 -0.0480 -0.2418
19673TIP3    H280511   4.103   4.825  -0.066  0.2946  0.5555 -0.0608
19674TIP3   OH280512   6.526   2.580  16.117 -0.2613  0.1673  0.2211
19674TIP3    H180513   6.493   2.638  16.185 -0.5428  0.5741 -0.2605
19674TIP3    H280514   6.617   2.608  16.103 -0.6920  1.1461 -0.7050
19675TIP3   OH280515   0.152   0.564   5.696  0.5234  0.0909  0.1482
19675TIP3    H180516   0.196   0.499   5.641  0.3322  0.7068 -0.7348
19675TIP3    H280517   0.210   0.574   5.772  0.2617 -1.5393  0.5930
19676TIP3   OH280518   0.846   5.813  14.507 -0.4388 -0.3976 -0.2745
19676TIP3    H180519   0.905   5.839  14.436  1.0142 -0.5548  0.8345
19676TIP3    H280520   0.872   5.723  14.528 -0.0192  0.0744  1.2628
19677TIP3   OH280521   5.909   4.532   2.565 -0.2118  0.0861 -0.1406
19677TIP3    H180522   5.894   4.620   2.533  0.5839 -0.0966 -1.0474
19677TIP3    H280523   5.824   4.503   2.599 -0.9072  0.5215 -1.4915
19678TIP3   OH280524   1.058   1.611  15.239  0.2504  0.1329  0.2132
19678TIP3    H180525   0.972   1.596  15.278  0.6272 -2.1082  0.2441
19678TIP3    H280526   1.054   1.568  15.154  1.0438  0.8252 -0.1877
19679TIP3   OH280527   2.379   5.169   0.084 -0.6983 -0.0465  0.3066
19679TIP3    H180528   2.376   5.241   0.021 -0.0950 -0.5801 -0.3456
19679TIP3    H280529   2.464   5.178   0.127 -0.0461 -1.1290 -0.7129
19680TIP3   OH280530   4.598   6.182  16.849  0.1733 -0.7123  0.2697
19680TIP3    H180531   4.591   6.273  16.820  0.4987 -0.3093  1.4431
19680TIP3    H280532   4.676   6.181  16.904  1.0885 -2.0404 -1.0167
19681TIP3   OH280533   2.397   0.359   1.945  0.0069 -0.1205  0.3649
19681TIP3    H180534   2.310   0.320   1.942 -0.6366  1.2498  0.4087
19681TIP3    H280535   2.456   0.291   1.913 -1.3707 -0.2716 -1.9806
19682TIP3   OH280536   1.256   3.271   2.695  0.5733  0.5139  0.0773
19682TIP3    H180537   1.300   3.190   2.670  1.3026  0.6409  0.9259
19682TIP3    H280538   1.246   3.265   2.790  2.5487  2.3320  0.4422
19683TIP3   OH280539   3.352   2.876   0.345 -0.0438 -0.2634  0.1146
19683TIP3    H180540   3.260   2.873   0.319  0.2239 -1.1514 -0.7731
19683TIP3    H280541   3.364   2.799   0.401 -0.0570  0.3642  0.9939
19684TIP3   OH280542   6.265   2.246  13.663  0.6484 -0.1222  0.3687
19684TIP3    H180543   6.326   2.319  13.655 -2.1619  2.4352  1.3221
19684TIP3    H280544   6.268   2.222  13.756 -0.2975  0.4866  0.5625
19685TIP3   OH280545   1.586   0.061   0.381  0.3754  0.3253 -0.6298
19685TIP3    H180546   1.610  -0.024   0.416  0.6866  0.9823  0.8238
19685TIP3    H280547   1.496   0.050   0.351  1.0127 -0.9827 -2.0983
19686TIP3   OH280548   4.727   2.284  12.968 -0.1489 -0.5018  0.2664
19686TIP3    H180549   4.740   2.378  12.979  0.5999 -0.8441  2.4807
19686TIP3    H280550   4.682   2.257  13.048  1.3763 -2.3661  0.5037
19687TIP3   OH280551   3.638   3.394  15.779 -0.6128  0.2007 -0.7220
19687TIP3    H180552   3.707   3.368  15.840 -1.4065 -1.8446 -0.6370
19687TIP3    H280553   3.663   3.482  15.750  1.5472 -0.1448 -0.0184
19688TIP3   OH280554   3.058   6.102   5.353  0.0937  0.5661 -0.4439
19688TIP3    H180555   3.088   6.053   5.430 -1.3693  0.0948 -0.1575
19688TIP3    H280556   3.081   6.193   5.373  0.7107  0.3116  0.0548
19689TIP3   OH280557   2.868   4.697  16.122  0.8014  0.5861  0.2879
19689TIP3    H180558   2.796   4.667  16.066  0.3309  0.0106  1.1872
19689TIP3    H280559   2.946   4.692  16.066 -0.0010  2.1896 -0.9962
19690TIP3   OH280560   1.840   0.423   2.598  0.1084 -0.6543  0.0367
19690TIP3    H180561   1.813   0.332   2.588  1.1907 -0.7785 -2.2206
19690TIP3    H280562   1.759   0.472   2.609 -0.5660 -1.7541 -0.0139
19691TIP3   OH280563   5.110   3.357  10.966 -0.8530  0.4976 -0.0451
19691TIP3    H180564   5.057   3.282  10.938 -1.9668  1.0207  0.6359
19691TIP3    H280565   5.063   3.393  11.042 -0.1140  1.6459 -0.1210
19692TIP3   OH280566   6.666   0.452   4.661  0.1186 -0.0351 -0.9594
19692TIP3    H180567   6.628   0.455   4.573 -0.5737  0.5687 -0.6443
19692TIP3    H280568   6.713   0.535   4.669 -0.3921  0.2152 -0.5118
19693TIP3   OH280569   1.920   5.948   3.529 -0.2380  0.9831  0.5062
19693TIP3    H180570   1.851   5.906   3.477  1.4510 -0.4831 -0.5953
19693TIP3    H280571   1.949   6.021   3.475  1.1730 -0.2435 -0.4345
19694TIP3   OH280572   0.918   5.617  10.967 -0.6032 -0.0098 -0.7741
19694TIP3    H180573   0.997   5.671  10.971 -0.5788 -0.1647  1.0079
19694TIP3    H280574   0.847   5.680  10.952 -0.3985  0.3622 -0.2039
19695TIP3   OH280575   6.015   6.294   0.492  0.4876 -0.5151  0.3740
19695TIP3    H180576   5.986   6.264   0.405 -0.1712  0.6170  0.1983
19695TIP3    H280577   6.087   6.235   0.514  0.8755 -0.6188 -1.0938
19696TIP3   OH280578   3.211   0.245  11.297  0.2714 -0.3862  0.3945
19696TIP3    H180579   3.244   0.230  11.208 -0.2176  0.5235  0.0476
19696TIP3    H280580   3.117   0.233  11.290  0.4621 -2.5960  1.3021
19697TIP3   OH280581   3.104   4.140  11.427  0.6959  0.0225  0.3542
19697TIP3    H180582   3.082   4.097  11.510  0.5995 -0.6392 -0.0092
19697TIP3    H280583   3.139   4.225  11.453 -0.1985  0.1913  1.0378
19698TIP3   OH280584   4.883   2.226   1.191 -0.5369 -0.2943  0.4693
19698TIP3    H180585   4.791   2.250   1.192 -0.8782 -1.5044 -0.7923
19698TIP3    H280586   4.884   2.134   1.218  0.3460 -0.1563  0.9286
19699TIP3   OH280587   0.403   4.014  12.196 -0.4887  0.2380  0.4874
19699TIP3    H180588   0.417   3.942  12.135  1.2428  0.3877  0.6822
19699TIP3    H280589   0.361   4.083  12.145 -2.8307 -1.1602  0.4683
19700TIP3   OH280590   6.241   4.232  16.498  0.1365 -0.4154  0.0543
19700TIP3    H180591   6.230   4.137  16.503  1.2476 -0.5767 -0.3881
19700TIP3    H280592   6.223   4.253  16.406 -0.0563 -0.1951  0.1389
19701TIP3   OH280593   2.502   2.616   3.811  0.0540 -0.1978  0.6362
19701TIP3    H180594   2.439   2.678   3.848 -1.8829 -2.1944  0.7802
19701TIP3    H280595   2.577   2.670   3.787 -2.2950  2.5006 -0.9830
19702TIP3   OH280596   6.786   0.098  15.907 -0.1292 -0.0650 -0.5474
19702TIP3    H180597   6.701   0.061  15.885 -1.2047  1.7074  0.5720
19702TIP3    H280598   6.817   0.139  15.826 -0.8565  0.2940 -0.6428
19703TIP3   OH280599   2.606   3.828   3.137 -0.0490  0.3025  0.2033
19703TIP3    H180600   2.559   3.886   3.077  1.9535  0.7192 -1.0278
19703TIP3    H280601   2.594   3.868   3.223 -1.0005  1.0086 -0.2492
19704TIP3   OH280602   0.923   4.314  15.074  0.4185  0.0145 -0.0945
19704TIP3    H180603   0.909   4.405  15.099 -1.0621  0.0492 -1.0420
19704TIP3    H280604   0.887   4.307  14.986  0.4304 -1.5173  0.0145
19705TIP3   OH280605   1.753   4.830   0.195 -0.1596  0.3050  0.1123
19705TIP3    H180606   1.772   4.800   0.106 -0.1053  0.5922  0.0262
19705TIP3    H280607   1.839   4.833   0.238 -0.0640  1.1653 -0.1395
19706TIP3   OH280608   3.718   3.792  12.522 -0.2443 -0.2520  0.5444
19706TIP3    H180609   3.677   3.728  12.580 -1.1293 -0.1445  0.0447
19706TIP3    H280610   3.700   3.876  12.563 -1.1178 -0.1559 -0.0356
19707TIP3   OH280611   4.389   6.768   2.288 -0.1520  0.1062 -0.2269
19707TIP3    H180612   4.338   6.687   2.288 -0.7316  0.4620  0.6625
19707TIP3    H280613   4.407   6.785   2.381 -1.0073  1.5835 -0.3003
19708TIP3   OH280614   3.480   6.720  14.285  0.9223 -0.0635 -0.5162
19708TIP3    H180615   3.567   6.743  14.316  0.6206 -0.4969  0.6936
19708TIP3    H280616   3.466   6.774  14.207  1.1254  2.1359  0.9395
19709TIP3   OH280617   4.577   6.239   1.257  0.0465  0.3884  0.4295
19709TIP3    H180618   4.615   6.226   1.170  2.0382  1.7532  1.0321
19709TIP3    H280619   4.585   6.154   1.300  0.6669  0.1497 -0.1414
19710TIP3   OH280620   3.296   1.332   2.981 -0.4689  0.8257 -0.2575
19710TIP3    H180621   3.202   1.350   2.976 -1.0005 -1.3161  1.5432
19710TIP3    H280622   3.329   1.396   3.044 -0.7156  1.5838 -0.8921
19711TIP3   OH280623   1.635   2.957   3.361  0.1577  0.0881 -0.3361
19711TIP3    H180624   1.545   2.975   3.334  0.2511  2.1636  0.6561
19711TIP3    H280625   1.630   2.946   3.456  0.8418 -0.5772 -0.3692
19712TIP3   OH280626   3.769   3.354  12.524  0.5134  0.1374  0.2885
19712TIP3    H180627   3.717   3.376  12.447  1.7735 -0.2230 -0.6881
19712TIP3    H280628   3.760   3.429  12.582  0.2094  0.7770 -0.5754
19713TIP3   OH280629   5.211   3.430   2.554  0.5971 -0.4731  0.2486
19713TIP3    H180630   5.125   3.388   2.552 -1.3680  3.3878 -1.0541
19713TIP3    H280631   5.210   3.485   2.632  0.3651  2.4638 -1.7505
19714TIP3   OH280632   2.787   2.674   3.214 -0.0793 -0.0590 -0.3049
19714TIP3    H180633   2.705   2.673   3.264  0.5096 -2.1481  0.7122
19714TIP3    H280634   2.815   2.582   3.214  2.1508  0.6085 -0.8093
19715TIP3   OH280635   2.110   1.938   2.065 -0.2402  0.7879 -0.7547
19715TIP3    H180636   2.080   1.972   2.149  1.0052  0.8415 -0.3251
19715TIP3    H280637   2.038   1.881   2.035 -0.9426  1.2459  0.0503
19716TIP3   OH280638   3.114   2.419  12.458 -0.1924  0.1548  0.1244
19716TIP3    H180639   3.124   2.514  12.457 -0.9337  0.2721  1.8234
19716TIP3    H280640   3.188   2.386  12.407  0.1437  1.6330 -0.3553
19717TIP3   OH280641   6.334   3.162   2.384  0.3549 -0.7199 -0.0485
19717TIP3    H180642   6.288   3.163   2.300 -1.3430 -0.0476  0.8805
19717TIP3    H280643   6.301   3.085   2.429  1.6868 -1.3979 -0.2185
19718TIP3   OH280644   3.812   2.895   0.916  0.3085 -0.2187  0.1768
19718TIP3    H180645   3.744   2.908   0.850 -0.5212 -0.2697  1.0107
19718TIP3    H280646   3.829   2.982   0.950  2.3474  0.1507 -1.6419
19719TIP3   OH280647   0.008   1.959  16.658  0.2399  0.1558 -0.5865
19719TIP3    H180648  -0.051   2.017  16.610 -0.4054  0.3267  0.4056
19719TIP3    H280649   0.047   1.904  16.590 -1.8516 -0.6613 -1.1682
19720TIP3   OH280650   4.503   0.263  14.043  0.0202 -0.0295 -0.0659
19720TIP3    H180651   4.442   0.310  14.100 -1.0644  0.0288 -1.2571
19720TIP3    H280652   4.570   0.327  14.022 -0.4637  0.4484 -0.1779
19721TIP3   OH280653   6.603   0.904   4.626  0.3356  0.8035  0.0082
19721TIP3    H180654   6.584   0.903   4.532 -0.7586  0.5653  0.2231
19721TIP3    H280655   6.533   0.957   4.664  1.6338  2.1729  0.5213
19722TIP3   OH280656   2.947   0.061  12.785 -0.6787 -0.4464 -0.2298
19722TIP3    H180657   2.876   0.122  12.765 -1.8958 -2.5187 -2.3731
19722TIP3    H280658   3.001   0.060  12.706  1.2867  0.4034  1.0421
19723TIP3   OH280659   0.117   3.609   6.073 -0.1451  0.8355  0.3657
19723TIP3    H180660   0.073   3.643   6.151 -0.1865 -2.5431  1.8777
19723TIP3    H280661   0.210   3.627   6.089 -0.2407  1.0356  0.7115
19724TIP3   OH280662   2.488   5.520  13.800 -0.0948  0.2917  0.6221
19724TIP3    H180663   2.491   5.596  13.743 -0.4630  0.4833  0.8612
19724TIP3    H280664   2.455   5.449  13.744 -0.6175  0.5190  0.6433
19725TIP3   OH280665   1.949   4.523  13.814  0.5073  0.5074  0.3511
19725TIP3    H180666   1.931   4.599  13.869  1.0131  0.7477  0.1832
19725TIP3    H280667   2.014   4.472  13.864  0.6217  0.4912  0.1850
19726TIP3   OH280668   0.125   1.100  17.178 -0.3609  0.3883  0.0101
19726TIP3    H180669   0.130   1.195  17.174 -0.1333  0.3870  0.2328
19726TIP3    H280670   0.131   1.079  17.271 -1.7931  0.2301  0.0790
19727TIP3   OH280671   3.263   0.840   3.086  0.2749 -0.2650 -0.1227
19727TIP3    H180672   3.291   0.813   2.999 -0.1344 -0.6188 -0.1478
19727TIP3    H280673   3.335   0.893   3.119  0.8668 -0.9480 -0.2904
19728TIP3   OH280674   2.948   2.847   1.609 -0.4077 -0.2707 -0.4704
19728TIP3    H180675   2.941   2.810   1.697  1.6196  1.2220  0.3597
19728TIP3    H280676   2.863   2.829   1.569 -1.1136 -1.5958  1.5393
19729TIP3   OH280677   1.332   2.530  11.655 -0.0429 -0.2160  0.1003
19729TIP3    H180678   1.256   2.533  11.712  0.7275 -0.9904  1.1740
19729TIP3    H280679   1.296   2.517  11.567 -1.3741  3.0925  0.0849
19730TIP3   OH280680   5.697   3.409  10.546  0.0283  0.0135 -0.2449
19730TIP3    H180681   5.723   3.474  10.611  0.3005  0.4353 -0.7640
19730TIP3    H280682   5.773   3.352  10.539  0.4971  0.7291 -1.1228
19731TIP3   OH280683   1.581   1.167   3.365  0.3859 -0.4726  0.5550
19731TIP3    H180684   1.520   1.218   3.419  0.4756  0.7299 -0.4563
19731TIP3    H280685   1.667   1.201   3.387  0.4345 -0.0720 -0.2224
19732TIP3   OH280686   2.841   2.824   3.477  0.2887 -0.3876  0.2160
19732TIP3    H180687   2.890   2.775   3.411  2.2975 -0.2963  1.5889
19732TIP3    H280688   2.791   2.889   3.428  1.0184 -0.9424 -1.2754
19733TIP3   OH280689   3.801   3.727  11.258 -0.6606 -0.1215  0.3330
19733TIP3    H180690   3.881   3.703  11.305 -0.0232  0.4028 -0.4685
19733TIP3    H280691   3.743   3.652  11.269 -0.6514  0.1352  2.2585
19734TIP3   OH280692   1.293   4.339  12.983 -0.1361 -0.1428 -0.1921
19734TIP3    H180693   1.292   4.301  13.071 -0.5185 -0.4657 -0.3317
19734TIP3    H280694   1.231   4.411  12.987  0.6898  0.5572  0.1125
19735TIP3   OH280695   2.271   1.890  13.876 -0.5793 -0.3475  0.0786
19735TIP3    H180696   2.349   1.879  13.822 -1.4077 -0.3179 -1.1666
19735TIP3    H280697   2.239   1.978  13.854 -0.2092  0.1714  1.5921
19736TIP3   OH280698   4.420   4.143  17.207 -0.2702 -0.2063 -0.6342
19736TIP3    H180699   4.477   4.200  17.154  0.2267 -0.0819  0.0278
19736TIP3    H280700   4.465   4.136  17.291 -1.3680  0.1062 -0.0156
19737TIP3   OH280701   0.130   3.321   5.315 -1.0052 -0.1029 -0.7093
19737TIP3    H180702   0.204   3.261   5.323  0.3107  1.3941 -1.2393
19737TIP3    H280703   0.151   3.374   5.238 -2.5794  0.4142 -0.7883
19738TIP3   OH280704   4.059   5.217  12.885 -0.4762  0.6049  0.0337
19738TIP3    H180705   4.059   5.305  12.847  0.4742  0.8582  0.5916
19738TIP3    H280706   4.152   5.197  12.898 -0.6690 -0.6148 -0.3755
19739TIP3   OH280707   0.127   5.225   2.858  0.1252  0.6272 -0.1117
19739TIP3    H180708   0.070   5.227   2.781 -0.0273 -0.0327 -0.0177
19739TIP3    H280709   0.144   5.317   2.877 -0.1121  0.8041 -0.7315
19740TIP3   OH280710   0.214   2.909   0.309 -0.1847  0.3250  0.2532
19740TIP3    H180711   0.176   2.832   0.268 -2.3208  1.8975 -0.7757
19740TIP3    H280712   0.187   2.903   0.401 -1.3979  0.4812 -0.0855
19741TIP3   OH280713   6.677   3.169   5.078  0.1288  0.1045  0.6985
19741TIP3    H180714   6.617   3.152   5.005  0.2818 -1.5187  0.9473
19741TIP3    H280715   6.762   3.185   5.036  0.3398 -1.3911  0.5314
19742TIP3   OH280716   0.089   0.809  15.503  0.5633 -0.0991  0.0550
19742TIP3    H180717   0.056   0.893  15.469  3.1270  0.2833 -1.6295
19742TIP3    H280718   0.033   0.743  15.462 -0.0357  0.6670 -0.3818
19743TIP3   OH280719   2.874   1.401   6.023  0.4465 -0.0381 -0.0433
19743TIP3    H180720   2.901   1.379   6.112  0.7274  2.1274  0.4515
19743TIP3    H280721   2.937   1.358   5.967  2.2137  1.1916  0.9482
19744TIP3   OH280722   5.056   4.467  13.733  0.3964  0.8870  0.3486
19744TIP3    H180723   5.011   4.465  13.818  0.0542  0.3920  0.1588
19744TIP3    H280724   5.127   4.529  13.745  0.1110  1.1118  0.8844
19745TIP3   OH280725   5.566   1.239  16.716 -0.0514  0.0482 -0.2253
19745TIP3    H180726   5.536   1.169  16.659 -0.5430  0.1908 -0.1400
19745TIP3    H280727   5.660   1.245  16.699  0.6275 -2.7249  2.0317
19746TIP3   OH280728   4.608   1.364  15.813  0.3948 -0.4464 -0.2837
19746TIP3    H180729   4.681   1.305  15.792  0.4677 -0.5568  0.2553
19746TIP3    H280730   4.635   1.449  15.779  0.8395 -0.4579  0.0277
19747TIP3   OH280731   2.788   2.978  16.662  0.0724 -0.1618  0.0859
19747TIP3    H180732   2.730   3.009  16.732 -0.6080 -0.2163 -0.4531
19747TIP3    H280733   2.729   2.952  16.592  0.7958  0.7960 -0.8892
19748TIP3   OH280734   0.708   5.883  12.069  0.6975 -0.3069  0.2888
19748TIP3    H180735   0.717   5.814  12.003  0.9051  1.4868 -1.6105
19748TIP3    H280736   0.754   5.957  12.031 -0.4078  1.1912  1.8440
19749TIP3   OH280737   6.233   3.982  12.523  0.3366 -0.0614 -0.6211
19749TIP3    H180738   6.257   3.911  12.463  2.4552 -0.8455  1.1031
19749TIP3    H280739   6.297   4.051  12.505 -0.1237  0.3939 -0.5058
19750TIP3   OH280740   4.283   3.013  11.317 -0.0155 -0.0530  0.0087
19750TIP3    H180741   4.244   3.011  11.230  1.0492 -0.0361 -0.4755
19750TIP3    H280742   4.307   2.922  11.335 -1.4154 -0.2800  0.8416
19751TIP3   OH280743   4.271   2.963   3.578 -0.0939  0.3794  0.6173
19751TIP3    H180744   4.182   2.989   3.600 -0.7843 -1.5925  0.2412
19751TIP3    H280745   4.262   2.877   3.537  1.9377  0.3537  0.1544
19752TIP3   OH280746   0.488   1.872   2.906 -0.2146  0.4100  0.2559
19752TIP3    H180747   0.429   1.899   2.977 -0.6056 -0.0230  0.0943
19752TIP3    H280748   0.444   1.901   2.826 -0.0387  0.4052  0.1580
19753TIP3   OH280749   6.181   3.299   3.911 -0.1883  0.0626  0.8401
19753TIP3    H180750   6.227   3.216   3.908 -0.0990  0.1159  0.7645
19753TIP3    H280751   6.231   3.358   3.855 -0.2128  0.1874  0.9469
19754TIP3   OH280752   4.645   5.277  12.526  0.5009  0.6127 -0.6177
19754TIP3    H180753   4.717   5.322  12.569 -0.4263  1.2545  0.3069
19754TIP3    H280754   4.597   5.346  12.480 -0.2231  0.4055 -0.1957
19755TIP3   OH280755   2.502   2.084  13.357 -0.4468  0.3425 -0.2685
19755TIP3    H180756   2.509   2.091  13.452  1.7407  1.5798 -0.5027
19755TIP3    H280757   2.431   2.021  13.343 -0.8981  0.2722  2.1726
19756TIP3   OH280758   0.439   4.339  15.137 -0.0529  0.1046 -0.0359
19756TIP3    H180759   0.398   4.367  15.055  0.7937  0.1959 -0.4373
19756TIP3    H280760   0.372   4.355  15.204 -1.2664 -1.2736 -0.8808
19757TIP3   OH280761   4.923   0.143   4.562 -0.4977 -0.4619 -0.0033
19757TIP3    H180762   4.968   0.210   4.614 -0.4306 -0.0862 -0.5319
19757TIP3    H280763   4.894   0.190   4.483 -2.5625 -0.4861  0.7100
19758TIP3   OH280764   2.444   1.459  11.988 -0.3480 -0.1570 -0.1163
19758TIP3    H180765   2.488   1.427  11.909 -0.5298  0.5663 -0.5159
19758TIP3    H280766   2.430   1.552  11.972 -0.7399 -0.0854  0.6069
19759TIP3   OH280767   1.202   4.701   0.201  0.4507  0.2458  0.2907
19759TIP3    H180768   1.257   4.632   0.165  0.2146  0.3354 -0.2569
19759TIP3    H280769   1.238   4.719   0.287  1.7556  0.8504 -0.3771
19760TIP3   OH280770   4.651   0.283  14.340  0.1079  0.2332  0.1918
19760TIP3    H180771   4.640   0.345  14.413 -2.0275  0.3239 -0.1741
19760TIP3    H280772   4.644   0.337  14.261 -3.3054 -0.5934 -0.1731
19761TIP3   OH280773   3.335   1.256  13.648  0.1380 -0.2536  0.0311
19761TIP3    H180774   3.342   1.161  13.636  1.6706  0.1111 -2.2720
19761TIP3    H280775   3.342   1.292  13.560  0.5019  2.0516  0.9719
19762TIP3   OH280776   5.686   2.812  13.526  0.2955  0.1076  0.2103
19762TIP3    H180777   5.711   2.822  13.617  2.1373 -2.7503  0.0688
19762TIP3    H280778   5.761   2.844  13.476  0.0389 -0.0466 -0.2884
19763TIP3   OH280779   1.758   3.368  16.696 -0.0913 -0.6267 -0.1696
19763TIP3    H180780   1.686   3.310  16.722 -1.0517  0.0990 -1.1588
19763TIP3    H280781   1.722   3.457  16.705  0.5449 -0.2708 -1.0450
19764TIP3   OH280782   5.011   1.663  13.428  0.1353  0.1926  0.0546
19764TIP3    H180783   5.067   1.604  13.379 -0.0364  1.2815 -1.4922
19764TIP3    H280784   4.923   1.649  13.392  0.0253  1.0724 -0.0332
19765TIP3   OH280785   5.825   1.331  13.053 -0.3821  0.3249  0.0400
19765TIP3    H180786   5.844   1.257  13.111 -1.2860  1.0273  1.2511
19765TIP3    H280787   5.850   1.408  13.104  2.1552  0.8098 -1.8353
19766TIP3   OH280788   5.762   4.280  11.626  0.4068  0.3655  0.2130
19766TIP3    H180789   5.750   4.279  11.531 -0.0963 -0.8125  0.2906
19766TIP3    H280790   5.708   4.208  11.658  2.8515 -1.1131  1.1311
19767TIP3   OH280791   4.871   0.060  14.854 -0.7938 -0.0355 -0.2296
19767TIP3    H180792   4.929   0.092  14.923 -0.7413  0.4467 -0.4905
19767TIP3    H280793   4.869  -0.035  14.866 -1.5142  0.1148  1.0093
19768TIP3   OH280794   4.152   2.337  12.989  0.4723 -0.5694 -0.0054
19768TIP3    H180795   4.086   2.390  12.943 -0.3248 -1.0894  0.5195
19768TIP3    H280796   4.224   2.330  12.927 -0.5139 -1.0971 -1.1047
19769TIP3   OH280797   6.445   6.619   4.961 -0.1548  0.4803 -0.1634
19769TIP3    H180798   6.462   6.597   4.869 -0.2631 -0.3952  0.0206
19769TIP3    H280799   6.361   6.577   4.980 -0.7071  1.6462  0.0021
19770TIP3   OH280800   2.532   4.265   2.298  0.1409  0.6534  0.0093
19770TIP3    H180801   2.594   4.279   2.370  0.0195  2.7893 -0.2694
19770TIP3    H280802   2.585   4.266   2.219  0.1911 -1.0924 -0.0065
19771TIP3   OH280803   2.839   4.609   2.744  0.0148  0.5975  0.5209
19771TIP3    H180804   2.757   4.560   2.733  0.7988 -0.4847 -0.5126
19771TIP3    H280805   2.826   4.689   2.694  0.3580 -0.4990 -1.3399
19772TIP3   OH280806   4.941   3.540  11.145  0.6297 -0.0472  0.2515
19772TIP3    H180807   4.851   3.509  11.153  0.9937 -1.0679  0.4539
19772TIP3    H280808   4.945   3.582  11.059 -0.4952  1.5440  0.9483
19773TIP3   OH280809   4.888   1.650  15.591 -0.3667 -0.8224  0.3292
19773TIP3    H180810   4.952   1.579  15.597  1.9813  1.2085  0.3540
19773TIP3    H280811   4.873   1.676  15.682  3.1022  2.3096  0.1578
19774TIP3   OH280812   1.688   1.665  14.295 -0.0184 -0.1152 -0.0583
19774TIP3    H180813   1.603   1.629  14.321  0.1872 -0.5872 -0.0146
19774TIP3    H280814   1.714   1.612  14.220 -0.3155  0.8326 -0.8245
19775TIP3   OH280815   3.663   2.563   4.510  0.4754  0.9602 -0.0615
19775TIP3    H180816   3.752   2.582   4.539  0.6429 -2.9320  2.3665
19775TIP3    H280817   3.639   2.482   4.556 -4.0049  1.4179 -1.3027
19776TIP3   OH280818   3.938   4.179  15.376 -0.0696  0.0886  0.4200
19776TIP3    H180819   3.978   4.240  15.439 -1.2578  0.4677  0.8211
19776TIP3    H280820   3.844   4.184  15.394 -0.3698 -0.2831 -0.9583
19777TIP3   OH280821   4.956   4.258   4.931 -0.5308 -0.2087 -0.1549
19777TIP3    H180822   4.976   4.337   4.881  0.5253 -0.3492  0.0475
19777TIP3    H280823   5.041   4.221   4.953 -1.0030 -0.6337  0.9871
19778TIP3   OH280824   0.528   0.224   4.712 -0.2319  0.3618  0.1617
19778TIP3    H180825   0.586   0.194   4.782  0.3964  2.1077  0.4266
19778TIP3    H280826   0.545   0.165   4.639  0.8425 -0.0158  0.7045
19779TIP3   OH280827   0.928   4.504   2.385 -0.3776 -0.1222 -0.2532
19779TIP3    H180828   1.007   4.451   2.374  0.5549  0.9316  1.1260
19779TIP3    H280829   0.859   4.453   2.343  1.1040 -0.8694 -1.8393
19780TIP3   OH280830   3.052   1.252   2.022 -0.3128  0.1061 -0.1244
19780TIP3    H180831   2.960   1.242   2.050 -0.2801  0.2354  0.0355
19780TIP3    H280832   3.059   1.199   1.943 -0.8364  1.0607 -0.8134
19781TIP3   OH280833   2.552   4.168  15.320  0.1629 -0.7783 -0.2891
19781TIP3    H180834   2.514   4.084  15.347  0.0130 -0.7069 -0.2803
19781TIP3    H280835   2.579   4.209  15.402 -1.1627 -0.1320 -0.1634
19782TIP3   OH280836   5.793   1.911  13.898  0.7368  0.0156 -0.1348
19782TIP3    H180837   5.843   1.882  13.974  1.6155 -0.6837 -0.9642
19782TIP3    H280838   5.841   1.875  13.823  0.8285  2.0730 -1.0968
19783TIP3   OH280839   4.836   0.511   3.589 -0.4118 -0.0579  0.2122
19783TIP3    H180840   4.828   0.602   3.562 -0.5010 -0.3995 -0.9568
19783TIP3    H280841   4.775   0.463   3.532  0.2592 -0.9512  0.2182
19784TIP3   OH280842   6.511   3.242   3.765  0.0034 -0.2050 -0.3185
19784TIP3    H180843   6.583   3.289   3.806 -1.9040  0.9900  1.7816
19784TIP3    H280844   6.507   3.277   3.676  2.3375 -0.7100 -0.6343
19785TIP3   OH280845   3.490   1.437  15.384  0.5996  0.5515 -0.4646
19785TIP3    H180846   3.407   1.466  15.346  0.3760  1.0159  0.3452
19785TIP3    H280847   3.524   1.515  15.428  1.2759  0.2580 -0.4681
19786TIP3   OH280848   5.318   5.920  13.393  0.2242 -0.6892 -0.0594
19786TIP3    H180849   5.331   6.014  13.405 -0.1656 -0.6691  0.2294
19786TIP3    H280850   5.236   5.913  13.344  0.1273 -0.8845  0.1272
19787TIP3   OH280851   5.311   4.135   2.625  0.6642  0.5690 -0.0988
19787TIP3    H180852   5.253   4.120   2.550 -0.4217 -0.4354  0.9105
19787TIP3    H280853   5.399   4.132   2.589  0.1383  0.6388 -1.4205
19788TIP3   OH280854   4.837   0.803  13.586 -0.4049  0.2727  0.2136
19788TIP3    H180855   4.767   0.843  13.637  0.6630  0.7599  1.3189
19788TIP3    H280856   4.851   0.718  13.627 -1.0397 -0.2594 -0.6515
19789TIP3   OH280857   1.688   4.236   0.402 -0.3213 -0.1568 -0.6105
19789TIP3    H180858   1.709   4.223   0.495 -0.3892 -0.0105 -0.5748
19789TIP3    H280859   1.598   4.269   0.402 -0.9286 -1.7631 -0.8146
19790TIP3   OH280860   0.437   4.326  14.297  0.1094  0.4208  0.6263
19790TIP3    H180861   0.496   4.373  14.238  1.0975 -1.5403  0.0152
19790TIP3    H280862   0.431   4.383  14.374  2.0219  1.1199  0.2880
19791TIP3   OH280863   1.336   3.365  12.167 -0.2008 -0.1248 -0.4271
19791TIP3    H180864   1.296   3.451  12.163 -0.3722 -0.2261 -0.9095
19791TIP3    H280865   1.310   3.322  12.085  0.0384 -0.5642 -0.2757
19792TIP3   OH280866   4.556   1.236  16.112  0.4519  0.6959 -0.0045
19792TIP3    H180867   4.534   1.319  16.070  0.1123  1.2415  1.2397
19792TIP3    H280868   4.616   1.260  16.182  0.4626 -0.1272  0.2667
19793TIP3   OH280869   5.075   3.029   4.597 -0.2838 -0.0683  0.4956
19793TIP3    H180870   5.001   3.026   4.537  2.6149  1.4452 -3.3787
19793TIP3    H280871   5.075   3.119   4.631 -0.7944 -0.3551  1.2545
19794TIP3   OH280872   3.193   2.124  13.872  0.1393 -0.1164 -0.3145
19794TIP3    H180873   3.196   2.077  13.788 -0.6988  1.4850 -1.2708
19794TIP3    H280874   3.145   2.204  13.852  1.0783  0.8866  1.4100
19795TIP3   OH280875   0.292   6.023  13.908  0.3565 -0.5126 -0.2228
19795TIP3    H180876   0.257   6.028  13.819 -0.0369 -2.1893 -0.1769
19795TIP3    H280877   0.231   5.966  13.955 -0.0699  1.2312  1.4457
19796TIP3   OH280878   5.259   0.698  17.277  0.3285  0.2234  0.0864
19796TIP3    H180879   5.294   0.741  17.199 -1.4911  0.1677 -0.7777
19796TIP3    H280880   5.327   0.710  17.343  1.2902  1.4930 -1.1021
19797TIP3   OH280881   2.608   3.380  15.422  0.3176 -0.4368 -0.2446
19797TIP3    H180882   2.681   3.353  15.365 -0.0229 -0.6687 -0.5771
19797TIP3    H280883   2.530   3.369  15.367  0.1248  0.7746 -0.2213
19798TIP3   OH280884   5.435   2.367   2.383 -0.8949  0.7780 -0.0735
19798TIP3    H180885   5.530   2.356   2.386 -0.7271  2.4364  1.0684
19798TIP3    H280886   5.419   2.454   2.420 -3.0296 -0.4382  2.0437
19799TIP3   OH280887   4.415   5.767   0.388 -0.3955  0.2531 -0.6321
19799TIP3    H180888   4.473   5.735   0.319 -0.3406  0.2896 -0.6022
19799TIP3    H280889   4.359   5.832   0.345  0.6221  1.3646 -0.3136
19800TIP3   OH280890   0.716   6.411   6.034 -0.7679 -0.2546  0.6880
19800TIP3    H180891   0.796   6.366   6.005 -0.9637 -1.3934  1.8985
19800TIP3    H280892   0.679   6.448   5.953  0.9550  0.2656  0.1116
19801TIP3   OH280893   0.787   3.765  11.294  0.8461 -0.0142  0.3812
19801TIP3    H180894   0.837   3.801  11.367 -0.8347 -0.2914  1.7153
19801TIP3    H280895   0.850   3.713  11.245  2.0369  0.2446  1.6076
19802TIP3   OH280896   3.966   1.085   2.753 -0.0994 -0.1232  0.8357
19802TIP3    H180897   3.987   1.084   2.659 -1.8555  0.2310  0.4272
19802TIP3    H280898   3.972   1.178   2.777 -1.3698  0.0111  0.6637
19803TIP3   OH280899   1.339   0.938   1.091  0.5837 -0.3806 -0.1015
19803TIP3    H180900   1.321   0.872   1.158  0.1165  0.5079  0.6609
19803TIP3    H280901   1.262   0.993   1.090  0.7940 -0.0841 -1.0386
19804TIP3   OH280902   5.019   1.058   3.752 -0.0753 -0.5099  0.1503
19804TIP3    H180903   5.035   1.033   3.661  1.3871 -0.8498  0.4995
19804TIP3    H280904   5.011   0.975   3.798  0.9514 -0.3460  0.6341
19805TIP3   OH280905   0.832   2.987   2.434  0.0432  0.4156 -0.3921
19805TIP3    H180906   0.863   3.016   2.348  2.4928 -0.3607  0.1719
19805TIP3    H280907   0.835   2.891   2.430  1.0989  0.3721  0.8339
19806TIP3   OH280908   2.878   5.025  17.022  0.4374  0.4358 -0.3471
19806TIP3    H180909   2.797   4.985  17.053  1.4279 -1.2661  0.1028
19806TIP3    H280910   2.862   5.043  16.929 -0.1859 -0.5776 -0.4395
19807TIP3   OH280911   0.351   3.229  14.530 -0.6370  0.4843  0.5506
19807TIP3    H180912   0.344   3.254  14.437  0.5786  2.6667  1.0369
19807TIP3    H280913   0.409   3.153  14.530  1.1916  1.8621 -0.2623
19808TIP3   OH280914   1.875   0.561   2.355 -0.2215  0.0155 -0.0202
19808TIP3    H180915   1.871   0.509   2.435  0.1323  0.2924  0.1769
19808TIP3    H280916   1.840   0.646   2.379  0.5455  0.3232  0.0188
19809TIP3   OH280917   6.544   5.522   0.657 -0.5940  0.2946 -0.3247
19809TIP3    H180918   6.517   5.481   0.575  2.4202 -1.8955 -0.3003
19809TIP3    H280919   6.503   5.468   0.725  0.0301 -0.1946 -0.3390
19810TIP3   OH280920   6.429   1.393   0.561  0.1267  0.4256  0.1506
19810TIP3    H180921   6.387   1.318   0.519  1.6467 -0.9477  0.9973
19810TIP3    H280922   6.368   1.420   0.629 -0.3484 -0.1568 -0.0405
19811TIP3   OH280923   1.190   3.600  12.297 -0.3646  0.3892  0.2389
19811TIP3    H180924   1.130   3.578  12.368 -0.6079 -0.2014 -0.1475
19811TIP3    H280925   1.259   3.652  12.339 -0.2404 -0.3832  1.0099
19812TIP3   OH280926   2.281   1.911  15.611 -0.4071  0.0957 -0.0852
19812TIP3    H180927   2.246   1.872  15.531  0.4756  0.1342 -0.4948
19812TIP3    H280928   2.360   1.861  15.629 -0.5783  0.1190  0.7410
19813TIP3   OH280929   0.753   5.245  14.546 -0.1671  0.0523  0.2870
19813TIP3    H180930   0.740   5.164  14.497  0.5258  0.7503 -1.0901
19813TIP3    H280931   0.839   5.276  14.518 -0.5856  1.4519  0.5188
19814TIP3   OH280932   1.666   5.561   4.138 -0.8747  0.0743  0.1950
19814TIP3    H180933   1.628   5.513   4.211  1.6328 -0.6940  1.0404
19814TIP3    H280934   1.712   5.495   4.086 -0.9238  0.9301 -0.9757
19815TIP3   OH280935   3.533   2.289  11.072 -0.6829 -0.1206  0.7050
19815TIP3    H180936   3.535   2.195  11.090  0.2252 -0.0422  1.0290
19815TIP3    H280937   3.622   2.318  11.087 -0.9033  0.7510  0.3412
19816TIP3   OH280938   4.889   1.029  15.024 -0.5667 -0.3941  0.2804
19816TIP3    H180939   4.859   1.111  14.985 -0.5944 -0.1060  0.9028
19816TIP3    H280940   4.906   0.972  14.950  0.0595  0.3858 -0.1760
19817TIP3   OH280941   2.699   5.133  11.865  0.1363  0.3258 -0.0927
19817TIP3    H180942   2.616   5.181  11.863 -0.2037 -0.1033  2.1505
19817TIP3    H280943   2.674   5.043  11.887  1.1441  0.0857  0.0907
19818TIP3   OH280944   5.101   2.623   3.291  0.4600  0.4210  0.2858
19818TIP3    H180945   5.087   2.674   3.371  0.2070 -1.2044  1.2880
19818TIP3    H280946   5.018   2.629   3.245  0.1947  0.3129  0.7457
19819TIP3   OH280947   5.154   4.426   0.017 -0.6499  0.1444  0.1611
19819TIP3    H180948   5.074   4.477   0.021 -0.9383 -0.1536 -1.3024
19819TIP3    H280949   5.221   4.483   0.055 -1.1565  1.2352 -0.5383
19820TIP3   OH280950   1.856   3.274   6.512 -0.0249 -0.0868 -0.3195
19820TIP3    H180951   1.797   3.273   6.587 -1.6813  3.6753 -1.4663
19820TIP3    H280952   1.806   3.232   6.442  1.1425 -2.6768  0.3361
19821TIP3   OH280953   0.546   2.483  17.112 -0.1829  0.7019 -0.4752
19821TIP3    H180954   0.608   2.484  17.039  0.1028 -2.4857 -0.3660
19821TIP3    H280955   0.483   2.414  17.088 -3.3045  3.3758 -0.2646
19822TIP3   OH280956   2.567   0.216  15.756 -0.6067 -0.0120 -0.3718
19822TIP3    H180957   2.497   0.196  15.817  0.0646 -2.8207 -0.4789
19822TIP3    H280958   2.522   0.253  15.679 -1.5507  2.2962  1.2326
19823TIP3   OH280959   0.285   0.378   4.607  0.3758  0.0653  0.3590
19823TIP3    H180960   0.333   0.321   4.668  0.3549 -1.4309 -0.9690
19823TIP3    H280961   0.313   0.348   4.521 -1.5667  0.4034 -0.4000
19824TIP3   OH280962   6.176   1.157  14.646  0.3951 -0.0474 -0.1976
19824TIP3    H180963   6.158   1.242  14.685  0.1450  0.1192 -0.6723
19824TIP3    H280964   6.120   1.096  14.694 -0.3658  0.2481 -0.6808
19825TIP3   OH280965   3.714   2.490   2.979  0.1688 -0.5295  0.0371
19825TIP3    H180966   3.701   2.514   2.887 -1.3865  1.4718  0.7449
19825TIP3    H280967   3.775   2.416   2.976  2.1014  1.0884 -2.4596
19826TIP3   OH280968   3.843   5.770  13.110  0.1239 -0.3553 -0.7097
19826TIP3    H180969   3.894   5.820  13.174  0.9859  0.7457 -2.2309
19826TIP3    H280970   3.752   5.796  13.127  0.1915 -1.2268  1.0537
19827TIP3   OH280971   6.650   3.438  12.076  0.1403 -0.7940  0.2134
19827TIP3    H180972   6.666   3.368  12.012 -0.7394 -0.3277 -0.5313
19827TIP3    H280973   6.568   3.413  12.118  1.1636 -1.5552  1.8001
19828TIP3   OH280974   3.960   2.541  16.162 -0.9773  0.2230 -0.4005
19828TIP3    H180975   3.897   2.538  16.234 -0.6355  0.5871 -0.0784
19828TIP3    H280976   4.040   2.575  16.202 -0.1500 -1.5849 -0.4761
19829TIP3   OH280977   3.990   1.404   5.530 -0.3817  0.0298  0.0194
19829TIP3    H180978   4.084   1.391   5.522 -0.2616  1.2834 -0.7409
19829TIP3    H280979   3.952   1.317   5.514  0.3687  0.4385 -4.9091
19830TIP3   OH280980   5.088   5.425   6.361  0.3114 -0.2767  0.5323
19830TIP3    H180981   5.102   5.514   6.393  0.4820  0.2039 -0.8446
19830TIP3    H280982   4.994   5.418   6.349  0.3342 -0.1603  0.2885
19831TIP3   OH280983   6.353   5.373  13.418 -0.3498  0.2541  0.1470
19831TIP3    H180984   6.437   5.335  13.395 -0.1812  0.8850 -0.2857
19831TIP3    H280985   6.289   5.327  13.363  0.0325  1.6673 -1.5026
19832TIP3   OH280986   5.384   1.775  15.514 -0.3592  0.0323 -0.6798
19832TIP3    H180987   5.440   1.839  15.557 -1.3600  0.3886  0.1159
19832TIP3    H280988   5.440   1.698  15.503  0.4914  0.6215 -0.5401
19833TIP3   OH280989   0.186   2.027   5.408 -0.0028  0.1369  0.1658
19833TIP3    H180990   0.148   2.112   5.385 -0.3544 -0.6542 -2.3688
19833TIP3    H280991   0.273   2.048   5.441 -0.6034  1.5683  0.9081
19834TIP3   OH280992   4.110   5.483   0.247 -0.1503 -0.8873 -0.3289
19834TIP3    H180993   4.168   5.509   0.175 -1.7804 -0.1218 -1.3756
19834TIP3    H280994   4.156   5.512   0.326  0.1022  1.2724 -1.2373
19835TIP3   OH280995   6.304   1.065  16.090 -0.4475  0.5619  0.1385
19835TIP3    H180996   6.391   1.044  16.057  0.2711  3.2788  0.1523
19835TIP3    H280997   6.318   1.144  16.144 -2.8662  0.8671  0.3603
19836TIP3   OH280998   0.405   5.655  12.722  0.7101  0.0675 -0.5005
19836TIP3    H180999   0.391   5.692  12.634  1.0035 -0.3306 -0.7194
19836TIP3    H281000   0.361   5.570  12.719 -0.4896  0.6507  0.1995
19837TIP3   OH281001   5.509   4.279  16.302  0.5357  0.3769 -0.2253
19837TIP3    H181002   5.555   4.322  16.229  0.5762 -1.4098 -1.2961
19837TIP3    H281003   5.573   4.217  16.337  0.0019  0.1485  0.3617
19838TIP3   OH281004   5.523   2.877  16.114  0.3541 -0.1185  0.3216
19838TIP3    H181005   5.448   2.825  16.087  1.0251 -0.7576 -0.3565
19838TIP3    H281006   5.576   2.818  16.168 -0.3304  0.7646  1.9793
19839TIP3   OH281007   1.377   4.165   3.003  0.1741 -0.4636 -0.3283
19839TIP3    H181008   1.342   4.175   3.092 -0.3802 -0.8066 -0.5016
19839TIP3    H281009   1.463   4.126   3.015  0.9292  1.3039  0.1629
19840TIP3   OH281010   3.529   5.440  11.376  0.0873 -0.4754 -0.0074
19840TIP3    H181011   3.575   5.524  11.377  0.0644 -0.4661  0.3479
19840TIP3    H281012   3.598   5.375  11.390  0.0349 -0.4816  0.2245
19841TIP3   OH281013   2.915   3.942  17.138 -0.0517  0.3898 -0.3765
19841TIP3    H181014   2.847   4.001  17.105 -0.4342 -0.1376 -0.5511
19841TIP3    H281015   2.992   3.997  17.148  0.0922  0.5606 -2.2108
19842TIP3   OH281016   4.804   1.177  15.734 -0.3091  0.4667  0.9809
19842TIP3    H181017   4.892   1.205  15.759  0.0153 -0.5663  1.0247
19842TIP3    H281018   4.812   1.150  15.643 -0.3109 -0.7213  1.3218
19843TIP3   OH281019   1.363   1.590   0.449 -0.0073  0.5653  0.1655
19843TIP3    H181020   1.324   1.518   0.399  0.4513 -0.0713  0.7151
19843TIP3    H281021   1.301   1.662   0.440  0.1985  0.5599 -1.5737
19844TIP3   OH281022   6.164   5.701   1.640  0.0208  0.3873  0.5527
19844TIP3    H181023   6.232   5.767   1.629  0.1262  0.0814 -0.6879
19844TIP3    H281024   6.208   5.618   1.624 -1.1613  0.3383 -2.8194
19845TIP3   OH281025   2.736   1.658  14.940  0.1950 -0.3118 -0.3172
19845TIP3    H181026   2.758   1.650  15.033  0.4218 -3.2313 -0.5839
19845TIP3    H281027   2.791   1.730  14.909  0.6290  0.2426  1.6359
19846TIP3   OH281028   5.332   1.923  14.199  0.3363 -0.4986 -0.3211
19846TIP3    H181029   5.278   1.990  14.158  0.6720 -1.4078 -2.3054
19846TIP3    H281030   5.351   1.957  14.286 -1.3881  0.9335 -0.4854
19847TIP3   OH281031   3.956   1.069  16.510 -0.5138 -0.3950 -0.2413
19847TIP3    H181032   3.961   1.001  16.443  1.3969 -0.1985 -0.3486
19847TIP3    H281033   3.966   1.151  16.462  1.2645 -0.2720  0.2770
19848TIP3   OH281034   1.177   1.334  12.639  0.6588 -0.0080 -0.3754
19848TIP3    H181035   1.245   1.346  12.705  0.4464  2.5886 -0.5547
19848TIP3    H281036   1.206   1.389  12.566 -1.5079  0.9806 -0.5293
19849TIP3   OH281037   2.955   3.231  13.989 -0.3117 -0.3444  0.6004
19849TIP3    H181038   2.913   3.172  14.051 -0.3167 -1.2917 -0.2782
19849TIP3    H281039   2.956   3.182  13.907 -0.0355  0.7687 -0.0733
19850TIP3   OH281040   0.466   1.275  11.678  0.1466  0.7875  0.5118
19850TIP3    H181041   0.397   1.331  11.641 -0.0662  0.1345 -0.0856
19850TIP3    H281042   0.432   1.186  11.668  1.7284  0.3541 -1.1428
19851TIP3   OH281043   2.377   3.798   3.481 -0.1842  0.7484  0.8878
19851TIP3    H181044   2.386   3.725   3.421  0.9764  1.7871 -0.2397
19851TIP3    H281045   2.284   3.800   3.504  0.1124 -2.3329  2.5786
19852TIP3   OH281046   4.144   5.780  15.160  0.2608 -0.0823 -0.1962
19852TIP3    H181047   4.142   5.710  15.226 -2.0686 -0.8052 -0.9798
19852TIP3    H281048   4.143   5.734  15.076 -0.5739  0.8856 -0.7274
19853TIP3   OH281049   2.943   6.191   5.993  0.3392  0.3803  0.0954
19853TIP3    H181050   2.892   6.271   6.009 -0.3780  0.4180 -2.1346
19853TIP3    H281051   3.032   6.214   6.020  0.8268  3.0768 -3.4161
19854TIP3   OH281052   4.822   6.347   4.757  0.0408  0.0984 -0.0066
19854TIP3    H181053   4.742   6.336   4.706  0.9775  0.4751 -1.6107
19854TIP3    H281054   4.800   6.411   4.824 -0.9163  0.4519 -0.6402
19855TIP3   OH281055   3.484   6.709   0.369 -0.2527  0.3024  0.4296
19855TIP3    H181056   3.441   6.639   0.419 -2.1769  1.1024 -0.0471
19855TIP3    H281057   3.496   6.672   0.282  0.9752 -0.2832  0.8447
19856TIP3   OH281058   4.564   0.408   3.135  0.1356 -0.4777 -0.2933
19856TIP3    H181059   4.498   0.476   3.143  0.8647  0.0586  1.2953
19856TIP3    H281060   4.608   0.426   3.051 -1.1286 -0.3295 -0.9330
19857TIP3   OH281061   4.631   3.270   1.669 -0.1001 -0.1818  0.2153
19857TIP3    H181062   4.619   3.359   1.702  2.5928  0.4662 -0.4721
19857TIP3    H281063   4.662   3.281   1.579 -1.4094 -1.8544 -0.4725
19858TIP3   OH281064   2.051   0.448  16.781 -0.5937  0.0293  0.4308
19858TIP3    H181065   2.057   0.355  16.804 -2.4827 -0.6450 -1.6051
19858TIP3    H281066   1.983   0.483  16.838 -0.1338  0.0784  0.9485
19859TIP3   OH281067   6.706   1.614  17.080 -0.2951 -0.1359  0.1815
19859TIP3    H181068   6.694   1.672  17.155  0.3554  1.7297 -1.1350
19859TIP3    H281069   6.712   1.672  17.005  0.5443 -1.8984 -1.1567
19860TIP3   OH281070   6.436   0.628   6.052 -0.1504 -0.2511  0.1901
19860TIP3    H181071   6.520   0.644   6.095 -1.6800  0.3109  3.0508
19860TIP3    H281072   6.434   0.691   5.980  1.9945 -0.4830 -0.1167
19861TIP3   OH281073   3.869   6.425   2.735  0.1372 -0.2619  0.8436
19861TIP3    H181074   3.905   6.425   2.824 -1.1490  0.9870  1.3935
19861TIP3    H281075   3.945   6.440   2.679  0.7782  0.3367  1.8339
19862TIP3   OH281076   0.650   0.849  12.757  0.1972  0.2784  0.0716
19862TIP3    H181077   0.731   0.836  12.706 -1.6477 -1.9113 -2.4392
19862TIP3    H281078   0.651   0.779  12.822 -0.6084 -0.9618 -1.2341
19863TIP3   OH281079   5.666   5.075   3.348  0.1848  0.4395  0.0899
19863TIP3    H181080   5.624   5.083   3.263  2.3636 -0.5688 -1.0977
19863TIP3    H281081   5.732   5.145   3.349  0.4980  0.1402  0.7667
19864TIP3   OH281082   0.319   0.710  14.539 -0.7325 -0.2900  0.3888
19864TIP3    H181083   0.288   0.739  14.625 -0.0940 -0.3037  0.6225
19864TIP3    H281084   0.403   0.668  14.556  0.1333  1.0604 -0.4241
19865TIP3   OH281085   3.623   1.006   0.749  0.1229  0.4603 -0.3046
19865TIP3    H181086   3.715   1.006   0.723 -0.2728  0.5559 -1.7925
19865TIP3    H281087   3.585   1.080   0.701 -0.8157  0.1732 -0.0182
19866TIP3   OH281088   3.131   6.190   2.947 -0.1302  0.0253 -0.2881
19866TIP3    H181089   3.182   6.169   3.026  0.9219 -0.6374 -1.1370
19866TIP3    H281090   3.075   6.263   2.974  0.7261  0.2727  0.8843
19867TIP3   OH281091   3.009   1.231  14.128  0.0990  0.0521  0.0834
19867TIP3    H181092   3.037   1.215  14.038  1.6841  1.4397  0.3013
19867TIP3    H281093   2.915   1.212  14.128  0.1278 -0.1893 -1.7941
19868TIP3   OH281094   3.729   4.709   4.202  0.0237  0.0668  0.3511
19868TIP3    H181095   3.673   4.768   4.253  3.8034  2.5204  1.8873
19868TIP3    H281096   3.773   4.655   4.267 -0.5089 -1.8339 -0.8292
19869TIP3   OH281097   3.609   0.520  14.778  0.1540  0.0755  0.0198
19869TIP3    H181098   3.562   0.454  14.828 -0.1662 -0.1692 -0.6046
19869TIP3    H281099   3.541   0.579  14.746  0.2780 -0.2037 -0.7722
19870TIP3   OH281100   6.703   6.566  12.149  0.1560  0.1408 -0.0677
19870TIP3    H181101   6.619   6.608  12.133 -0.0722 -0.9746 -1.9198
19870TIP3    H281102   6.767   6.625  12.109  0.2818  1.0480  1.4438
19871TIP3   OH281103   0.958   4.461  16.096 -0.2217 -0.1100  0.3024
19871TIP3    H181104   0.870   4.485  16.066  0.0229  0.4685  0.0589
19871TIP3    H281105   1.017   4.520  16.050  0.2204  0.2221  1.2854
19872TIP3   OH281106   0.195   3.477   3.750  0.5669 -0.0620  0.0912
19872TIP3    H181107   0.110   3.443   3.775  1.2352 -0.5633  1.7239
19872TIP3    H281108   0.211   3.551   3.809  1.1269  0.2226 -0.4024
19873TIP3   OH281109   3.768   1.436   3.136  0.2018 -0.2231 -0.1092
19873TIP3    H181110   3.814   1.512   3.174  0.3680 -0.3207 -0.1166
19873TIP3    H281111   3.830   1.364   3.145 -0.2079 -0.4995  0.4818
19874TIP3   OH281112   0.638   5.270   1.353  0.4415 -0.0090  0.6777
19874TIP3    H181113   0.666   5.231   1.271 -2.1302  0.8971 -0.6821
19874TIP3    H281114   0.710   5.329   1.378  0.6951  0.6667 -1.5667
19875TIP3   OH281115   2.057   5.664   0.592 -0.5197 -0.2934 -0.2510
19875TIP3    H181116   2.108   5.738   0.626  0.7587 -0.9146 -0.7681
19875TIP3    H281117   2.116   5.589   0.603 -2.1611 -1.4125  1.1589
19876TIP3   OH281118   5.055   1.708  11.048 -0.0652  0.3818  0.2766
19876TIP3    H181119   5.083   1.631  11.098  2.6175  0.6210 -0.7719
19876TIP3    H281120   5.077   1.688  10.957 -1.3737  1.5046 -0.3151
19877TIP3   OH281121   5.489   4.965  15.040 -0.0432 -0.5232 -0.1552
19877TIP3    H181122   5.573   4.932  15.007 -0.2753 -1.0757 -0.1919
19877TIP3    H281123   5.433   4.968  14.963 -1.0363 -3.2241  0.4358
19878TIP3   OH281124   0.306   1.028  13.146  0.0293 -0.0572  0.1210
19878TIP3    H181125   0.330   1.112  13.187 -0.0804 -0.8913  1.9237
19878TIP3    H281126   0.354   1.028  13.063  1.0071  1.2571  0.6608
19879TIP3   OH281127   0.372   6.044   4.940 -0.5327 -0.2899 -0.1771
19879TIP3    H181128   0.285   6.050   4.901 -1.2405  0.2452  1.4205
19879TIP3    H281129   0.358   5.992   5.020 -0.0035  2.4069  1.7408
19880TIP3   OH281130   0.216   0.888  12.610  0.0473  0.3776 -0.3056
19880TIP3    H181131   0.225   0.875  12.704  0.4912  2.5660 -0.0268
19880TIP3    H281132   0.292   0.844  12.572 -0.4069 -0.9464  0.3164
19881TIP3   OH281133   0.144   5.836  13.151  0.5536 -0.0592  0.0378
19881TIP3    H181134   0.200   5.855  13.076  0.4800 -1.9804 -0.5203
19881TIP3    H281135   0.057   5.866  13.125  1.1687  2.4384  0.7023
19882TIP3   OH281136   6.512   0.644  13.139  0.2333 -0.3349  0.0501
19882TIP3    H181137   6.442   0.638  13.205 -1.3660  0.9053 -1.4891
19882TIP3    H281138   6.549   0.556  13.136 -0.8101 -0.8367  1.3989
19883TIP3   OH281139   0.116   2.414  11.816  0.9020 -0.3881  0.3564
19883TIP3    H181140   0.028   2.441  11.791  0.4491 -0.0284  2.2481
19883TIP3    H281141   0.103   2.338  11.873  1.7953 -0.1347  0.9210
19884TIP3   OH281142   1.979   6.320   0.983  0.1562 -0.2003 -0.6174
19884TIP3    H181143   1.917   6.381   0.944 -0.9793 -1.5720 -0.9981
19884TIP3    H281144   1.936   6.234   0.977  0.6044 -0.6959  2.1919
19885TIP3   OH281145   1.408   0.238   0.184  0.5003  0.1197 -0.1316
19885TIP3    H181146   1.331   0.184   0.162  0.5684  0.8206 -2.1846
19885TIP3    H281147   1.468   0.225   0.110  2.2502 -0.1822  1.3154
19886TIP3   OH281148   0.825   0.780   3.028 -0.5624  0.3322 -0.2850
19886TIP3    H181149   0.913   0.810   3.007 -0.1211  0.1761  1.3020
19886TIP3    H281150   0.787   0.757   2.943  0.7543  0.8394 -1.0275
19887TIP3   OH281151   2.404   0.191  15.973  0.3223 -0.0598  0.1449
19887TIP3    H181152   2.329   0.140  16.005  0.1725  1.2707  1.9887
19887TIP3    H281153   2.386   0.280  16.001  2.0418  0.4931 -0.4434
19888TIP3   OH281154   1.334   3.565   1.726  0.2162  0.0635  0.1615
19888TIP3    H181155   1.268   3.615   1.677  0.0113 -0.9110 -0.5864
19888TIP3    H281156   1.286   3.531   1.802 -0.0574 -0.3261 -0.1798
19889TIP3   OH281157   0.613   6.117  12.566 -0.2530 -0.0750  0.2916
19889TIP3    H181158   0.655   6.035  12.590 -0.1638 -0.9065 -2.4692
19889TIP3    H281159   0.668   6.185  12.605 -0.9040 -1.3220  3.4756
19890TIP3   OH281160   3.465   0.399   1.307 -0.4967 -0.3258 -0.1067
19890TIP3    H181161   3.517   0.449   1.370  0.6486 -2.4885  0.6795
19890TIP3    H281162   3.377   0.398   1.344 -0.7801  1.9084 -0.6153
19891TIP3   OH281163   0.834   5.014   5.366  0.1692  0.1231  0.1904
19891TIP3    H181164   0.918   5.013   5.320  0.3766 -1.3378  0.5679
19891TIP3    H281165   0.819   5.106   5.388  1.2763  0.4946 -0.5937
19892TIP3   OH281166   1.876   5.071  12.907  0.1607  0.2563 -0.8922
19892TIP3    H181167   1.820   5.012  12.957  0.2175 -0.2646 -1.4315
19892TIP3    H281168   1.957   5.021  12.893 -0.2213  0.0058 -2.3469
19893TIP3   OH281169   0.779   5.268  11.821 -0.2390  0.2897 -0.5571
19893TIP3    H181170   0.777   5.173  11.829 -1.5289  0.4884  2.0211
19893TIP3    H281171   0.872   5.290  11.815  0.0541 -1.1370 -1.2848
19894TIP3   OH281172   1.242   2.806   0.886  0.1009 -0.6775  0.7398
19894TIP3    H181173   1.167   2.746   0.887  0.8498 -1.6204  1.4583
19894TIP3    H281174   1.234   2.852   0.803 -1.7289 -0.1847  1.1636
19895TIP3   OH281175   3.335   1.766  12.835 -0.5624 -0.3392 -0.4425
19895TIP3    H181176   3.279   1.756  12.758 -3.6076 -0.9362  1.7268
19895TIP3    H281177   3.371   1.679  12.850 -2.9099 -1.1566  0.8460
19896TIP3   OH281178   1.501   6.748   1.204 -0.0217  0.4569  0.0481
19896TIP3    H181179   1.595   6.763   1.214 -0.1119  1.4372 -0.5424
19896TIP3    H281180   1.494   6.685   1.132  0.2672 -1.1419  1.3800
19897TIP3   OH281181   0.385   2.504  11.673  0.2948  0.1621  0.2139
19897TIP3    H181182   0.317   2.480  11.736  0.6214 -0.2591  0.4167
19897TIP3    H281183   0.338   2.531  11.595 -0.1390  1.7291  1.0039
19898TIP3   OH281184   0.886   5.991  12.482  0.2363  0.7616  0.3280
19898TIP3    H181185   0.929   6.049  12.544 -0.6763  2.7770 -0.8650
19898TIP3    H281186   0.923   6.015  12.397  0.0668 -0.6324 -0.1675
19899TIP3   OH281187   4.834   6.819  13.847 -0.2884 -0.2810  0.2384
19899TIP3    H181188   4.926   6.796  13.860  0.3796  2.4501  0.4789
19899TIP3    H281189   4.806   6.856  13.930 -1.4118 -0.4398 -0.0590
19900TIP3   OH281190   2.863   3.962  13.196 -0.1259 -0.3097  0.8589
19900TIP3    H181191   2.912   3.990  13.273 -0.3714  1.7857  0.2969
19900TIP3    H281192   2.928   3.955  13.126 -0.3650  1.0189  0.4785
19901TIP3   OH281193   1.861   2.533  12.535 -0.2293 -0.0490 -0.0343
19901TIP3    H181194   1.780   2.492  12.504  0.1461 -0.3406 -0.6451
19901TIP3    H281195   1.899   2.573  12.457 -0.4189  1.1882  0.4920
19902TIP3   OH281196   2.885   3.774   1.243 -0.1041  0.2321  0.2142
19902TIP3    H181197   2.900   3.707   1.311  0.5374  2.1777  2.0344
19902TIP3    H281198   2.792   3.793   1.248 -0.1065  0.1827  0.3642
19903TIP3   OH281199   5.055   2.004   5.619 -0.1855 -0.0366 -0.5819
19903TIP3    H181200   5.119   2.030   5.687 -0.7971 -0.4578  0.1592
19903TIP3    H281201   5.103   1.944   5.563  0.4588  0.6456 -0.7789
19904TIP3   OH281202   4.445   3.201  13.688 -0.1195 -0.6752 -0.0775
19904TIP3    H181203   4.393   3.125  13.664 -0.1025 -0.6313 -0.2512
19904TIP3    H281204   4.420   3.220  13.779 -0.4132 -0.6428 -0.1682
19905TIP3   OH281205   5.537   5.442   2.874  0.2240  0.3747 -0.8009
19905TIP3    H181206   5.516   5.349   2.865  2.8046 -0.1799 -1.5641
19905TIP3    H281207   5.586   5.463   2.795 -1.2867  2.6723 -1.1447
19906TIP3   OH281208   6.670   3.672  11.394  0.1435 -0.5216 -0.0209
19906TIP3    H181209   6.607   3.610  11.358 -1.4649  1.0476  0.0453
19906TIP3    H281210   6.625   3.712  11.468  1.5728 -0.0608  0.6196
19907TIP3   OH281211   2.345   3.860   1.198  0.1612  0.1345  0.0221
19907TIP3    H181212   2.290   3.936   1.219  2.0120  1.6905 -0.6493
19907TIP3    H281213   2.324   3.841   1.106 -1.9417 -1.6154  0.8033
19908TIP3   OH281214   4.794   0.487   1.250 -0.0583  0.0110  0.7903
19908TIP3    H181215   4.742   0.408   1.235 -1.3214  0.4962  2.4825
19908TIP3    H281216   4.847   0.496   1.171 -1.8870 -1.0052 -0.5912
19909TIP3   OH281217   6.457   0.456   3.563 -0.3017 -0.0510  0.5403
19909TIP3    H181218   6.429   0.449   3.472  0.4940 -0.8912  0.3588
19909TIP3    H281219   6.551   0.438   3.561 -0.5507 -1.5395  1.7258
19910TIP3   OH281220   0.049   2.019  13.425  0.3766 -0.1402 -0.4573
19910TIP3    H181221   0.103   2.062  13.359 -0.3524  0.3393 -0.7425
19910TIP3    H281222   0.112   1.987  13.490  1.0763 -0.4232 -1.2651
19911TIP3   OH281223   1.686   2.376  15.836 -0.6254 -0.7161  0.2925
19911TIP3    H181224   1.647   2.375  15.749 -1.1047 -1.3308  0.5150
19911TIP3    H281225   1.749   2.304  15.835  1.1377  0.7697 -0.3405
19912TIP3   OH281226   2.451   0.707  14.484 -0.3873  0.2152  0.2294
19912TIP3    H181227   2.410   0.625  14.457 -1.5437  1.1652 -0.9205
19912TIP3    H281228   2.379   0.768  14.496  0.5059  1.2330  0.5304
19913TIP3   OH281229   4.562   5.385   3.899 -0.2110 -0.1320  0.4700
19913TIP3    H181230   4.645   5.429   3.919  0.7890 -0.7357 -2.2282
19913TIP3    H281231   4.509   5.451   3.855 -0.0864 -0.5635 -0.3341
19914TIP3   OH281232   3.379   2.066  12.855 -0.5637 -0.3697 -0.1023
19914TIP3    H181233   3.334   2.108  12.782 -1.5405  0.4672  0.9468
19914TIP3    H281234   3.377   1.973  12.836  0.0103 -0.0950 -1.5803
19915TIP3   OH281235   6.100   0.511  16.569 -0.2861  0.0964 -0.5331
19915TIP3    H181236   6.007   0.533  16.565 -0.6788 -1.6840 -1.8005
19915TIP3    H281237   6.102   0.416  16.579  1.4030 -0.1698 -2.8955
19916TIP3   OH281238   6.360   2.975   6.524  0.1401  0.1022  0.7618
19916TIP3    H181239   6.279   2.964   6.574 -1.2649 -1.7317 -1.7803
19916TIP3    H281240   6.413   2.899   6.547 -1.2874 -1.7561 -1.8319
19917TIP3   OH281241   1.667   5.383  14.792 -0.0082 -0.0069 -0.5325
19917TIP3    H181242   1.631   5.294  14.787  0.5946 -0.2665 -0.3062
19917TIP3    H281243   1.681   5.398  14.886  2.1623 -0.5974 -0.7481
19918TIP3   OH281244   4.853   2.601   4.410 -0.0892  0.0427  0.5841
19918TIP3    H181245   4.782   2.653   4.374  0.0398  0.0958  0.4008
19918TIP3    H281246   4.811   2.541   4.472 -0.2094  0.5420  0.9966
19919TIP3   OH281247   6.435   1.853  14.884  0.1668 -0.4035 -0.2481
19919TIP3    H181248   6.448   1.776  14.939 -0.9487  0.7810  1.7347
19919TIP3    H281249   6.495   1.918  14.920 -0.5923  0.3834 -0.3796
19920TIP3   OH281250   5.382   4.664  14.342  0.0963  0.0182 -0.4428
19920TIP3    H181251   5.370   4.726  14.414  0.1375 -0.9516  0.4192
19920TIP3    H281252   5.474   4.673  14.318  0.4880 -0.7695  0.7011
19921TIP3   OH281253   1.221   1.229   1.198 -0.0717 -0.6838  0.1337
19921TIP3    H181254   1.154   1.252   1.133  0.8010 -0.5136 -0.7201
19921TIP3    H281255   1.300   1.272   1.166  0.2144 -0.0292  1.6891
19922TIP3   OH281256   0.975   1.298  13.542 -0.0148  0.0643  0.3417
19922TIP3    H181257   0.998   1.307  13.449 -1.9032  1.4772 -0.0153
19922TIP3    H281258   0.961   1.388  13.571 -1.0836 -0.4922  1.5688
19923TIP3   OH281259   2.594   1.925  12.114 -0.2990  0.1981 -0.4967
19923TIP3    H181260   2.683   1.920  12.149 -0.2166 -3.1727 -0.9780
19923TIP3    H281261   2.604   1.961  12.025  0.6135 -0.3514 -0.6151
19924TIP3   OH281262   0.346   6.763  12.706  0.2545 -0.4546  0.6798
19924TIP3    H181263   0.300   6.847  12.700  0.8385  0.1560  3.9082
19924TIP3    H281264   0.417   6.779  12.768 -0.4737 -3.7200  2.4468
19925TIP3   OH281265   1.801   2.127   5.083  0.1915  0.5567 -0.0782
19925TIP3    H181266   1.847   2.164   5.008  0.2281  0.3988 -0.1341
19925TIP3    H281267   1.727   2.186   5.097 -0.4181  0.0077 -0.8961
19926TIP3   OH281268   3.952   6.325   5.231 -0.1639  0.2916 -0.2192
19926TIP3    H181269   3.927   6.250   5.177  0.5824 -0.6188  0.6648
19926TIP3    H281270   4.042   6.345   5.205 -1.0125  2.1223 -1.8104
19927TIP3   OH281271   3.564   3.838   1.451  0.1070 -0.1720  0.2043
19927TIP3    H181272   3.603   3.916   1.412 -0.2505 -1.7411 -3.5219
19927TIP3    H281273   3.632   3.803   1.509  1.0884  1.6283  0.1660
19928TIP3   OH281274   0.322   6.454   0.599  0.0584  0.0228  0.5612
19928TIP3    H181275   0.375   6.381   0.628 -0.3255 -0.7254 -0.5832
19928TIP3    H281276   0.292   6.429   0.511 -1.4347  0.8170  0.8215
19929TIP3   OH281277   2.419   4.317  10.214  0.4614 -0.2959  0.5540
19929TIP3    H181278   2.499   4.292  10.169  0.0177 -1.6122  0.4828
19929TIP3    H281279   2.383   4.235  10.248 -0.5038  0.3648  1.1668
19930TIP3   OH281280   3.479   4.600  13.662  0.8572 -0.0390 -0.0998
19930TIP3    H181281   3.566   4.608  13.700 -0.6556 -0.5371  3.7411
19930TIP3    H281282   3.444   4.518  13.699 -0.0781 -1.6173 -4.1752
19931TIP3   OH281283   5.520   4.935   3.530 -0.1154 -0.3046  0.0969
19931TIP3    H181284   5.588   4.981   3.480 -0.5538  0.1014 -0.1279
19931TIP3    H281285   5.520   4.977   3.616 -0.3787 -0.0122 -0.0440
19932TIP3   OH281286   3.613   3.091  13.615 -0.2513  0.0089 -0.0774
19932TIP3    H181287   3.660   3.012  13.587  2.6302  2.0081 -1.2211
19932TIP3    H281288   3.658   3.118  13.695 -2.0568 -0.1725  1.0285
19933TIP3   OH281289   5.669   6.432   4.140  0.3436 -0.0122  0.0142
19933TIP3    H181290   5.651   6.392   4.225  2.0051  0.7720  0.7424
19933TIP3    H281291   5.694   6.522   4.160 -0.6377  0.5996 -1.4139
19934TIP3   OH281292   4.977   4.989  16.206 -0.1215  0.0771  0.0246
19934TIP3    H181293   5.067   4.998  16.175  0.5897 -1.8039  1.4086
19934TIP3    H281294   4.960   4.895  16.199 -0.9078  0.0005  2.6363
19935TIP3   OH281295   4.942   6.357  15.163  0.2509 -0.1065 -0.2859
19935TIP3    H181296   4.973   6.429  15.219 -0.1406  0.0008 -0.2067
19935TIP3    H281297   4.887   6.304  15.221 -0.0095 -0.0958 -0.5202
19936TIP3   OH281298   1.622   3.823  15.343 -0.1066 -0.0820 -0.0106
19936TIP3    H181299   1.586   3.837  15.256  0.6924  0.9808 -0.1808
19936TIP3    H281300   1.674   3.743  15.335  1.5624  1.0809 -1.0255
19937TIP3   OH281301   3.889   0.588   5.368 -0.2985 -0.3512 -0.7261
19937TIP3    H181302   3.839   0.662   5.403  0.6459  0.3691 -0.9014
19937TIP3    H281303   3.822   0.524   5.345 -1.0733  0.1067  0.2092
19938TIP3   OH281304   1.037   1.109   4.285  0.8062  0.2613  0.9899
19938TIP3    H181305   1.054   1.121   4.378  1.1988  1.5690  0.7695
19938TIP3    H281306   1.119   1.135   4.243  0.9729 -1.2945  0.3311
19939TIP3   OH281307   2.223   2.961   5.100 -1.0066 -0.2290  0.4408
19939TIP3    H181308   2.130   2.978   5.092 -0.8894  0.2698  0.1298
19939TIP3    H281309   2.229   2.880   5.152 -1.6454 -1.1547 -0.9129
19940TIP3   OH281310   1.726   3.697   5.013 -0.5749  0.0357  0.0034
19940TIP3    H181311   1.792   3.762   5.039 -1.4912  1.6310 -1.5182
19940TIP3    H281312   1.666   3.694   5.087 -0.5486  0.9707  0.0735
19941TIP3   OH281313   4.740   1.233   3.049 -0.0528 -0.3077 -0.0514
19941TIP3    H181314   4.712   1.158   3.101 -2.1687 -0.3565 -1.2338
19941TIP3    H281315   4.776   1.294   3.113  0.0054 -1.5622  1.1315
19942TIP3   OH281316   3.612   4.457   0.122  0.3261 -0.2012  0.1055
19942TIP3    H181317   3.607   4.478   0.028 -0.5518 -1.7716 -0.2303
19942TIP3    H281318   3.523   4.473   0.154  0.8518  1.2077  0.8820
19943TIP3   OH281319   5.714   5.154  14.792 -0.4325  0.0643  0.0890
19943TIP3    H181320   5.692   5.214  14.863 -0.9227 -0.7178  0.6071
19943TIP3    H281321   5.661   5.185  14.718 -2.9798 -1.4872  1.1848
19944TIP3   OH281322   4.079   3.166  13.568  0.4106  0.1230  0.4057
19944TIP3    H181323   4.008   3.197  13.512  0.4708 -0.8351 -0.2047
19944TIP3    H281324   4.036   3.147  13.652 -0.1154 -0.6758 -0.0276
19945TIP3   OH281325   5.614   2.726  15.224 -0.2601  0.1299  0.1075
19945TIP3    H181326   5.585   2.783  15.152  1.1131  1.2401  0.4103
19945TIP3    H281327   5.591   2.775  15.303 -0.0376 -0.2335  0.3981
19946TIP3   OH281328   4.658   3.444   0.490  0.1594 -0.1697  0.0379
19946TIP3    H181329   4.564   3.430   0.477 -0.0418  0.4320  0.8035
19946TIP3    H281330   4.696   3.356   0.485 -0.2975 -0.3056 -1.3823
19947TIP3   OH281331   2.671   6.143  17.145  0.6727 -0.7058  0.2253
19947TIP3    H181332   2.581   6.119  17.166  0.3141 -0.0384 -0.5270
19947TIP3    H281333   2.724   6.077  17.189 -0.1422 -0.5396  1.4713
19948TIP3   OH281334   4.519   4.315   1.902  0.1381 -0.6151  0.6722
19948TIP3    H181335   4.578   4.339   1.973 -1.2511 -1.9197  2.2820
19948TIP3    H281336   4.445   4.374   1.912 -0.2365 -1.0645  0.5459
19949TIP3   OH281337   3.004   5.862  11.106  0.0585  0.4262  0.1460
19949TIP3    H181338   2.974   5.897  11.190 -0.6152  2.1403 -0.7744
19949TIP3    H281339   3.039   5.775  11.127 -1.3952  0.2523  1.9536
19950TIP3   OH281340   3.905   2.646   2.451  0.1654  0.1892 -0.3203
19950TIP3    H181341   3.958   2.684   2.521  1.2411 -0.9693 -0.4895
19950TIP3    H281342   3.860   2.721   2.411 -0.4676  0.8532  1.5994
19951TIP3   OH281343   5.216   3.630  14.537  0.2961  0.4022 -0.0773
19951TIP3    H181344   5.158   3.698  14.573 -2.0125 -1.2119 -0.6221
19951TIP3    H281345   5.241   3.662  14.451  0.6115  1.3357  0.3572
19952TIP3   OH281346   0.217   4.509  13.340 -0.2670 -0.5746  0.1446
19952TIP3    H181347   0.129   4.543  13.359 -0.2918 -0.3634 -0.3533
19952TIP3    H281348   0.225   4.431  13.394 -0.6865 -0.4792  0.3437
19953TIP3   OH281349   0.893   3.509   1.151  0.4527 -0.5698  0.3416
19953TIP3    H181350   0.809   3.510   1.198  0.9909 -2.3315  1.4247
19953TIP3    H281351   0.873   3.465   1.068  0.0480  0.1643  0.0452
19954TIP3   OH281352   4.135   5.284  13.810  0.1264  0.2970  0.1866
19954TIP3    H181353   4.147   5.378  13.827 -1.1760  0.1990  1.8174
19954TIP3    H281354   4.114   5.247  13.896 -2.3456 -1.0010 -0.9204
19955TIP3   OH281355   0.361   1.433  16.001  0.3994 -0.0299 -0.0446
19955TIP3    H181356   0.375   1.517  16.045 -1.0080  0.6281 -0.8188
19955TIP3    H281357   0.313   1.381  16.064 -0.4620  0.4511 -0.2936
19956TIP3   OH281358   4.224   2.416   2.140 -0.1428 -0.1359 -0.0892
19956TIP3    H181359   4.220   2.416   2.045 -0.3303 -0.1167 -0.0817
19956TIP3    H281360   4.219   2.323   2.165 -1.6375 -0.0637 -0.0388
19957TIP3   OH281361   4.717   5.406  15.084  0.0758  0.3437 -0.5215
19957TIP3    H181362   4.696   5.338  15.021  0.4702 -0.7639  0.5194
19957TIP3    H281363   4.725   5.360  15.168 -1.8084  1.9897  0.5977
19958TIP3   OH281364   1.700   3.586   5.391 -0.0878  0.4403 -0.0124
19958TIP3    H181365   1.704   3.670   5.345 -0.4199 -0.4197 -1.6221
19958TIP3    H281366   1.791   3.561   5.403 -0.0080  0.2434 -0.9951
19959TIP3   OH281367   1.747   6.046   5.080  0.6706  0.2688 -0.3789
19959TIP3    H181368   1.795   6.128   5.084 -0.9457  1.2530 -0.3968
19959TIP3    H281369   1.709   6.036   5.167  2.7259 -1.6606  0.3394
19960TIP3   OH281370   6.108   1.190   4.330  0.0307  0.1506 -0.3450
19960TIP3    H181371   6.024   1.224   4.299 -0.4068 -1.2712 -0.7500
19960TIP3    H281372   6.148   1.263   4.377 -1.3825  0.8694 -0.2486
19961TIP3   OH281373   2.586   5.152  12.188  0.5753  0.6428  0.0084
19961TIP3    H181374   2.554   5.130  12.276 -1.2903  0.2814 -0.7339
19961TIP3    H281375   2.509   5.146  12.133  2.2738 -2.0603 -2.1956
19962TIP3   OH281376   2.750   3.275   4.706  0.5212  0.6799  0.6543
19962TIP3    H181377   2.698   3.321   4.772  0.9970  0.5326  1.1377
19962TIP3    H281378   2.764   3.340   4.637 -0.3397  0.7084  0.4934
19963TIP3   OH281379   3.133   5.058  16.695 -0.2232  1.1264 -0.0770
19963TIP3    H181380   3.113   5.083  16.785 -0.1953 -0.7329  0.4653
19963TIP3    H281381   3.049   5.029  16.660  0.6689 -3.1807  1.0486
19964TIP3   OH281382   4.022   1.623  14.703  0.1945  0.0906 -0.7943
19964TIP3    H181383   4.069   1.639  14.785 -0.4027 -0.3737 -0.3606
19964TIP3    H281384   4.081   1.655  14.635  0.5804  0.7232 -0.1658
19965TIP3   OH281385   1.599   0.585  10.873  0.0225  0.3614 -0.5362
19965TIP3    H181386   1.533   0.545  10.931  0.4611  1.1484  0.5345
19965TIP3    H281387   1.562   0.575  10.785 -0.8499 -0.5082 -0.0963
19966TIP3   OH281388   0.003   3.774   0.647 -0.3065 -0.6561  0.2904
19966TIP3    H181389  -0.021   3.862   0.618 -2.0355 -1.0066  0.5903
19966TIP3    H281390   0.091   3.784   0.685  0.0129  0.6917 -0.7835
19967TIP3   OH281391   4.942   0.271  13.804  0.1562  0.4869 -0.0952
19967TIP3    H181392   4.850   0.267  13.777 -0.1531 -0.6483  1.1030
19967TIP3    H281393   4.981   0.193  13.767  0.3319  0.2811  0.5249
19968TIP3   OH281394   4.382   3.792   1.584 -0.9065  0.0139  0.2034
19968TIP3    H181395   4.371   3.887   1.593 -4.6212 -0.2696 -0.3902
19968TIP3    H281396   4.359   3.756   1.670 -0.9589 -0.4406  0.0036
19969TIP3   OH281397   5.344   3.270   0.824  0.1379 -0.0529 -0.6470
19969TIP3    H181398   5.377   3.186   0.856  1.3770  0.1846 -1.2815
19969TIP3    H281399   5.365   3.332   0.894  0.2825 -0.0608 -0.6824
19970TIP3   OH281400   6.328   6.363  12.557  0.1131 -0.2845  0.4163
19970TIP3    H181401   6.401   6.400  12.606  0.5774 -1.3473  0.5338
19970TIP3    H281402   6.351   6.271  12.544 -0.5578 -0.2992 -0.7550
19971TIP3   OH281403   4.105   3.689   6.135  0.3194  0.1881 -0.2642
19971TIP3    H181404   4.139   3.770   6.172  0.5391  1.0295 -2.2507
19971TIP3    H281405   4.009   3.697   6.141  0.3505  0.4323 -0.1254
19972TIP3   OH281406   4.608   2.294  14.409  0.2832 -0.8193 -0.2278
19972TIP3    H181407   4.672   2.272  14.341  1.5666 -2.5246  1.4788
19972TIP3    H281408   4.660   2.329  14.481 -0.9266 -0.2197  0.3714
19973TIP3   OH281409   4.235   1.490   0.773  0.0452 -0.1232  0.0704
19973TIP3    H181410   4.194   1.512   0.689  0.4466  0.3763 -0.0014
19973TIP3    H281411   4.281   1.408   0.757  0.8188  0.3982 -0.4386
19974TIP3   OH281412   3.684   5.446  13.505  0.0957  0.2001  0.0722
19974TIP3    H181413   3.716   5.415  13.589 -2.3235 -1.0670  0.5915
19974TIP3    H281414   3.645   5.532  13.524 -1.5610 -0.6351  0.5169
19975TIP3   OH281415   3.526   6.094  15.304  0.0449  0.1800  0.1670
19975TIP3    H181416   3.567   6.177  15.281  1.2622 -0.9192 -1.8338
19975TIP3    H281417   3.600   6.035  15.320 -0.7702 -1.1412 -0.8614
19976TIP3   OH281418   3.746   6.328  16.869 -0.5574  0.2757  0.1693
19976TIP3    H181419   3.811   6.372  16.814 -0.1449  0.4141  0.7625
19976TIP3    H281420   3.790   6.315  16.953 -1.0711 -0.2257  0.3694
19977TIP3   OH281421   0.101   0.276   2.658  0.6409 -0.6285  0.5343
19977TIP3    H181422   0.008   0.259   2.644  1.4211 -1.7689 -4.5329
19977TIP3    H281423   0.137   0.191   2.683  0.6912 -0.8146 -0.1481
19978TIP3   OH281424   2.837   0.072   5.324 -0.1650  0.0690 -0.2354
19978TIP3    H181425   2.854  -0.009   5.371 -0.2491  0.2521  0.1159
19978TIP3    H281426   2.765   0.051   5.264  0.0508 -0.2072 -0.4003
19979TIP3   OH281427   5.203   6.139   1.117  0.4565  0.6220  0.1263
19979TIP3    H181428   5.257   6.206   1.075 -1.2260  1.8259 -0.1925
19979TIP3    H281429   5.152   6.101   1.046  0.1808  0.1762  0.5597
19980TIP3   OH281430   0.473   4.681   2.835  0.5344  0.2317  0.4462
19980TIP3    H181431   0.414   4.749   2.803  0.2275  0.7951  2.1362
19980TIP3    H281432   0.539   4.672   2.767  0.5038  2.1303  0.1381
19981TIP3   OH281433   5.372   6.128   5.736  0.5452  0.1893 -0.0570
19981TIP3    H181434   5.295   6.099   5.785  0.0930 -0.7959 -1.3256
19981TIP3    H281435   5.443   6.126   5.801 -0.7429  2.5059  1.4780
19982TIP3   OH281436   1.510   5.772   5.689 -0.2270 -0.3299  0.0432
19982TIP3    H181437   1.597   5.812   5.696 -0.8908  0.9941  0.9667
19982TIP3    H281438   1.499   5.753   5.596  1.7896 -2.2364  0.1346
19983TIP3   OH281439   2.884   0.237   4.758 -0.0324  0.0731  0.3628
19983TIP3    H181440   2.881   0.274   4.670  2.1497 -0.1244  0.1650
19983TIP3    H281441   2.920   0.149   4.746  1.4308  0.4790  1.5401
19984TIP3   OH281442   5.646   0.881  14.770 -0.0672 -0.6965  0.1489
19984TIP3    H181443   5.665   0.795  14.730 -0.8687 -1.0258  0.4657
19984TIP3    H281444   5.559   0.904  14.736  1.3872  1.4237 -2.3663
19985TIP3   OH281445   3.904   4.611   1.658  0.4949  0.6040 -0.7564
19985TIP3    H181446   3.955   4.636   1.581  0.6732 -0.9912 -1.1742
19985TIP3    H281447   3.965   4.622   1.732  0.3333  2.0985 -0.8238
19986TIP3   OH281448   0.992   1.465  11.633 -0.1190 -0.4120 -0.5892
19986TIP3    H181449   0.963   1.541  11.583 -1.2474 -0.1607  0.4056
19986TIP3    H281450   0.918   1.404  11.628  1.0055 -1.6911 -1.8772
19987TIP3   OH281451   0.481   4.562   4.277 -0.2159  0.3295  0.2389
19987TIP3    H181452   0.489   4.467   4.287  0.3974  0.3487 -0.0539
19987TIP3    H281453   0.569   4.596   4.291 -0.1495  0.7253 -0.9917
19988TIP3   OH281454   4.464   3.442  13.888  0.5094 -0.4410  0.0274
19988TIP3    H181455   4.538   3.409  13.939  0.8919 -0.2592 -0.4007
19988TIP3    H281456   4.505   3.484  13.812  0.0165  0.7016  0.3843
19989TIP3   OH281457   1.216   4.152   5.699 -0.0551 -0.5448 -0.5064
19989TIP3    H181458   1.295   4.177   5.651 -0.5060  1.6875 -0.1115
19989TIP3    H281459   1.247   4.122   5.784  0.4433 -0.7288 -0.7548
19990TIP3   OH281460   2.745   5.965   0.594 -0.3016 -0.1320 -0.0131
19990TIP3    H181461   2.733   6.034   0.659 -0.3027 -0.8545  0.7582
19990TIP3    H281462   2.793   5.896   0.640  0.5040 -0.2687 -1.0427
19991TIP3   OH281463   1.168   4.644   3.688 -0.8582 -0.4624  0.2551
19991TIP3    H181464   1.158   4.681   3.776  0.7037  0.9710 -0.1465
19991TIP3    H281465   1.192   4.553   3.702 -1.1759 -0.3879  1.2987
19992TIP3   OH281466   4.090   5.898   2.836 -0.6837  0.4113  0.6407
19992TIP3    H181467   4.014   5.847   2.808 -1.9153  1.5472  1.8470
19992TIP3    H281468   4.145   5.836   2.882 -0.9870 -0.3787 -0.0535
19993TIP3   OH281469   6.016   6.595   6.133  0.2947 -0.1915  0.5778
19993TIP3    H181470   6.018   6.681   6.090 -0.3554 -0.2196  0.4903
19993TIP3    H281471   6.047   6.612   6.221 -1.0609  0.3673  0.9544
19994TIP3   OH281472   2.735   1.240   0.456 -0.5557  0.4783  0.4102
19994TIP3    H181473   2.695   1.256   0.370 -1.3737 -2.1890  0.2782
19994TIP3    H281474   2.680   1.289   0.517 -1.6037  0.1679 -0.2651
19995TIP3   OH281475   0.247   1.894  14.484 -1.0273  0.1274  0.1455
19995TIP3    H181476   0.232   1.822  14.546 -0.3062  0.0312  0.2158
19995TIP3    H281477   0.269   1.969  14.539 -0.0630 -0.0397 -0.0046
19996TIP3   OH281478   3.913   4.543   3.098 -0.1052 -0.0905  0.1464
19996TIP3    H181479   3.839   4.484   3.109 -0.7575  0.5243 -0.8917
19996TIP3    H281480   3.883   4.609   3.035  0.9327  0.8094  0.5674
19997TIP3   OH281481   5.627   5.298  11.458 -0.1875 -0.3153 -0.2519
19997TIP3    H181482   5.678   5.378  11.450 -0.7449 -0.0946 -1.7121
19997TIP3    H281483   5.665   5.253  11.534  0.9152  0.7458 -0.1566
19998TIP3   OH281484   4.739   2.236   4.370 -0.1544 -0.1776 -0.7859
19998TIP3    H181485   4.820   2.250   4.420  0.5640  1.1862 -2.2697
19998TIP3    H281486   4.770   2.224   4.280 -1.3811 -3.0446 -0.8654
19999TIP3   OH281487   5.433   4.686  12.417 -0.3474  0.1287  0.7557
19999TIP3    H181488   5.500   4.754  12.410  1.5802 -1.7770  0.5460
19999TIP3    H281489   5.376   4.702  12.341 -0.3306  1.9506  1.1085
20000TIP3   OH281490   1.750   5.926  15.356  0.0491  0.2488  0.0136
20000TIP3    H181491   1.673   5.884  15.393 -0.0599 -0.0909 -0.5994
20000TIP3    H281492   1.740   5.917  15.262 -0.7549  2.9980 -0.2136
20001TIP3   OH281493   4.626   2.357   5.486 -0.0289  0.4165  0.4425
20001TIP3    H181494   4.535   2.366   5.511  0.2616  2.1680  0.8961
20001TIP3    H281495   4.629   2.387   5.395  0.1374  0.6504  0.5229
20002TIP3   OH281496   1.321   4.847  16.190 -0.1540  0.1678 -0.0078
20002TIP3    H181497   1.313   4.774  16.252 -0.1093 -0.3238 -0.5758
20002TIP3    H281498   1.244   4.901  16.207 -0.6606 -0.4853 -0.1938
20003TIP3   OH281499   3.027   6.637   2.475 -0.0397 -0.1938  0.4679
20003TIP3    H181500   3.090   6.567   2.456 -0.0846 -0.4006  1.0633
20003TIP3    H281501   3.079   6.717   2.474  0.0264 -0.2471 -0.1440
20004TIP3   OH281502   5.113   3.554  13.906 -0.4800 -0.1543 -0.5282
20004TIP3    H181503   5.164   3.597  13.837 -1.5914  1.0642 -0.6203
20004TIP3    H281504   5.085   3.626  13.963 -3.2424 -0.5933 -1.2655
20005TIP3   OH281505   6.047   0.978   0.365  0.5144  0.2146  0.2091
20005TIP3    H181506   5.985   1.007   0.432 -1.0219 -2.7656  0.1564
20005TIP3    H281507   6.132   0.980   0.409 -0.2072  0.2591  1.6305
20006TIP3   OH281508   0.513   3.638   2.121 -0.3040 -0.3434 -0.4561
20006TIP3    H181509   0.561   3.653   2.040  1.0301 -1.1417  0.1830
20006TIP3    H281510   0.550   3.558   2.157 -1.3534 -0.3667  0.6140
20007TIP3   OH281511   0.071   6.486  14.058  0.4266  0.2636  0.1563
20007TIP3    H181512  -0.022   6.481  14.037  0.5889  0.1196 -0.5263
20007TIP3    H281513   0.075   6.464  14.151 -0.0131 -1.6293 -0.2593
20008TIP3   OH281514   2.942   1.850  12.447  0.3562  0.2549 -0.2262
20008TIP3    H181515   2.966   1.853  12.355  0.4480 -1.1272 -0.2585
20008TIP3    H281516   3.009   1.902  12.491  1.9072 -1.4137 -0.6128
20009TIP3   OH281517   4.379   2.087   1.799  0.1803  0.1811 -0.4788
20009TIP3    H181518   4.436   2.124   1.731 -1.1177  0.1084 -1.6150
20009TIP3    H281519   4.420   2.003   1.821  1.3538  0.8191 -0.1943
20010TIP3   OH281520   3.037   4.875   3.817  0.1306  0.1645  0.5343
20010TIP3    H181521   3.115   4.839   3.774 -0.8167  0.3692 -1.4334
20010TIP3    H281522   3.032   4.830   3.901  1.3783 -1.1584 -0.0856
20011TIP3   OH281523   6.068   6.147   2.363  1.2022  0.7832 -0.2271
20011TIP3    H181524   6.118   6.082   2.313 -0.7822 -0.4157 -0.7098
20011TIP3    H281525   6.062   6.109   2.451  1.1812  0.9422 -0.1599
20012TIP3   OH281526   6.760   5.088  12.591 -0.2660  0.7886  0.4069
20012TIP3    H181527   6.726   5.040  12.666 -0.0306 -1.5173 -0.8914
20012TIP3    H281528   6.855   5.073  12.594 -0.5110 -1.5326 -1.7610
20013TIP3   OH281529   5.632   3.182   5.720  0.1564  0.0664 -0.8693
20013TIP3    H181530   5.646   3.149   5.809  1.9854 -0.1543 -1.2123
20013TIP3    H281531   5.546   3.148   5.695  0.6040 -1.7476 -0.0204
20014TIP3   OH281532   2.760   4.920  13.549  0.0189  0.0891 -0.2471
20014TIP3    H181533   2.791   4.864  13.620  2.5603  1.8386  0.0973
20014TIP3    H281534   2.840   4.950  13.505 -1.3993  1.0805 -2.2683
20015TIP3   OH281535   2.724   2.848  12.231 -0.0211  0.0441  0.1815
20015TIP3    H181536   2.710   2.897  12.311  2.4705 -2.7964  2.5028
20015TIP3    H281537   2.642   2.801  12.216 -0.2763  0.0904  1.4362
20016TIP3   OH281538   3.004   4.434   1.228 -0.0210 -0.2333  0.0526
20016TIP3    H181539   3.068   4.488   1.181 -0.0956  1.1373  1.4754
20016TIP3    H281540   3.055   4.391   1.297 -0.1329 -1.2791 -0.5122
20017TIP3   OH281541   0.532   4.257   5.201  0.0449  0.0420 -0.2251
20017TIP3    H181542   0.575   4.222   5.123  0.3529 -1.0170  0.4074
20017TIP3    H281543   0.586   4.226   5.274 -2.3360 -2.1358  0.6417
20018TIP3   OH281544   2.769   0.004  13.757 -0.2499  0.2815  0.0495
20018TIP3    H181545   2.710  -0.067  13.784 -0.2574 -0.1381 -1.0556
20018TIP3    H281546   2.848  -0.040  13.726  0.6053  0.8394  1.3857
20019TIP3   OH281547   0.027   6.138   4.569 -0.3473  0.2019 -0.4072
20019TIP3    H181548   0.036   6.163   4.477 -0.3086  0.3600 -0.3603
20019TIP3    H281549   0.055   6.216   4.618 -1.1252  0.3855 -0.2601
20020TIP3   OH281550   2.589   6.224   3.760 -0.1904 -0.2425  0.2306
20020TIP3    H181551   2.547   6.141   3.782 -0.4653 -0.2051 -0.1514
20020TIP3    H281552   2.518   6.281   3.732  0.2151 -0.5116 -1.4255
20021TIP3   OH281553   5.165   1.236   5.228 -0.1707 -0.4305  0.0080
20021TIP3    H181554   5.127   1.283   5.302 -0.9995 -0.9837 -0.0594
20021TIP3    H281555   5.099   1.170   5.205 -0.7969  1.0048 -2.4737
20022TIP3   OH281556   2.618   2.167  12.688  0.0659 -0.6469 -0.5186
20022TIP3    H181557   2.644   2.180  12.779  0.4299  0.9045 -0.8392
20022TIP3    H281558   2.535   2.119  12.694 -1.5797  2.1967  0.7503
20023TIP3   OH281559   6.694   4.499   0.728  0.3645  0.6046 -0.4632
20023TIP3    H181560   6.733   4.450   0.655  0.3294  1.1321 -0.8430
20023TIP3    H281561   6.655   4.432   0.784 -1.4551  0.3157 -2.0206
20024TIP3   OH281562   1.916   0.829  11.341 -0.3029 -0.3547 -0.6112
20024TIP3    H181563   1.960   0.882  11.407  0.0825 -1.0439 -0.3205
20024TIP3    H281564   1.980   0.818  11.271 -0.0260 -1.3177 -0.2095
20025TIP3   OH281565   6.652   2.503   4.431  0.0932 -0.7151  0.4062
20025TIP3    H181566   6.656   2.477   4.339  1.0329  0.3838  0.1381
20025TIP3    H281567   6.565   2.543   4.441  1.4014  2.5972 -0.9291
20026TIP3   OH281568   2.646   2.112  11.188 -0.3377 -0.4938  0.5636
20026TIP3    H181569   2.715   2.126  11.123 -0.4104  0.9645  0.7960
20026TIP3    H281570   2.681   2.148  11.269 -1.0018 -0.6177  0.9102
20027TIP3   OH281571   6.792   6.709   5.362  0.0951 -0.2572  0.3836
20027TIP3    H181572   6.880   6.682   5.336 -0.2142  1.2924 -2.5287
20027TIP3    H281573   6.737   6.685   5.287 -2.1783 -2.1116  2.5467
20028TIP3   OH281574   5.166   6.214   4.176  0.3854  0.5977  0.2585
20028TIP3    H181575   5.088   6.228   4.230  0.9370  0.7453  1.0195
20028TIP3    H281576   5.188   6.302   4.145  1.5348  0.8816  1.8348
20029TIP3   OH281577   1.306   2.686   2.796  0.3007 -0.4414 -0.6622
20029TIP3    H181578   1.357   2.759   2.832 -2.5864  0.5863  1.5276
20029TIP3    H281579   1.235   2.729   2.747 -0.6324 -1.7782 -0.5091
20030TIP3   OH281580   2.429   1.691   4.892  0.4574  0.2166 -0.4431
20030TIP3    H181581   2.334   1.685   4.882  0.6145  0.8674 -2.4132
20030TIP3    H281582   2.442   1.710   4.985 -1.3561  0.6218 -0.2586
20031TIP3   OH281583   4.944   4.526   3.143  0.2354  0.3045  1.1862
20031TIP3    H181584   5.023   4.521   3.090  0.5581  2.4507  1.4076
20031TIP3    H281585   4.975   4.539   3.232 -0.3406  1.5160  1.2270
20032TIP3   OH281586   3.872   5.498  13.194 -0.0913  0.4943 -0.0950
20032TIP3    H181587   3.914   5.573  13.152  0.2194  0.6195  0.4360
20032TIP3    H281588   3.809   5.537  13.254 -1.8211  0.3050 -1.7163
20033TIP3   OH281589   1.752   0.598   1.250 -0.1943 -0.2000  0.0150
20033TIP3    H181590   1.692   0.671   1.262  0.1629 -0.2118  2.0293
20033TIP3    H281591   1.754   0.554   1.335  1.6816 -0.9442 -0.3876
20034TIP3   OH281592   2.326   5.455  12.240  0.1061  0.5170 -0.2045
20034TIP3    H181593   2.238   5.458  12.277  0.2002  0.0773  0.0736
20034TIP3    H281594   2.335   5.365  12.208  0.1295  0.8199 -1.0528
20035TIP3   OH281595   4.861   5.842  16.842 -0.3556  0.1789  0.0198
20035TIP3    H181596   4.797   5.864  16.774 -0.0856 -0.7540 -0.5450
20035TIP3    H281597   4.940   5.819  16.793  0.3055  0.9802  0.6998
20036TIP3   OH281598   3.842   0.542  16.718 -0.3601  0.3542 -0.3307
20036TIP3    H181599   3.851   0.457  16.761  1.5319  0.8829  0.3833
20036TIP3    H281600   3.910   0.543  16.651  0.1693  1.5975  0.1978
20037TIP3   OH281601   4.167   3.728  17.213  0.0459  0.0542  0.2202
20037TIP3    H181602   4.143   3.785  17.140 -0.9896  0.3697  0.7928
20037TIP3    H281603   4.187   3.789  17.284  0.4705 -0.2648  0.3761
20038TIP3   OH281604   0.113   2.626   0.222  0.0683 -0.0295 -0.5139
20038TIP3    H181605   0.134   2.565   0.292  3.9419  0.7366 -0.9376
20038TIP3    H281606   0.172   2.604   0.151 -0.4704  2.3157 -1.7612
20039TIP3   OH281607   2.225   1.202   0.747  0.2436  0.1227 -0.0229
20039TIP3    H181608   2.219   1.120   0.796 -0.8707 -0.4832 -1.1588
20039TIP3    H281609   2.209   1.177   0.656 -0.8438  1.7103 -0.2888
20040TIP3   OH281610   1.814   5.451  17.177 -0.0584  0.0724  0.3222
20040TIP3    H181611   1.754   5.376  17.169  1.6343 -1.0864 -2.2537
20040TIP3    H281612   1.898   5.417  17.146  1.0605  2.6806  0.4396
20041TIP3   OH281613   5.175   0.710   1.039  0.1272  0.6531  0.4809
20041TIP3    H181614   5.220   0.636   0.999  0.6159  0.6276  1.0723
20041TIP3    H281615   5.227   0.731   1.117 -0.4930  1.0657  0.7914
20042TIP3   OH281616   5.858   0.108  14.204 -0.1586  0.2016  0.3290
20042TIP3    H181617   5.787   0.093  14.268 -0.6452  0.0485 -0.2454
20042TIP3    H281618   5.866   0.024  14.159 -0.2413  0.5000 -0.2401
20043TIP3   OH281619   5.050   1.415   5.383 -0.0211  0.2292 -0.3534
20043TIP3    H181620   5.016   1.504   5.376 -1.4949 -0.3042 -0.3203
20043TIP3    H281621   4.986   1.369   5.439  0.4694 -0.9470 -0.7307
20044TIP3   OH281622   3.783   0.449   1.073  0.2943  0.2483  0.2230
20044TIP3    H181623   3.712   0.401   1.030  0.5682  0.6761 -0.7207
20044TIP3    H281624   3.754   0.540   1.072  0.4430  0.2999  0.6642
20045TIP3   OH281625   2.496   2.439  17.249 -0.0422  0.5995  0.3393
20045TIP3    H181626   2.400   2.442  17.248 -0.0514  1.3279  1.5344
20045TIP3    H281627   2.523   2.519  17.205  0.0324  0.1565 -0.4351
20046TIP3   OH281628   2.856   4.332  14.246 -0.3920  0.1026  0.1924
20046TIP3    H181629   2.924   4.313  14.310  0.1770  0.2725 -0.3602
20046TIP3    H281630   2.892   4.403  14.192 -1.0187  0.2220 -0.0718
20047TIP3   OH281631   1.097   3.385   5.568 -0.5566 -0.0600  0.1994
20047TIP3    H181632   1.144   3.319   5.517 -2.8512 -0.8721 -0.9142
20047TIP3    H281633   1.070   3.451   5.504 -1.0120  0.3495  0.8073
20048TIP3   OH281634   4.754   6.511   3.253  0.2516 -0.1295  0.3798
20048TIP3    H181635   4.792   6.561   3.325  0.2244  1.0953 -0.4436
20048TIP3    H281636   4.691   6.453   3.295  0.1862  0.6210  1.3380
20049TIP3   OH281637   1.693   6.466   2.054  0.0480  1.1609 -0.6264
20049TIP3    H181638   1.688   6.387   2.108  0.8207 -0.5382 -2.9364
20049TIP3    H281639   1.639   6.530   2.100 -0.9479 -0.8476  1.0856
20050TIP3   OH281640   3.084   2.865   0.250 -0.5956  0.1154  0.2257
20050TIP3    H181641   3.050   2.901   0.168 -0.3745  1.1875  0.5987
20050TIP3    H281642   3.047   2.921   0.318  0.0485 -0.1485  0.7983
20051TIP3   OH281643   4.710   0.914   3.768  0.2085  0.2271  0.1457
20051TIP3    H181644   4.635   0.960   3.807 -0.1976 -0.6849  0.4604
20051TIP3    H281645   4.766   0.891   3.842  1.1804  1.5648 -0.1640
20052TIP3   OH281646   1.037   4.265  13.640 -0.1094  0.3230 -0.4940
20052TIP3    H181647   1.009   4.219  13.561  0.4414 -0.4134 -0.2686
20052TIP3    H281648   0.968   4.249  13.703  0.2159 -0.4568 -0.3242
20053TIP3   OH281649   1.835   1.157  12.149 -0.2565  0.1530  0.3021
20053TIP3    H181650   1.801   1.197  12.069  1.2416 -0.2451 -0.5322
20053TIP3    H281651   1.765   1.099  12.178 -0.3006 -0.6473 -1.4038
20054TIP3   OH281652   1.699   2.872   1.975 -0.2505 -0.1072  0.0981
20054TIP3    H181653   1.691   2.777   1.990 -0.8905 -0.2585 -1.1259
20054TIP3    H281654   1.613   2.898   1.942  0.2694  0.6942 -0.6537
20055TIP3   OH281655   6.244   2.466   4.011 -0.4012 -0.3647  1.1177
20055TIP3    H181656   6.215   2.395   3.954  0.9578 -1.1624  1.3831
20055TIP3    H281657   6.173   2.529   4.010 -0.0261  0.0550 -2.1720
20056TIP3   OH281658   2.556   3.014  12.849 -0.6326  0.1779 -0.4473
20056TIP3    H181659   2.541   3.061  12.931  1.1325  2.1545 -1.2154
20056TIP3    H281660   2.479   2.957  12.840 -0.4428 -0.7328  2.9766
20057TIP3   OH281661   4.018   5.102  12.647 -0.3035 -0.2522  0.6406
20057TIP3    H181662   4.079   5.028  12.645  0.4258  0.3785 -0.9407
20057TIP3    H281663   4.033   5.144  12.731 -1.7430 -2.7390  2.2080
20058TIP3   OH281664   6.633   0.466   1.389 -0.3733 -0.5943  0.4820
20058TIP3    H181665   6.612   0.437   1.300  0.1547  0.1821  0.1057
20058TIP3    H281666   6.569   0.534   1.408 -0.3300 -0.5908  0.6148
20059TIP3   OH281667   4.087   2.486  12.253 -0.2478  0.4284 -0.5112
20059TIP3    H181668   4.078   2.400  12.294 -0.1769  0.2389 -0.8871
20059TIP3    H281669   4.181   2.504  12.254 -0.4335  1.4116  1.4004
20060TIP3   OH281670   5.501   6.656  16.218 -0.3048 -0.1731 -0.1198
20060TIP3    H181671   5.580   6.602  16.225 -1.0281 -1.2668 -0.3193
20060TIP3    H281672   5.454   6.620  16.143 -1.5487 -0.2497  0.6856
20061TIP3   OH281673   5.766   4.643  15.308 -0.0962 -0.0220  0.2746
20061TIP3    H181674   5.726   4.634  15.221  2.2794  0.3014 -0.9111
20061TIP3    H281675   5.702   4.606  15.368 -0.2747 -3.7183 -2.0137
20062TIP3   OH281676   5.424   0.362  13.313  0.1298  0.2172 -0.1526
20062TIP3    H181677   5.379   0.358  13.229  1.7157  0.2747 -1.0244
20062TIP3    H281678   5.451   0.271  13.330  1.2054  0.4646 -0.4941
20063TIP3   OH281679   3.260   0.977  11.420 -0.2312  0.5572 -0.1045
20063TIP3    H181680   3.224   0.909  11.478  0.8013  0.1717  0.0853
20063TIP3    H281681   3.224   0.957  11.334 -0.7810  0.4019  0.1584
20064TIP3   OH281682   0.173   4.346   4.106 -0.8507  0.1355  0.2240
20064TIP3    H181683   0.196   4.363   4.015 -1.6421  0.1351  0.0152
20064TIP3    H281684   0.253   4.311   4.146 -0.5843 -0.1323 -0.5465
20065TIP3   OH281685   4.699   3.180  11.321 -0.0088  0.0672 -0.2459
20065TIP3    H181686   4.604   3.173  11.334  0.2933 -0.5141  1.9021
20065TIP3    H281687   4.725   3.093  11.292  0.2365 -0.5848  1.8714
20066TIP3   OH281688   0.570   0.686  15.440  0.0002 -0.2017  0.6260
20066TIP3    H181689   0.518   0.608  15.418 -0.5320  0.5858 -0.9839
20066TIP3    H281690   0.505   0.756  15.450  0.5907  0.3395  0.6932
20067TIP3   OH281691   6.394   1.971  14.596 -0.7315 -0.4151  0.1229
20067TIP3    H181692   6.338   2.000  14.668 -0.5905 -4.3400  1.9556
20067TIP3    H281693   6.341   1.907  14.548  0.7217 -1.1024 -0.6151
20068TIP3   OH281694   2.771   6.818  12.402 -0.5979 -0.5231  0.2521
20068TIP3    H181695   2.810   6.760  12.337  3.0861  1.2630  0.7497
20068TIP3    H281696   2.759   6.764  12.479 -0.5290 -1.4871 -0.4104
20069TIP3   OH281697   4.111   1.702  16.049  0.0110 -0.1470  0.1619
20069TIP3    H181698   4.203   1.714  16.076 -1.0043  2.1191  2.8359
20069TIP3    H281699   4.094   1.774  15.989 -0.1786 -0.2833  0.0520
20070TIP3   OH281700   0.943   3.813   1.868  0.1625  0.1835  0.7404
20070TIP3    H181701   0.981   3.886   1.917  1.7526  0.1669 -0.4198
20070TIP3    H281702   0.910   3.853   1.787  2.2647 -0.5680 -0.5160
20071TIP3   OH281703   0.169   4.540   3.231 -0.1681 -0.0095  0.1724
20071TIP3    H181704   0.173   4.454   3.275 -0.7384 -0.5566 -0.8312
20071TIP3    H281705   0.081   4.543   3.194  0.1193  0.6966 -0.4448
20072TIP3   OH281706   2.972   1.914  13.731  0.0256  0.4449  0.6152
20072TIP3    H181707   2.904   1.859  13.692  0.6452 -0.2207  0.4705
20072TIP3    H281708   2.929   1.999  13.744 -0.7112  0.1505  0.1455
20073TIP3   OH281709   2.857   2.810   6.047  0.1969 -0.0043  0.5198
20073TIP3    H181710   2.842   2.816   6.142  0.3679  1.2120  0.4798
20073TIP3    H281711   2.938   2.859   6.033  0.8600 -1.2752 -0.0925
20074TIP3   OH281712   3.446   4.513  14.762 -0.0758  0.4629  0.3529
20074TIP3    H181713   3.387   4.438  14.770 -0.7959  0.8381 -1.2209
20074TIP3    H281714   3.527   4.476  14.729  0.0771  0.1650  1.0496
20075TIP3   OH281715   3.897   5.071  15.121  0.7380 -0.1042 -0.1148
20075TIP3    H181716   3.804   5.092  15.126  0.7122 -0.7537  4.1201
20075TIP3    H281717   3.941   5.141  15.169  2.0606 -1.5837  0.9253
20076TIP3   OH281718   1.709   6.669  15.480  0.1761  0.1771  1.0057
20076TIP3    H181719   1.763   6.640  15.407 -0.7266  1.0212 -0.0181
20076TIP3    H281720   1.646   6.598  15.492  1.8307 -1.0712  2.5806
20077TIP3   OH281721   2.781   6.176   4.586 -0.2356 -0.0977  0.4688
20077TIP3    H181722   2.693   6.203   4.612  0.1334  0.7534  0.8510
20077TIP3    H281723   2.778   6.173   4.490 -0.9077 -0.8765  0.5080
20078TIP3   OH281724   2.990   0.497  14.972  0.1495  0.7343 -0.0992
20078TIP3    H181725   3.072   0.516  14.926  1.3815 -0.0898  1.6971
20078TIP3    H281726   2.922   0.507  14.905  1.7486  1.0212 -1.7200
20079TIP3   OH281727   4.904   6.683  16.829 -0.8036 -0.8224  0.1637
20079TIP3    H181728   4.830   6.699  16.887  0.3820 -0.6516  1.6578
20079TIP3    H281729   4.939   6.598  16.856 -1.4386 -1.6801 -1.6257
20080TIP3   OH281730   4.769   1.612  12.388 -0.2509 -0.3208  1.0370
20080TIP3    H181731   4.743   1.533  12.436 -0.0672 -0.1832  1.3621
20080TIP3    H281732   4.697   1.674  12.402 -1.4510 -1.1795 -1.0260
20081TIP3   OH281733   3.575   3.578   5.751 -0.0145 -0.2474 -0.6453
20081TIP3    H181734   3.658   3.621   5.772  0.9065 -0.8593 -2.7814
20081TIP3    H281735   3.509   3.627   5.799  1.6256  0.0458  1.3774
20082TIP3   OH281736   1.604   5.017  14.765 -0.6844 -1.0296 -0.2998
20082TIP3    H181737   1.512   4.996  14.751 -1.3291  0.3722  1.6562
20082TIP3    H281738   1.646   4.932  14.781 -1.9374 -1.5445  0.3235
20083TIP3   OH281739   2.542   6.291   4.996  0.1232 -0.4101  0.3109
20083TIP3    H181740   2.483   6.299   5.071 -0.5916  3.8107 -0.6052
20083TIP3    H281741   2.629   6.307   5.032 -0.3857  3.2339  0.0395
20084TIP3   OH281742   6.273   1.599  14.174  0.2316  0.2714  0.2765
20084TIP3    H181743   6.338   1.641  14.231 -0.7911  1.3724  0.6628
20084TIP3    H281744   6.272   1.652  14.095  1.5391 -1.1716 -0.7228
20085TIP3   OH281745   1.677   5.330   3.096 -0.1501 -0.3812 -0.5522
20085TIP3    H181746   1.618   5.374   3.158  0.2906 -0.7162  0.1168
20085TIP3    H281747   1.752   5.389   3.089 -0.8594  0.3808 -1.9448
20086TIP3   OH281748   6.498   4.130   3.867  0.4842 -0.3813 -0.1963
20086TIP3    H181749   6.510   4.183   3.946  1.4743 -1.7757  0.6179
20086TIP3    H281750   6.408   4.146   3.840  0.3659  0.6705  0.8025
20087TIP3   OH281751   6.014   6.517   3.870 -0.3087 -0.1582  0.1622
20087TIP3    H181752   6.030   6.611   3.861  0.1932 -0.2745 -0.1684
20087TIP3    H281753   6.023   6.483   3.781  2.1701 -0.9379  0.6721
20088TIP3   OH281754   3.022   0.441  12.790  0.2573 -0.3742 -0.4194
20088TIP3    H181755   3.118   0.447  12.790  0.2081  0.5639 -0.1098
20088TIP3    H281756   2.997   0.458  12.700  0.2596  1.8833 -0.0215
20089TIP3   OH281757   5.078   5.818  16.657 -0.7217 -0.2574  0.1801
20089TIP3    H181758   5.080   5.887  16.591 -0.5622  2.3223  2.7360
20089TIP3    H281759   5.149   5.759  16.634 -0.2017  1.0055 -1.5019
20090TIP3   OH281760   4.146   6.320  17.086 -0.0133 -0.0784 -0.0393
20090TIP3    H181761   4.196   6.359  17.158  2.5011  2.4891 -2.9883
20090TIP3    H281762   4.097   6.393  17.048  0.7006 -0.8057 -2.4566
20091TIP3   OH281763   0.241   1.907  12.423 -0.2546 -0.0116 -0.5112
20091TIP3    H181764   0.244   1.844  12.351 -0.5867 -0.0857 -0.4613
20091TIP3    H281765   0.257   1.855  12.501 -0.1066  0.0342 -0.5113
20092TIP3   OH281766   3.396   4.009  17.067  0.1256 -0.1491 -0.6170
20092TIP3    H181767   3.376   3.916  17.054 -1.0039  0.0868 -0.5943
20092TIP3    H281768   3.325   4.056  17.023  1.9765  0.7437 -2.7736
20093TIP3   OH281769   1.874   3.033   1.521 -0.1891  0.8180  0.1079
20093TIP3    H181770   1.821   2.964   1.560 -3.4476  2.5404 -1.0646
20093TIP3    H281771   1.891   3.003   1.431  0.7150  0.3414  0.4324
20094TIP3   OH281772   4.406   0.272   3.333 -0.4185 -0.4734  0.1525
20094TIP3    H181773   4.430   0.296   3.243 -1.3032 -2.2087 -0.5581
20094TIP3    H281774   4.466   0.201   3.356 -1.7214 -1.6175  0.0739
20095TIP3   OH281775   0.728   3.418   5.997  0.0442 -0.6542 -0.2816
20095TIP3    H181776   0.744   3.325   6.016  1.5425 -0.3272  0.1131
20095TIP3    H281777   0.770   3.433   5.913  1.4339  0.0977  0.5299
20096TIP3   OH281778   4.631   2.820   0.785 -0.2257 -0.2579  0.3097
20096TIP3    H181779   4.722   2.810   0.814 -0.0585 -0.2156 -0.2005
20096TIP3    H281780   4.602   2.731   0.766 -0.7480 -0.4298  1.8377
20097TIP3   OH281781   6.128   6.490   0.699  0.2236  0.5921  0.2738
20097TIP3    H181782   6.067   6.487   0.626 -0.3594 -2.5641  0.7932
20097TIP3    H281783   6.075   6.518   0.774 -0.5014 -1.4493  0.5708
20098TIP3   OH281784   4.769   0.018   0.742  0.4047 -0.1644  0.2839
20098TIP3    H181785   4.811   0.061   0.668  0.2931  1.1610  0.9776
20098TIP3    H281786   4.829  -0.052   0.768  2.0185  1.4876  1.0423
20099TIP3   OH281787   0.166   1.146   5.027 -0.2891  0.4752 -0.0682
20099TIP3    H181788   0.225   1.071   5.028  1.4531  1.8100  0.9373
20099TIP3    H281789   0.215   1.214   4.980 -2.5904  0.4282 -2.6528
20100TIP3   OH281790   5.708   3.129   2.880 -0.2090 -0.1068  0.3295
20100TIP3    H181791   5.732   3.221   2.885  1.0841 -0.4391  0.3708
20100TIP3    H281792   5.788   3.084   2.852 -0.6201 -1.3003  1.0207
20101TIP3   OH281793   5.454   6.441  12.471 -0.0789  0.1430  0.0106
20101TIP3    H181794   5.364   6.426  12.442  0.2190 -0.5982 -0.5542
20101TIP3    H281795   5.452   6.427  12.565 -0.2231 -1.4620 -0.2300
20102TIP3   OH281796   5.918   0.580   6.146 -0.4022  0.0924  0.1052
20102TIP3    H181797   6.004   0.588   6.105 -0.0882  0.8610  0.8885
20102TIP3    H281798   5.909   0.487   6.166  0.7389  0.1625  1.0284
20103TIP3   OH281799   6.448   6.175  11.711 -0.4869  0.0389  0.3077
20103TIP3    H181800   6.355   6.199  11.710 -0.5934 -0.3555  0.7281
20103TIP3    H281801   6.490   6.242  11.658 -0.8227  0.9899  1.2233
20104TIP3   OH281802   3.140   6.191  15.696 -0.4870 -0.0453 -0.3378
20104TIP3    H181803   3.124   6.285  15.698 -0.2607 -0.0204  0.2481
20104TIP3    H281804   3.128   6.167  15.604 -1.3338  0.4202 -0.3536
20105TIP3   OH281805   4.505   1.659   0.617  0.0684 -0.1706 -0.4166
20105TIP3    H181806   4.539   1.614   0.540  1.7656 -0.8640  0.6850
20105TIP3    H281807   4.494   1.590   0.682  2.0581  0.8551  1.0817
20106TIP3   OH281808   4.265   2.160  15.877  0.0396 -0.3847 -0.2353
20106TIP3    H181809   4.333   2.205  15.827  0.7348 -1.6582 -0.4603
20106TIP3    H281810   4.245   2.218  15.950  0.3817  0.6210 -0.9378
20107TIP3   OH281811   4.842   2.971   4.862  0.6023 -0.0776  0.1681
20107TIP3    H181812   4.845   2.941   4.772 -2.1505  1.2658 -0.4379
20107TIP3    H281813   4.792   2.904   4.909  0.5555  0.0706  0.3321
20108TIP3   OH281814   4.811   6.619   5.792 -0.4197  0.3744 -0.3805
20108TIP3    H181815   4.812   6.584   5.881  0.1055  0.3557 -0.3892
20108TIP3    H281816   4.902   6.610   5.762 -0.3907  1.2664 -0.5659
20109TIP3   OH281817   0.750   1.480   4.260 -0.5072  0.2832 -0.9130
20109TIP3    H181818   0.828   1.446   4.302  0.3487  2.3295 -0.7694
20109TIP3    H281819   0.742   1.570   4.293 -3.5278 -0.2115 -0.0769
20110TIP3   OH281820   2.860   0.875  11.842 -0.4824 -0.0158  0.1022
20110TIP3    H181821   2.844   0.969  11.835 -1.8275 -0.2824 -0.6995
20110TIP3    H281822   2.935   0.859  11.785  0.0506  0.6394  0.6141
20111TIP3   OH281823   0.281   3.469   4.437  0.2595 -0.4270  0.2152
20111TIP3    H181824   0.298   3.563   4.441  0.9659 -0.4956 -0.7135
20111TIP3    H281825   0.191   3.459   4.466  0.3026  0.4967  0.6890
20112TIP3   OH281826   5.257   4.249   1.471  0.0714  0.1832  0.3008
20112TIP3    H181827   5.224   4.264   1.560  0.5920  2.5140  0.1515
20112TIP3    H281828   5.351   4.236   1.482  0.1705  0.6976  0.0786
20113TIP3   OH281829   2.611   0.019   2.127  0.0931  0.2337  0.0114
20113TIP3    H181830   2.553   0.010   2.052  0.1469  1.0536 -0.1293
20113TIP3    H281831   2.698  -0.000   2.092  0.2123  1.3097 -0.2980
20114TIP3   OH281832   6.730   3.912   4.915 -0.0024 -0.2077  0.0001
20114TIP3    H181833   6.795   3.968   4.958  0.1225 -0.6498  0.3937
20114TIP3    H281834   6.754   3.824   4.942  0.0051 -0.4814 -0.8952
20115TIP3   OH281835   2.390   5.822  12.166  0.3606 -0.5261  0.3985
20115TIP3    H181836   2.336   5.780  12.233  2.0118  0.0510  2.1381
20115TIP3    H281837   2.459   5.866  12.215  2.3316 -1.0996 -1.7598
20116TIP3   OH281838   4.185   4.753   4.087  0.1590  0.2716 -0.2046
20116TIP3    H181839   4.141   4.824   4.135  0.0390 -0.6650  1.0850
20116TIP3    H281840   4.175   4.676   4.143  0.8685 -0.6225 -1.2897
20117TIP3   OH281841   2.832   5.587   2.147  0.3332 -0.5733 -0.2361
20117TIP3    H181842   2.746   5.587   2.107  0.3657  1.4609 -0.3855
20117TIP3    H281843   2.884   5.527   2.094 -0.8727 -1.4636 -0.4123
20118TIP3   OH281844   3.630   4.067  13.608 -0.0465  0.0278  0.3731
20118TIP3    H181845   3.593   3.986  13.643 -0.7474 -0.0500 -0.5198
20118TIP3    H281846   3.639   4.050  13.515 -1.4034  1.4068 -0.0375
20119TIP3   OH281847   1.825   1.718  11.362  0.0102  0.1115 -0.0577
20119TIP3    H181848   1.901   1.682  11.408  2.0110 -0.9847 -3.9585
20119TIP3    H281849   1.761   1.647  11.363  0.7808 -0.6033 -0.5757
20120TIP3   OH281850   0.615   4.477   5.999 -0.0742 -0.2808 -0.3551
20120TIP3    H181851   0.596   4.456   6.091 -0.3790 -1.9014 -0.7754
20120TIP3    H281852   0.580   4.565   5.987  1.0345  0.4220  1.4014
20121TIP3   OH281853   0.149   5.673  14.728 -0.5665  0.0159  0.5687
20121TIP3    H181854   0.224   5.663  14.669 -1.1907 -1.0254 -0.0684
20121TIP3    H281855   0.079   5.707  14.672 -0.7639  0.3411  1.0119
20122TIP3   OH281856   4.993   3.231   5.734  0.2214  0.1195  0.3085
20122TIP3    H181857   5.048   3.299   5.774 -1.6027  0.8234  1.6854
20122TIP3    H281858   4.904   3.254   5.759 -0.3764 -3.3203  1.5987
20123TIP3   OH281859   1.705   1.236   6.294 -0.1686 -0.0469  0.6003
20123TIP3    H181860   1.774   1.293   6.329 -0.4659  1.5710 -1.3646
20123TIP3    H281861   1.751   1.156   6.269  0.6248  0.1663  1.3390
20124TIP3   OH281862   6.677   3.125  11.544 -0.4791  0.3346 -0.5289
20124TIP3    H181863   6.752   3.100  11.597 -1.3155 -1.0304  0.0608
20124TIP3    H281864   6.667   3.219  11.559  0.4868  0.3341  0.1810
20125TIP3   OH281865   5.198   0.559  12.206  0.2344 -0.5459  0.2120
20125TIP3    H181866   5.159   0.638  12.169  2.1309  0.2429 -0.1509
20125TIP3    H281867   5.156   0.487  12.158 -0.0409  0.3096 -0.8510
20126TIP3   OH281868   1.730   6.811  13.867  0.6933  0.0511 -0.0145
20126TIP3    H181869   1.765   6.759  13.794  1.3880 -0.6415  0.8040
20126TIP3    H281870   1.774   6.896  13.859 -1.2902  0.9477 -2.0349
20127TIP3   OH281871   4.770   0.595  11.884  0.0029 -0.1992  0.0300
20127TIP3    H181872   4.719   0.529  11.837 -1.6031  0.1452  1.2346
20127TIP3    H281873   4.781   0.558  11.972  0.0547  0.6466  0.3804
20128TIP3   OH281874   1.137   1.579   2.933 -0.2039  0.3300  0.0131
20128TIP3    H181875   1.119   1.645   2.866  0.6617 -1.2028 -1.7729
20128TIP3    H281876   1.205   1.619   2.988 -1.9981  2.2147  0.9603
20129TIP3   OH281877   6.014   0.200   4.214 -0.6842  0.7565  0.1227
20129TIP3    H181878   6.017   0.236   4.125  1.4022 -1.0241 -0.5708
20129TIP3    H281879   6.082   0.133   4.215 -2.3217 -0.9497  2.3330
20130TIP3   OH281880   6.650   6.423   4.107 -0.4071 -0.6082  0.0544
20130TIP3    H181881   6.629   6.477   4.183 -1.4908 -0.2005 -0.5371
20130TIP3    H281882   6.743   6.402   4.119 -0.3925 -0.0021  1.1448
20131TIP3   OH281883   3.582   4.658   6.412 -0.5869 -0.0412 -0.2115
20131TIP3    H181884   3.552   4.738   6.455  0.9749 -0.0063  0.8450
20131TIP3    H281885   3.540   4.588   6.461  0.2059  0.0443  0.6026
20132TIP3   OH281886   0.611   2.593   4.930 -0.2390  0.5730  0.0943
20132TIP3    H181887   0.642   2.672   4.885  0.7584  0.3574  0.3983
20132TIP3    H281888   0.658   2.592   5.013  1.7860 -1.7440 -1.0193
20133TIP3   OH281889   4.423   4.290   3.863 -0.0825 -0.4881  0.1781
20133TIP3    H181890   4.363   4.287   3.938  0.3798 -0.4990  0.5521
20133TIP3    H281891   4.393   4.219   3.806 -0.2528 -0.6757  0.4956
20134TIP3   OH281892   0.270   4.074   5.486 -0.4700 -0.0980 -0.7339
20134TIP3    H181893   0.301   4.063   5.576 -2.3738 -1.0303 -0.1648
20134TIP3    H281894   0.231   3.990   5.464  0.1338  0.0660 -2.5196
20135TIP3   OH281895   3.741   4.319   2.740  0.5420  0.2615 -0.5834
20135TIP3    H181896   3.793   4.253   2.786 -1.4821 -0.8121  0.2324
20135TIP3    H281897   3.683   4.355   2.806 -0.9688  0.1692 -1.8292
20136TIP3   OH281898   1.944   6.170  10.933 -0.8097  0.3345  0.0979
20136TIP3    H181899   1.856   6.207  10.938 -1.3237 -0.8687  0.2571
20136TIP3    H281900   1.929   6.080  10.903  0.2785 -0.2466  1.2941
20137TIP3   OH281901   0.891   4.850  15.215 -0.3767  0.0578 -0.3168
20137TIP3    H181902   0.830   4.777  15.204  0.6050 -0.7155 -0.6473
20137TIP3    H281903   0.863   4.915  15.150 -1.9637  0.4873  0.7406
20138TIP3   OH281904   4.569   4.998   2.704 -0.6986 -0.6557  0.1499
20138TIP3    H181905   4.609   4.912   2.716 -0.2178 -0.3624  0.7227
20138TIP3    H281906   4.642   5.060   2.715 -0.9569 -0.1960 -0.6922
20139TIP3   OH281907   2.987   3.664   4.270 -0.1794  0.2913 -0.1399
20139TIP3    H181908   3.077   3.632   4.276 -0.3094 -0.1234 -0.3918
20139TIP3    H281909   2.992   3.735   4.205 -0.0756  0.1282 -0.3095
20140TIP3   OH281910   2.660   6.480   4.391  0.0350  0.1090  0.2739
20140TIP3    H181911   2.579   6.497   4.343 -0.9039 -0.4706  1.6024
20140TIP3    H281912   2.720   6.548   4.361 -1.4147  1.4532  0.3100
20141TIP3   OH281913   5.764   4.328   2.332 -0.0609  0.3594  0.1665
20141TIP3    H181914   5.699   4.349   2.398 -0.2536  1.1535 -0.2672
20141TIP3    H281915   5.720   4.266   2.273 -0.4473  0.9416 -0.1605
20142TIP3   OH281916   0.478   0.938  17.277  0.3289  0.1264 -0.0129
20142TIP3    H181917   0.429   0.889  17.343  0.9053 -0.2618  0.1286
20142TIP3    H281918   0.414   0.957  17.209  0.1114 -0.8714 -0.0967
20143TIP3   OH281919   6.079   6.816  15.950 -0.0738 -0.1832  0.4737
20143TIP3    H181920   6.072   6.844  15.858 -0.4124  0.0007  0.5560
20143TIP3    H281921   5.997   6.845  15.990  0.3087  0.2239  0.9653
20144TIP3   OH281922   6.653   2.754   1.742  0.0465  0.0009  0.0526
20144TIP3    H181923   6.582   2.720   1.796 -0.8848  1.4585 -0.2353
20144TIP3    H281924   6.719   2.784   1.805  0.6006 -1.7053  0.3132
20145TIP3   OH281925   3.424   1.116   2.297 -0.0589  0.3703  0.7286
20145TIP3    H181926   3.387   1.032   2.271  1.7949 -0.3666  0.4355
20145TIP3    H281927   3.351   1.178   2.288 -1.1268 -0.9840 -0.1279
20146TIP3   OH281928   5.355   1.700   2.192  0.0032  0.2302 -0.0296
20146TIP3    H181929   5.376   1.783   2.235 -1.5213  0.7692 -0.3110
20146TIP3    H281930   5.324   1.725   2.105  0.4795 -0.6971 -0.4708
20147TIP3   OH281931   3.214   1.598   1.346  0.4068 -0.0692  0.2323
20147TIP3    H181932   3.179   1.516   1.310 -0.7194 -0.2427  1.6666
20147TIP3    H281933   3.137   1.656   1.352  1.4047  1.5951 -2.0268
20148TIP3   OH281934   1.474   1.766  13.393  0.3239  0.2834  0.5974
20148TIP3    H181935   1.554   1.813  13.369 -0.0574  0.8422  0.4189
20148TIP3    H281936   1.423   1.830  13.442  0.2225 -0.2440  1.1818
20149TIP3   OH281937   2.803   1.539  16.479  0.0921 -0.3279 -0.5543
20149TIP3    H181938   2.831   1.493  16.400  0.3547  1.5305 -1.5904
20149TIP3    H281939   2.707   1.537  16.474  0.1056 -0.6166 -0.6954
20150TIP3   OH281940   1.643   3.930   0.825 -0.5820  0.0567  0.5172
20150TIP3    H181941   1.583   3.881   0.770 -0.1921 -0.8604  0.9028
20150TIP3    H281942   1.613   3.913   0.915 -0.6839  0.8386  0.6383
20151TIP3   OH281943   3.408   0.778  11.644  0.1546  0.1861  0.0881
20151TIP3    H181944   3.331   0.728  11.616 -0.6466  1.2801  0.2989
20151TIP3    H281945   3.430   0.741  11.729 -0.1795 -0.0915  0.0581
20152TIP3   OH281946   1.971   0.630   3.088  0.2991  0.3573  0.4906
20152TIP3    H181947   1.955   0.674   3.172  1.3131  0.1073  0.8279
20152TIP3    H281948   1.894   0.575   3.074 -0.0163  0.6416  1.1093
20153TIP3   OH281949   1.837   5.654  10.925  0.2910  0.6850  0.3319
20153TIP3    H181950   1.816   5.565  10.899  0.9299  0.6114  0.0512
20153TIP3    H281951   1.759   5.686  10.970  0.4775 -0.4041  1.4380
20154TIP3   OH281952   6.248   4.563  16.241 -0.2933 -0.2430  0.1983
20154TIP3    H181953   6.267   4.625  16.171 -1.1262 -0.2297 -0.0105
20154TIP3    H281954   6.186   4.608  16.298  1.6624  0.4196  1.8938
20155TIP3   OH281955   4.739   3.431  12.468  0.7823  0.5535 -0.0611
20155TIP3    H181956   4.673   3.364  12.449  0.0912  1.1348  0.3024
20155TIP3    H281957   4.753   3.425  12.563  0.2959  1.3136  0.0625
20156TIP3   OH281958   2.855   6.553  15.203  0.0377  0.0370 -0.1375
20156TIP3    H181959   2.769   6.543  15.162 -0.0144 -0.0384 -0.0091
20156TIP3    H281960   2.915   6.506  15.146  0.0029  0.1393 -0.2599
20157TIP3   OH281961   3.572   3.380   3.431 -0.1240  0.2572 -0.1007
20157TIP3    H181962   3.601   3.290   3.420 -1.0210 -0.0886  0.3583
20157TIP3    H281963   3.490   3.374   3.479 -1.4312  1.1829 -2.1422
20158TIP3   OH281964   3.163   0.015  11.495 -0.2367  0.7400 -0.4084
20158TIP3    H181965   3.208   0.062  11.565 -2.2977 -0.5511  1.8716
20158TIP3    H281966   3.070   0.022  11.516 -0.8657 -0.4868 -2.5070
20159TIP3   OH281967   6.061   3.790   3.608  0.0196  0.8190  0.1666
20159TIP3    H181968   6.000   3.863   3.619  0.6194  1.6115 -1.4800
20159TIP3    H281969   6.148   3.832   3.612  0.3522  0.3168 -1.4870
20160TIP3   OH281970   6.517   1.273   5.359 -0.2101  0.3641  0.4599
20160TIP3    H181971   6.424   1.255   5.372 -0.3095  0.7102  0.2438
20160TIP3    H281972   6.543   1.216   5.286 -0.0660 -0.2992  1.0227
20161TIP3   OH281973   0.671   0.072  11.391 -0.4399  0.2005 -0.5536
20161TIP3    H181974   0.693   0.064  11.298 -0.4055  2.3172 -0.7581
20161TIP3    H281975   0.619   0.153  11.396  0.9571  1.0053  1.5021
20162TIP3   OH281976   5.041   5.672  12.046 -0.1935  0.3285 -0.3472
20162TIP3    H181977   5.120   5.631  12.082 -2.1435 -2.3331  1.1089
20162TIP3    H281978   5.053   5.667  11.951  1.9205  1.0696 -0.1362
20163TIP3   OH281979   5.988   4.244   0.369 -0.0624 -0.1134  0.6257
20163TIP3    H181980   6.079   4.244   0.399  1.1039  1.0369 -2.7155
20163TIP3    H281981   5.967   4.336   0.353 -1.4403 -0.4637  0.2763
20164TIP3   OH281982   6.246   1.728   1.927  0.4466 -0.3414  0.1449
20164TIP3    H181983   6.244   1.751   1.834 -0.1500 -1.3374 -0.0913
20164TIP3    H281984   6.332   1.758   1.958 -0.1599  1.8978 -0.2346
20165TIP3   OH281985   5.112   4.906  13.975  0.4436 -0.0385 -0.8836
20165TIP3    H181986   5.065   4.924  13.894 -0.2711 -0.5212 -0.5776
20165TIP3    H281987   5.068   4.958  14.041  0.6021 -0.1664 -0.6756
20166TIP3   OH281988   6.112   6.300   3.358 -0.2106 -0.7234 -0.0665
20166TIP3    H181989   6.073   6.285   3.272 -0.2668  2.1622 -0.5844
20166TIP3    H281990   6.041   6.284   3.420 -1.3395  1.2059 -0.8192
20167TIP3   OH281991   0.586   5.744   2.679 -0.5940  0.2160  0.5065
20167TIP3    H181992   0.535   5.664   2.668  0.4992 -0.1581 -2.2969
20167TIP3    H281993   0.667   5.728   2.631  0.0407  2.6792  0.6661
20168TIP3   OH281994   3.964   2.984  15.458 -0.2648 -0.0881  0.4317
20168TIP3    H181995   3.993   3.021  15.375 -0.4004 -1.9477 -0.4704
20168TIP3    H281996   4.000   2.895  15.459 -0.2306 -0.0905  2.3849
20169TIP3   OH281997   4.376   4.001   4.338  0.9099  0.1368 -0.2805
20169TIP3    H181998   4.365   4.031   4.247 -0.9568 -0.4235 -0.2538
20169TIP3    H281999   4.470   3.982   4.345  1.0447 -0.0743 -2.1896
20170TIP3   OH282000   5.464   1.171   4.251  0.4338 -0.4311  0.3651
20170TIP3    H182001   5.505   1.135   4.330 -0.0178 -0.1691  0.7178
20170TIP3    H282002   5.400   1.234   4.284 -0.5785 -1.1682 -0.1606
20171TIP3   OH282003   6.658   4.036  17.251  0.3434  0.7416 -0.1043
20171TIP3    H182004   6.634   4.125  17.224 -1.2618  0.4788  0.4335
20171TIP3    H282005   6.577   3.986  17.245  0.9265 -0.3663  0.9578
20172TIP3   OH282006   0.316   3.604   5.559  0.5677  0.3946  0.3160
20172TIP3    H182007   0.256   3.677   5.569  0.6022  0.4084  0.4276
20172TIP3    H282008   0.327   3.570   5.648  0.1092 -0.0997  0.1863
20173TIP3   OH282009   3.126   0.492  10.739 -0.4724  0.0184  0.1043
20173TIP3    H182010   3.057   0.464  10.679  1.1718 -1.5401 -1.1124
20173TIP3    H282011   3.197   0.521  10.681  0.0011  1.3494  1.3297
20174TIP3   OH282012   4.361   5.631   2.966 -0.1425  0.0885  0.1222
20174TIP3    H182013   4.286   5.574   2.947  1.4121 -1.9346 -0.1746
20174TIP3    H282014   4.424   5.612   2.896  1.4394  0.2936  1.4404
20175TIP3   OH282015   4.248   6.711  11.336  0.4316 -0.3692 -0.0388
20175TIP3    H182016   4.226   6.803  11.323  0.2568 -0.5741 -1.2000
20175TIP3    H282017   4.177   6.663  11.294  1.0464 -1.0377 -0.3294
20176TIP3   OH282018   2.802   0.247  16.180  0.2199  0.1546 -0.1442
20176TIP3    H182019   2.802   0.263  16.086 -1.4087 -0.0000 -0.1901
20176TIP3    H282020   2.795   0.151  16.188  0.0447  0.1899  0.1268
20177TIP3   OH282021   5.874   0.291   0.202  0.5448  0.3126  0.1057
20177TIP3    H182022   5.800   0.337   0.243 -0.8158 -1.6159 -0.1402
20177TIP3    H282023   5.906   0.232   0.270  0.3664 -0.5267 -0.5277
20178TIP3   OH282024   3.134   0.193  15.401 -0.1656  0.6034 -0.4929
20178TIP3    H182025   3.225   0.194  15.370 -0.9527  3.4719 -2.8148
20178TIP3    H282026   3.091   0.127  15.347 -0.1780  1.4883 -1.5805
20179TIP3   OH282027   5.594   4.982  17.135  0.3329 -0.6302  0.2072
20179TIP3    H182028   5.561   5.031  17.060 -1.5292 -2.9113 -0.5285
20179TIP3    H282029   5.549   5.020  17.211  1.3408  0.8996  0.0685
20180TIP3   OH282030   3.216   3.029  15.833 -0.0322 -0.4150  0.6162
20180TIP3    H182031   3.299   3.076  15.824 -0.9304  1.1053  0.1016
20180TIP3    H282032   3.207   2.981  15.751  1.0352 -1.7437  1.2653
20181TIP3   OH282033   0.747   4.503  14.010 -0.1579 -0.2286  0.5730
20181TIP3    H182034   0.728   4.415  13.978 -2.8203  0.2710  0.6308
20181TIP3    H282035   0.752   4.557  13.932  0.1912 -0.2052  0.6110
20182TIP3   OH282036   5.548   0.686  15.649 -0.0055 -0.2466 -0.3702
20182TIP3    H182037   5.576   0.768  15.608  1.8171 -0.3248  0.6367
20182TIP3    H282038   5.455   0.698  15.666 -0.1534  0.8720 -1.9531
20183TIP3   OH282039   2.282   4.794  14.279  0.0690  0.1411 -0.0669
20183TIP3    H182040   2.291   4.858  14.350 -1.9475  2.5897 -1.9118
20183TIP3    H282041   2.212   4.735  14.308 -0.5035  0.9202  0.1627
20184TIP3   OH282042   2.460   4.490   6.082  0.4067 -0.9591  0.4050
20184TIP3    H182043   2.376   4.488   6.036 -0.9225 -0.1713  2.7278
20184TIP3    H282044   2.504   4.568   6.049 -0.0625 -1.0017 -0.3324
20185TIP3   OH282045   4.896   4.558   0.080 -0.2638 -0.2234 -0.4447
20185TIP3    H182046   4.801   4.568   0.085 -0.2738  0.3339 -1.5654
20185TIP3    H282047   4.926   4.569   0.170 -1.2263 -0.0419 -0.1384
20186TIP3   OH282048   2.211   2.041  13.226  0.2986 -0.4271 -0.6214
20186TIP3    H182049   2.205   2.040  13.131  0.3313  2.2657 -0.7108
20186TIP3    H282050   2.197   2.133  13.249 -0.7373 -1.2074  2.0400
20187TIP3   OH282051   3.291   4.275  11.614 -0.7069 -0.1962  0.2104
20187TIP3    H182052   3.374   4.291  11.570 -1.1390  2.2719  0.2250
20187TIP3    H282053   3.313   4.274  11.707 -0.7474  0.9172  0.2368
20188TIP3   OH282054   6.137   5.797   4.108  0.6282 -0.6270  0.6771
20188TIP3    H182055   6.058   5.787   4.055  0.9165 -0.5535  0.2236
20188TIP3    H282056   6.170   5.884   4.085  0.1797 -0.1577  1.7798
20189TIP3   OH282057   0.349   6.562  10.948 -0.2644  0.8346 -0.4332
20189TIP3    H182058   0.343   6.473  10.913 -1.1505  1.3219 -1.5383
20189TIP3    H282059   0.265   6.576  10.993  0.8048  0.2680  1.7660
20190TIP3   OH282060   0.374   5.880  13.630 -0.4490  0.6998 -0.0093
20190TIP3    H182061   0.322   5.960  13.626 -0.3587  0.6466 -2.9663
20190TIP3    H282062   0.367   5.841  13.543  0.2306 -2.0716  1.0965
20191TIP3   OH282063   3.019   2.079   1.856 -0.4366  0.1095 -0.0802
20191TIP3    H182064   3.025   1.994   1.898  1.0361 -0.5405 -1.5130
20191TIP3    H282065   3.030   2.060   1.763 -2.1171  1.6598 -0.6254
20192TIP3   OH282066   5.792   1.788  17.128 -0.2733  0.3392  0.2284
20192TIP3    H182067   5.723   1.854  17.127 -1.2902 -0.7205 -0.8501
20192TIP3    H282068   5.758   1.718  17.184 -0.4371 -0.5537 -0.9668
20193TIP3   OH282069   5.959   1.735   2.939  0.1114 -0.6899 -0.2274
20193TIP3    H182070   5.941   1.828   2.926  0.4337 -0.0084  3.6976
20193TIP3    H282071   6.047   1.723   2.904  0.5647  0.7615  0.3828
20194TIP3   OH282072   4.666   0.825   6.229  0.2022 -0.2910 -0.0450
20194TIP3    H182073   4.705   0.912   6.233  1.2933 -0.7063 -1.4879
20194TIP3    H282074   4.736   0.765   6.255 -0.4761 -0.7608  0.7314
20195TIP3   OH282075   5.368   4.152   4.014  0.1546  0.4848 -0.4084
20195TIP3    H182076   5.442   4.178   4.070  0.3232  0.4005 -0.5951
20195TIP3    H282077   5.295   4.142   4.075  0.2100  0.9104 -0.2656
20196TIP3   OH282078   6.021   1.332   6.630 -0.5491  0.3112 -0.0215
20196TIP3    H182079   6.022   1.243   6.666  0.6646 -0.1561 -1.1970
20196TIP3    H282080   6.004   1.388   6.706 -1.1060 -0.8954  0.7666
20197TIP3   OH282081   3.409   0.217   4.828 -0.7062 -0.0885 -0.0890
20197TIP3    H182082   3.356   0.281   4.875 -1.0276 -1.0171  0.8580
20197TIP3    H282083   3.368   0.210   4.742  0.0751  1.8710 -0.6406
20198TIP3   OH282084   4.529   1.733  14.088  0.2522  0.3820  0.0382
20198TIP3    H182085   4.596   1.779  14.038  2.1141 -0.7863  1.3515
20198TIP3    H282086   4.507   1.792  14.160 -0.0764  0.7388 -0.3551
20199TIP3   OH282087   1.577   6.201  11.976  0.1510  0.3057  0.0211
20199TIP3    H182088   1.605   6.279  11.928  0.7082  0.7152  0.9913
20199TIP3    H282089   1.650   6.182  12.035 -1.0953  0.6857  1.7428
20200TIP3   OH282090   5.885   0.567  13.458  0.0216  0.0871  0.1801
20200TIP3    H182091   5.955   0.633  13.449 -1.3264  1.5023 -0.1376
20200TIP3    H282092   5.884   0.521  13.374  0.0867  0.5438 -0.0740
20201TIP3   OH282093   3.510   3.748   1.141  0.2367  0.4867 -0.7618
20201TIP3    H182094   3.592   3.793   1.158 -0.1490  1.4446 -1.3570
20201TIP3    H282095   3.462   3.808   1.083 -0.1108 -0.8882 -1.9108
20202TIP3   OH282096   5.508   1.038  12.070 -0.3382  0.0989  0.5757
20202TIP3    H182097   5.578   1.082  12.022  0.1025 -0.2510  0.9004
20202TIP3    H282098   5.535   0.946  12.074  0.0293  0.2697  2.2323
20203TIP3   OH282099   5.539   1.947  16.115  0.1735 -0.0772 -0.3721
20203TIP3    H182100   5.490   2.003  16.175  0.0923 -0.1666 -0.3570
20203TIP3    H282101   5.626   1.987  16.111 -0.3829  1.0121 -1.6615
20204TIP3   OH282102   2.039   6.123   1.644 -0.0149 -0.0261  0.3007
20204TIP3    H182103   1.966   6.072   1.678 -0.4354 -0.0986 -0.7198
20204TIP3    H282104   1.999   6.193   1.593  0.6174 -0.0500 -0.2395
20205TIP3   OH282105   5.058   3.900   1.091  0.2863  0.2289 -0.1687
20205TIP3    H182106   5.015   3.956   1.155 -0.2927 -1.3989  0.8570
20205TIP3    H282107   4.995   3.831   1.072  1.0142 -0.1084 -1.4132
20206TIP3   OH282108   3.431   0.300  12.585 -0.1844  0.4337  0.2907
20206TIP3    H182109   3.398   0.211  12.598  0.1504  0.1995 -0.4441
20206TIP3    H282110   3.525   0.293  12.603 -0.1540  0.6374  0.2070
20207TIP3   OH282111   2.371   0.318  14.670 -0.3047  0.8542 -0.2884
20207TIP3    H182112   2.448   0.371  14.651 -1.2665  2.2925 -0.2484
20207TIP3    H282113   2.387   0.236  14.623  2.1735  0.3069  1.3855
20208TIP3   OH282114   4.366   4.002   4.626  0.2481 -0.9350 -0.3835
20208TIP3    H182115   4.330   4.007   4.537 -0.1499  1.4438 -0.1088
20208TIP3    H282116   4.289   4.002   4.683  0.5828  1.5402  0.1010
20209TIP3   OH282117   4.960   3.961   2.695  0.4633  0.9306 -0.6274
20209TIP3    H182118   4.865   3.958   2.706  0.4542  1.2436 -0.6171
20209TIP3    H282119   4.985   4.046   2.731  0.9123  0.2814  0.6626
20210TIP3   OH282120   2.473   3.308  13.941  0.1447  0.2081  0.2290
20210TIP3    H182121   2.484   3.220  13.976 -3.5780  0.1003  1.2918
20210TIP3    H282122   2.462   3.364  14.018 -2.0160  0.8805 -0.5299
20211TIP3   OH282123   1.153   1.840  15.047  0.0789  0.3110 -0.3788
20211TIP3    H182124   1.193   1.755  15.068  2.3834  1.2897 -0.5940
20211TIP3    H282125   1.228   1.895  15.023 -0.8909  3.5299  3.5080
20212TIP3   OH282126   5.132   4.831  17.025 -0.0730  0.4999  0.1956
20212TIP3    H182127   5.218   4.815  17.064 -0.0504 -1.0776 -0.4635
20212TIP3    H282128   5.083   4.751  17.042  0.3344 -0.8038 -4.0345
20213TIP3   OH282129   5.041   0.858   2.164  0.9638 -0.3005  0.1036
20213TIP3    H182130   5.105   0.902   2.220  0.5334  0.7537 -0.2242
20213TIP3    H282131   4.997   0.796   2.222  3.4396 -2.2953 -0.0451
20214TIP3   OH282132   3.301   0.959  14.479 -0.7209  1.0578  0.3417
20214TIP3    H182133   3.225   1.015  14.495 -0.1987  1.3420  1.9186
20214TIP3    H282134   3.313   0.910  14.560  1.5070  1.8937  0.5726
20215TIP3   OH282135   4.297   2.619  10.984  0.0949 -0.1432  0.0232
20215TIP3    H182136   4.322   2.708  11.007  0.7318 -0.5030  0.7602
20215TIP3    H282137   4.217   2.629  10.933 -1.5203  0.6977  2.6374
20216TIP3   OH282138   0.693   1.220   1.985 -0.5348 -0.3400  0.0279
20216TIP3    H182139   0.673   1.151   2.048 -0.0195  1.1115  1.8009
20216TIP3    H282140   0.715   1.296   2.038 -1.7962  1.4232 -1.9008
20217TIP3   OH282141   2.819   4.071  16.391 -0.0344 -0.1522  0.2762
20217TIP3    H182142   2.892   4.095  16.448  0.3899  1.3469 -0.8698
20217TIP3    H282143   2.777   4.154  16.370  0.1107 -0.6164 -1.9723
20218TIP3   OH282144   2.017   4.748   0.481 -0.0186  0.0035  0.2438
20218TIP3    H182145   2.073   4.748   0.559 -1.1964 -0.1084  1.1011
20218TIP3    H282146   2.078   4.738   0.408  1.4055  3.3456  0.9038
20219TIP3   OH282147   4.346   0.535   6.209  0.3929  0.3975 -0.3766
20219TIP3    H182148   4.279   0.470   6.231  1.2812 -0.8396 -1.3058
20219TIP3    H282149   4.364   0.580   6.291 -0.0076 -0.7328  0.3299
20220TIP3   OH282150   0.144   0.433  12.780  0.0064  0.0448 -0.1303
20220TIP3    H182151   0.078   0.377  12.821 -1.0365  0.5634 -1.0794
20220TIP3    H282152   0.127   0.520  12.816 -0.9687  0.5230 -1.6879
20221TIP3   OH282153   4.494   3.049   3.744  0.2719  0.8734  0.0134
20221TIP3    H182154   4.555   3.094   3.686 -0.2276  0.0320 -1.1965
20221TIP3    H282155   4.407   3.071   3.710  0.0260 -1.1995 -0.7987
20222TIP3   OH282156   2.859   5.636  15.698 -0.5253  0.1785  0.6643
20222TIP3    H182157   2.896   5.586  15.771  0.4973 -0.7123 -0.4614
20222TIP3    H282158   2.873   5.727  15.723  1.1874 -0.1308  0.9094
20223TIP3   OH282159   4.494   0.719   3.596 -0.1231 -0.3852  0.3683
20223TIP3    H182160   4.544   0.778   3.654 -0.9496 -0.3103  1.0102
20223TIP3    H282161   4.403   0.736   3.618 -0.4770  0.0548 -1.3709
20224TIP3   OH282162   2.909   1.427   3.006 -0.2239  0.0727 -0.3335
20224TIP3    H182163   2.893   1.505   2.952  0.9672  0.2155 -0.4914
20224TIP3    H282164   2.884   1.454   3.094  0.0087  0.5769 -0.4212
20225TIP3   OH282165   0.502   1.876  15.432  0.1963  0.0757  0.1603
20225TIP3    H182166   0.506   1.914  15.344 -0.4185  0.1214  0.1528
20225TIP3    H282167   0.481   1.784  15.417 -1.4868  0.4238  0.3311
20226TIP3   OH282168   4.518   4.644  14.539 -0.1347  0.2464 -0.0136
20226TIP3    H182169   4.585   4.651  14.470 -0.5799 -3.0039 -0.8560
20226TIP3    H282170   4.437   4.627  14.493 -0.7068 -0.5061  1.2329
20227TIP3   OH282171   0.820   6.653   1.810  0.3425  0.0504  0.3261
20227TIP3    H182172   0.816   6.659   1.714 -2.3326 -1.3113  0.3148
20227TIP3    H282173   0.912   6.632   1.828  1.0039  0.8436 -1.8933
20228TIP3   OH282174   3.114   2.855   1.994 -0.0436 -0.0724 -0.0620
20228TIP3    H182175   3.036   2.904   1.968  0.2021  0.9406  1.0749
20228TIP3    H282176   3.179   2.922   2.013  0.4934 -0.8566  0.9190
20229TIP3   OH282177   1.408   0.831  16.599 -0.3337 -0.2205 -0.2130
20229TIP3    H182178   1.471   0.893  16.561 -1.1083 -0.6805 -2.3116
20229TIP3    H282179   1.414   0.754  16.543 -1.8432 -0.7487  0.3418
20230TIP3   OH282180   5.923   0.051   6.075  0.1662  0.0952 -0.0370
20230TIP3    H182181   5.926   0.093   6.160  0.1568  0.1981 -0.0873
20230TIP3    H282182   5.859   0.102   6.025  0.8444  0.5880 -0.4074
20231TIP3   OH282183   0.738   2.373   0.726  0.3608  0.1199  0.5028
20231TIP3    H182184   0.753   2.300   0.786  1.1263  0.0441  0.2316
20231TIP3    H282185   0.746   2.451   0.781  0.5294  0.0322  0.6015
20232TIP3   OH282186   0.517   4.639  15.334 -0.1775  0.4708 -0.1317
20232TIP3    H182187   0.497   4.561  15.386 -0.2263  0.1689 -0.6012
20232TIP3    H282188   0.442   4.697  15.348 -0.2772  0.3140 -0.0156
20233TIP3   OH282189   5.452   2.937  12.934 -0.3244  0.6013 -0.3016
20233TIP3    H182190   5.475   2.864  12.878 -0.7504 -0.2997  0.6859
20233TIP3    H282191   5.374   2.975  12.894 -1.4132 -0.8493  0.3958
20234TIP3   OH282192   3.291   6.678  10.474  0.3478 -0.6843  0.2404
20234TIP3    H182193   3.318   6.586  10.474 -1.0821 -1.1182  0.7946
20234TIP3    H282194   3.279   6.700  10.566  0.9098  0.1483  0.1304
20235TIP3   OH282195   6.696   5.798  14.048  0.3329  0.1963 -0.2947
20235TIP3    H182196   6.769   5.755  14.003 -1.3755 -0.4327 -2.6068
20235TIP3    H282197   6.656   5.853  13.981 -3.4164 -2.1703 -0.1917
20236TIP3   OH282198   0.974   4.271  15.414 -0.1289 -0.2010  0.0688
20236TIP3    H182199   1.021   4.224  15.345 -0.0978 -0.3328  0.1774
20236TIP3    H282200   0.984   4.215  15.491  1.0943  0.6612  0.5545
20237TIP3   OH282201   0.032   6.547   4.508  0.3794 -0.3220  0.3225
20237TIP3    H182202   0.104   6.529   4.447  1.6291  0.6693  1.4591
20237TIP3    H282203   0.002   6.635   4.486  0.0091 -0.4451  0.3288
20238TIP3   OH282204   3.685   1.799   4.018  0.2109 -0.4696  0.1501
20238TIP3    H182205   3.665   1.808   4.112 -0.3941 -0.5478  0.0312
20238TIP3    H282206   3.764   1.851   4.005 -0.1466  0.1755  0.5504
20239TIP3   OH282207   2.719   0.730  14.552  0.8846 -0.1787  0.2194
20239TIP3    H182208   2.745   0.715  14.461  0.0762 -1.7691  0.2457
20239TIP3    H282209   2.624   0.744  14.548  0.8295 -0.3607  0.8242
20240TIP3   OH282210   0.981   4.123  16.829  0.4651  0.6802 -0.1175
20240TIP3    H182211   1.005   4.044  16.781  0.8858  0.8484 -0.1852
20240TIP3    H282212   0.948   4.091  16.913 -0.2002  0.3877 -0.4902
20241TIP3   OH282213   2.958   1.689   6.555  0.7465 -0.7118  0.1688
20241TIP3    H182214   2.965   1.769   6.503  1.1006 -0.2210  0.9555
20241TIP3    H282215   2.874   1.651   6.530  0.0447  0.5158  0.6196
20242TIP3   OH282216   5.443   6.000  11.139 -0.2983  0.0971  1.1514
20242TIP3    H182217   5.421   6.087  11.107 -0.3219  0.3639  1.8659
20242TIP3    H282218   5.444   5.944  11.061  0.7455  0.9385  0.5575
20243TIP3   OH282219   2.943   3.348   0.750 -0.6144 -0.4373  0.2318
20243TIP3    H182220   2.964   3.429   0.703  0.6454  0.3211  2.0374
20243TIP3    H282221   2.882   3.376   0.818 -0.9643 -1.2018  0.2345
20244TIP3   OH282222   4.344   4.510  14.053 -0.9000  0.2098 -0.4334
20244TIP3    H182223   4.359   4.431  14.000  0.2010 -0.3290  0.6435
20244TIP3    H282224   4.311   4.476  14.137  0.3183  0.8420  0.3076
20245TIP3   OH282225   4.808   6.590  12.580  0.0654  0.3251  0.3273
20245TIP3    H182226   4.884   6.630  12.621 -0.1520  3.1360 -1.8393
20245TIP3    H282227   4.734   6.642  12.612 -0.3548  0.9785 -1.6753
20246TIP3   OH282228   4.880   0.485  15.693 -0.0935  0.1011 -0.3611
20246TIP3    H182229   4.948   0.552  15.699 -0.9260  1.0924 -1.7268
20246TIP3    H282230   4.926   0.406  15.666  0.6714  0.5090 -0.2492
20247TIP3   OH282231   0.017   0.900  14.758 -0.1215  0.6157 -0.0191
20247TIP3    H182232   0.081   0.835  14.788 -0.2801 -0.5928 -2.2391
20247TIP3    H282233  -0.067   0.856  14.763 -0.3217  0.9014 -0.7995
20248TIP3   OH282234   4.505   5.405   3.479 -0.2825 -0.0902  0.3195
20248TIP3    H182235   4.525   5.461   3.404 -0.8023 -0.7729 -0.3383
20248TIP3    H282236   4.580   5.345   3.485 -0.2171 -0.0032  0.3778
20249TIP3   OH282237   5.050   6.087   0.897  0.2757 -0.1433  0.1782
20249TIP3    H182238   4.992   6.012   0.885 -0.6541  0.2067  2.2748
20249TIP3    H282239   5.090   6.101   0.811 -0.6349 -2.1246 -0.5856
20250LIG      O82240   1.690   1.829  16.615  0.3611 -0.1000 -0.4967
20250LIG      N82241   1.562   1.581  17.008 -0.3937  0.1368  0.2284
20250LIG     C182242   1.881   1.744  16.745  0.6124  0.2311  0.0378
20250LIG     C282243   1.738   1.711  16.683 -0.0772  0.7504  0.2590
20250LIG     C382244   1.986   1.792  16.639  0.0870 -0.0341 -0.1097
20250LIG     C482245   1.875   1.853  16.858 -0.0593 -0.1075  0.5961
20250LIG     C582246   1.626   1.691  16.793  0.0359  0.4821 -0.0761
20250LIG     C682247   2.123   1.823  16.704 -0.0978 -0.1457 -0.2265
20250LIG     C782248   2.013   1.884  16.924  0.2120  0.7117 -0.6847
20250LIG     C882249   2.122   1.923  16.826  0.7820  0.1171  0.3580
20250LIG     C982250   1.653   1.581  16.890  0.0247 -0.9333 -0.0942
20250LIG    C1082251   1.755   1.593  16.581  0.1747  0.1746 -0.5750
20250LIG    C1182252   1.613   1.489  17.106 -0.5595 -0.1297 -0.6619
20250LIG    C1282253   1.425   1.557  16.968 -0.1035 -0.0016  0.0311
20250LIG    C1382254   1.530   1.515  17.236 -0.0871 -0.3274  0.1775
20250LIG    C1482255   1.330   1.567  17.095  0.0314 -0.2698  0.0424
20250LIG    C1582256   1.386   1.483  17.212 -0.3195  0.3308  1.0775
20250LIG    C1682257   1.810   1.469  16.622  0.1436 -0.0356  0.5825
20250LIG    C1782258   1.719   1.608  16.449  0.0642  0.2846  0.3783
20250LIG    C1882259   1.836   1.367  16.529  0.6736 -0.3196  1.1956
20250LIG    C1982260   1.750   1.515  16.351 -0.0818  0.4479 -0.2024
20250LIG    C2082261   1.811   1.395  16.389  0.5468 -0.5980  0.0242
20250LIG     H182262   1.919   1.652  16.793 -0.6322 -0.3155 -0.0018
20250LIG     H282263   1.950   1.885  16.590 -0.5511  0.0788  0.5786
20250LIG     H382264   2.002   1.717  16.559  1.2339  1.8485 -1.6976
20250LIG     H482265   1.819   1.814  16.945  0.5141  0.0054  1.0172
20250LIG     H582266   1.836   1.947  16.815  1.7427 -0.0181 -0.9337
20250LIG     H682267   1.538   1.671  16.727  1.8797 -0.2027 -2.3719
20250LIG     H782268   1.599   1.779  16.855  0.3480  0.0248  0.7133
20250LIG     H882269   2.190   1.876  16.634 -1.0072  2.1968  0.6310
20250LIG     H982270   2.148   1.728  16.756 -1.6336  1.7390  4.2019
20250LIG    H1082271   2.048   1.790  16.972 -2.5327 -0.9757 -1.8288
20250LIG    H1182272   1.993   1.960  17.003  0.4658  0.8857 -0.7868
20250LIG    H1282273   2.098   2.022  16.782 -0.1654 -0.2251  0.1095
20250LIG    H1382274   2.221   1.927  16.878  1.4785 -0.8787 -0.8691
20250LIG    H1482275   1.652   1.480  16.845  1.7731 -1.0201  0.0271
20250LIG    H1582276   1.758   1.599  16.922 -0.6808 -0.2748  1.9165
20250LIG    H1682277   1.713   1.522  17.141 -0.3363  0.8774 -2.2175
20250LIG    H1782278   1.622   1.381  17.083 -0.2266  0.0361 -1.3050
20250LIG    H1882279   1.419   1.456  16.922  3.2294  0.2216 -1.0315
20250LIG    H1982280   1.396   1.636  16.896  3.2242  1.7050  0.4625
20250LIG    H2082281   1.769   1.866  16.575  1.7552  0.0159  2.2325
20250LIG    H2182282   1.532   1.622  17.267 -0.3598 -1.0031  2.5956
20250LIG    H2282283   1.554   1.449  17.322  2.4022 -0.0020 -0.2501
20250LIG    H2382284   1.229   1.550  17.051  0.3285  0.6904 -1.0491
20250LIG    H2482285   1.331   1.671  17.136  1.4102 -0.3677  0.2814
20250LIG    H2582286   1.319   1.497  17.299 -3.0041 -0.9196 -0.7217
20250LIG    H2682287   1.377   1.379  17.175 -0.0329  1.1260 -1.3448
20250LIG    H2782288   1.839   1.470  16.726 -1.4073  1.2239  1.0232
20250LIG    H2882289   1.668   1.697  16.416 -0.7167 -1.5716 -3.8161
20250LIG    H2982290   1.875   1.272  16.562  1.5596 -0.7161 -0.9610
20250LIG    H3082291   1.732   1.527  16.245 -1.3477  0.5799  0.0244
20250LIG    H3182292   1.838   1.318  16.318  1.2220 -0.7753  0.4713
   6.82013   6.82013  17.29240
